<event>
 5    1  0.1265228E+001  0.9353569E+02  0.7546771E-02  0.1294509E+00
          4   -1    0    0  501    0  0.00000000000E+00  0.00000000000E+00  0.57566449468E+02  0.57566449468E+02  0.00000000000E+00 0. -1.
         -4   -1    0    0    0  501 -0.00000000000E+00 -0.00000000000E+00 -0.37994899571E+02  0.37994899571E+02  0.00000000000E+00 0.  1.
         23    2    1    2    0    0  0.00000000000E+00  0.00000000000E+00  0.19571549897E+02  0.95561349039E+02  0.93535692999E+02 0.  0.
        -13    1    3    3    0    0 -0.39965320363E+02  0.23700013459E+02  0.15222100935E+02  0.48894067396E+02  0.00000000000E+00 0.  1.
         13    1    3    3    0    0  0.39965320363E+02 -0.23700013459E+02  0.43494489613E+01  0.46667281643E+02  0.00000000000E+00 0. -1.
<mgrwt>
<rscale>  0 0.93535693E+02</rscale>
<asrwt>0</asrwt>
<pdfrwt beam="1">  1        4 0.88563769E-02 0.93535693E+02</pdfrwt>
<pdfrwt beam="2">  1       -4 0.58453692E-02 0.93535693E+02</pdfrwt>
<totfact> 0.24940901E+04</totfact>
</mgrwt>
</event>
<event>
 5    1  0.1265228E+001  0.9036994E+02  0.7546771E-02  0.1301958E+00
          1   -1    0    0  501    0  0.00000000000E+00  0.00000000000E+00  0.16139015654E+02  0.16139015654E+02  0.00000000000E+00 0. -1.
         -1   -1    0    0    0  501 -0.00000000000E+00 -0.00000000000E+00 -0.12650596220E+03  0.12650596220E+03  0.00000000000E+00 0.  1.
         23    2    1    2    0    0  0.00000000000E+00  0.00000000000E+00 -0.11036694655E+03  0.14264497786E+03  0.90369944215E+02 0.  0.
        -11    1    3    3    0    0  0.30397934378E+02  0.55232197509E+01 -0.10722804940E+03  0.11159029953E+03  0.00000000000E+00 0.  1.
         11    1    3    3    0    0 -0.30397934378E+02 -0.55232197509E+01 -0.31388971511E+01  0.31054678331E+02  0.00000000000E+00 0. -1.
<mgrwt>
<rscale>  0 0.90369944E+02</rscale>
<asrwt>0</asrwt>
<pdfrwt beam="1">  1        1 0.24829255E-02 0.90369944E+02</pdfrwt>
<pdfrwt beam="2">  1       -1 0.19462456E-01 0.90369944E+02</pdfrwt>
<totfact> 0.79479692E+04</totfact>
</mgrwt>
</event>
<event>
 5    1  0.1265228E+001  0.9359832E+02  0.7546771E-02  0.1294365E+00
         -1   -1    0    0    0  501 -0.00000000000E+00  0.00000000000E+00  0.67199558361E+02  0.67199558361E+02  0.00000000000E+00 0.  1.
          1   -1    0    0  501    0  0.00000000000E+00 -0.00000000000E+00 -0.32591902353E+02  0.32591902353E+02  0.00000000000E+00 0. -1.
         23    2    1    2    0    0  0.00000000000E+00  0.00000000000E+00  0.34607656009E+02  0.99791460714E+02  0.93598321443E+02 0.  0.
        -13    1    3    3    0    0 -0.16995019597E+02 -0.15332254271E+02  0.60824516439E+02  0.64988695264E+02  0.00000000000E+00 0.  1.
         13    1    3    3    0    0  0.16995019597E+02  0.15332254271E+02 -0.26216860430E+02  0.34802765450E+02  0.00000000000E+00 0. -1.
<mgrwt>
<rscale>  0 0.93598321E+02</rscale>
<asrwt>0</asrwt>
<pdfrwt beam="2">  1        1 0.50141388E-02 0.93598321E+02</pdfrwt>
<pdfrwt beam="1">  1       -1 0.10338394E-01 0.93598321E+02</pdfrwt>
<totfact> 0.81480195E+04</totfact>
</mgrwt>
</event>
<event>
 5    1  0.1265228E+001  0.9182651E+02  0.7546771E-02  0.1298488E+00
         -2   -1    0    0    0  501 -0.00000000000E+00  0.00000000000E+00  0.57027839266E+01  0.57027839266E+01  0.00000000000E+00 0.  1.
          2   -1    0    0  501    0  0.00000000000E+00 -0.00000000000E+00 -0.36964872214E+03  0.36964872214E+03  0.00000000000E+00 0. -1.
         23    2    1    2    0    0  0.00000000000E+00  0.00000000000E+00 -0.36394593821E+03  0.37535150607E+03  0.91826505784E+02 0.  0.
        -11    1    3    3    0    0 -0.56515796639E+01 -0.44846321800E+02 -0.14904447227E+03  0.15574783352E+03  0.00000000000E+00 0.  1.
         11    1    3    3    0    0  0.56515796639E+01  0.44846321800E+02 -0.21490146594E+03  0.21960367255E+03  0.00000000000E+00 0. -1.
<mgrwt>
<rscale>  0 0.91826506E+02</rscale>
<asrwt>0</asrwt>
<pdfrwt beam="2">  1        2 0.56869046E-01 0.91826506E+02</pdfrwt>
<pdfrwt beam="1">  1       -2 0.87735119E-03 0.91826506E+02</pdfrwt>
<totfact> 0.19038757E+05</totfact>
</mgrwt>
</event>
<event>
 5    1  0.1265228E+001  0.9173712E+02  0.7546771E-02  0.1298699E+00
         -2   -1    0    0    0  501 -0.00000000000E+00  0.00000000000E+00  0.48537672595E+01  0.48537672595E+01  0.00000000000E+00 0.  1.
          2   -1    0    0  501    0  0.00000000000E+00 -0.00000000000E+00 -0.43346224481E+03  0.43346224481E+03  0.00000000000E+00 0. -1.
         23    2    1    2    0    0  0.00000000000E+00  0.00000000000E+00 -0.42860847755E+03  0.43831601207E+03  0.91737121212E+02 0.  0.
        -13    1    3    3    0    0 -0.35617216267E+02 -0.27843647215E+02 -0.17727274017E+03  0.18294665669E+03  0.00000000000E+00 0.  1.
         13    1    3    3    0    0  0.35617216267E+02  0.27843647215E+02 -0.25133573738E+03  0.25536935538E+03  0.00000000000E+00 0. -1.
<mgrwt>
<rscale>  0 0.91737121E+02</rscale>
<asrwt>0</asrwt>
<pdfrwt beam="2">  1        2 0.66686493E-01 0.91737121E+02</pdfrwt>
<pdfrwt beam="1">  1       -2 0.74673350E-03 0.91737121E+02</pdfrwt>
<totfact> 0.20205466E+05</totfact>
</mgrwt>
</event>
<event>
 5    1  0.1265228E+001  0.8959882E+02  0.7546771E-02  0.1303826E+00
         -1   -1    0    0    0  501 -0.00000000000E+00  0.00000000000E+00  0.92375690594E+01  0.92375690594E+01  0.00000000000E+00 0.  1.
          1   -1    0    0  501    0  0.00000000000E+00 -0.00000000000E+00 -0.21726358092E+03  0.21726358092E+03  0.00000000000E+00 0. -1.
         23    2    1    2    0    0  0.00000000000E+00  0.00000000000E+00 -0.20802601186E+03  0.22650114998E+03  0.89598824385E+02 0.  0.
        -11    1    3    3    0    0 -0.24829621603E+02  0.20816591435E+02 -0.25803892409E+02  0.41420785258E+02  0.00000000000E+00 0.  1.
         11    1    3    3    0    0  0.24829621603E+02 -0.20816591435E+02 -0.18222211945E+03  0.18508036472E+03  0.00000000000E+00 0. -1.
<mgrwt>
<rscale>  0 0.89598824E+02</rscale>
<asrwt>0</asrwt>
<pdfrwt beam="2">  1        1 0.33425167E-01 0.89598824E+02</pdfrwt>
<pdfrwt beam="1">  1       -1 0.14211644E-02 0.89598824E+02</pdfrwt>
<totfact> 0.12607923E+05</totfact>
</mgrwt>
</event>
<event>
 5    1  0.1265228E+001  0.9068047E+02  0.7546771E-02  0.1301212E+00
          3   -1    0    0  501    0  0.00000000000E+00  0.00000000000E+00  0.40669863740E+02  0.40669863740E+02  0.00000000000E+00 0. -1.
         -3   -1    0    0    0  501 -0.00000000000E+00 -0.00000000000E+00 -0.50546933321E+02  0.50546933321E+02  0.00000000000E+00 0.  1.
         23    2    1    2    0    0  0.00000000000E+00  0.00000000000E+00 -0.98770695806E+01  0.91216797061E+02  0.90680469577E+02 0.  0.
        -11    1    3    3    0    0 -0.15856874859E+02  0.27496819677E+02  0.27629199949E+02  0.42081923227E+02  0.00000000000E+00 0. -1.
         11    1    3    3    0    0  0.15856874859E+02 -0.27496819677E+02 -0.37506269530E+02  0.49134873834E+02  0.00000000000E+00 0.  1.
<mgrwt>
<rscale>  0 0.90680470E+02</rscale>
<asrwt>0</asrwt>
<pdfrwt beam="1">  1        3 0.62569021E-02 0.90680470E+02</pdfrwt>
<pdfrwt beam="2">  1       -3 0.77764513E-02 0.90680470E+02</pdfrwt>
<totfact> 0.35865089E+04</totfact>
</mgrwt>
</event>
<event>
 5    1  0.1265228E+001  0.9208745E+02  0.7546771E-02  0.1297874E+00
         -1   -1    0    0    0  501 -0.00000000000E+00  0.00000000000E+00  0.22728666413E+02  0.22728666413E+02  0.00000000000E+00 0.  1.
          1   -1    0    0  501    0  0.00000000000E+00 -0.00000000000E+00 -0.93275371877E+02  0.93275371877E+02  0.00000000000E+00 0. -1.
         23    2    1    2    0    0  0.00000000000E+00  0.00000000000E+00 -0.70546705464E+02  0.11600403829E+03  0.92087454345E+02 0.  0.
        -13    1    3    3    0    0 -0.41226446609E+02 -0.11572824918E+02 -0.56594753236E+02  0.70968417415E+02  0.00000000000E+00 0. -1.
         13    1    3    3    0    0  0.41226446609E+02  0.11572824918E+02 -0.13951952228E+02  0.45035620874E+02  0.00000000000E+00 0.  1.
<mgrwt>
<rscale>  0 0.92087454E+02</rscale>
<asrwt>0</asrwt>
<pdfrwt beam="2">  1        1 0.14350057E-01 0.92087454E+02</pdfrwt>
<pdfrwt beam="1">  1       -1 0.34967179E-02 0.92087454E+02</pdfrwt>
<totfact> 0.10048992E+05</totfact>
</mgrwt>
</event>
<event>
 5    1  0.1265228E+001  0.8078773E+02  0.7546771E-02  0.1326831E+00
         -2   -1    0    0    0  501 -0.00000000000E+00  0.00000000000E+00  0.11232350108E+02  0.11232350108E+02  0.00000000000E+00 0.  1.
          2   -1    0    0  501    0  0.00000000000E+00 -0.00000000000E+00 -0.14526472892E+03  0.14526472892E+03  0.00000000000E+00 0. -1.
         23    2    1    2    0    0  0.00000000000E+00  0.00000000000E+00 -0.13403237881E+03  0.15649707902E+03  0.80787729106E+02 0.  0.
        -11    1    3    3    0    0  0.28760772209E+02 -0.24756549390E+02 -0.40202687930E+02  0.55284038135E+02  0.00000000000E+00 0.  1.
         11    1    3    3    0    0 -0.28760772209E+02  0.24756549390E+02 -0.93829690877E+02  0.10121304089E+03  0.00000000000E+00 0. -1.
<mgrwt>
<rscale>  0 0.80787729E+02</rscale>
<asrwt>0</asrwt>
<pdfrwt beam="2">  1        2 0.22348419E-01 0.80787729E+02</pdfrwt>
<pdfrwt beam="1">  1       -2 0.17280539E-02 0.80787729E+02</pdfrwt>
<totfact> 0.19158650E+05</totfact>
</mgrwt>
</event>
<event>
 5    1  0.1265228E+001  0.9240586E+02  0.7546771E-02  0.1297128E+00
         -4   -1    0    0    0  501 -0.00000000000E+00  0.00000000000E+00  0.95937918880E+02  0.95937918880E+02  0.00000000000E+00 0. -1.
          4   -1    0    0  501    0  0.00000000000E+00 -0.00000000000E+00 -0.22250957326E+02  0.22250957326E+02  0.00000000000E+00 0.  1.
         23    2    1    2    0    0  0.00000000000E+00  0.00000000000E+00  0.73686961553E+02  0.11818887621E+03  0.92405855637E+02 0.  0.
        -13    1    3    3    0    0  0.12856157698E+02  0.25553054433E+02 -0.95634434137E+01  0.30161214027E+02  0.00000000000E+00 0.  1.
         13    1    3    3    0    0 -0.12856157698E+02 -0.25553054433E+02  0.83250404967E+02  0.88027662180E+02  0.00000000000E+00 0. -1.
<mgrwt>
<rscale>  0 0.92405856E+02</rscale>
<asrwt>0</asrwt>
<pdfrwt beam="2">  1        4 0.34232243E-02 0.92405856E+02</pdfrwt>
<pdfrwt beam="1">  1       -4 0.14759680E-01 0.92405856E+02</pdfrwt>
<totfact> 0.24471539E+04</totfact>
</mgrwt>
</event>
<event>
 5    1  0.1265228E+001  0.8935413E+02  0.7546771E-02  0.1304423E+00
         -2   -1    0    0    0  501 -0.00000000000E+00  0.00000000000E+00  0.14519271401E+02  0.14519271401E+02  0.00000000000E+00 0. -1.
          2   -1    0    0  501    0  0.00000000000E+00 -0.00000000000E+00 -0.13747523723E+03  0.13747523723E+03  0.00000000000E+00 0.  1.
         23    2    1    2    0    0  0.00000000000E+00  0.00000000000E+00 -0.12295596583E+03  0.15199450863E+03  0.89354133207E+02 0.  0.
        -11    1    3    3    0    0  0.19313714604E+02  0.22367126775E+02 -0.11847490048E+03  0.12210491381E+03  0.00000000000E+00 0.  1.
         11    1    3    3    0    0 -0.19313714604E+02 -0.22367126775E+02 -0.44810653453E+01  0.29889594821E+02  0.00000000000E+00 0. -1.
<mgrwt>
<rscale>  0 0.89354133E+02</rscale>
<asrwt>0</asrwt>
<pdfrwt beam="2">  1        2 0.21150036E-01 0.89354133E+02</pdfrwt>
<pdfrwt beam="1">  1       -2 0.22337341E-02 0.89354133E+02</pdfrwt>
<totfact> 0.14342048E+05</totfact>
</mgrwt>
</event>
<event>
 5    1  0.1265228E+001  0.9028642E+02  0.7546771E-02  0.1302160E+00
         -2   -1    0    0    0  501 -0.00000000000E+00  0.00000000000E+00  0.67829964992E+01  0.67829964992E+01  0.00000000000E+00 0. -1.
          2   -1    0    0  501    0  0.00000000000E+00 -0.00000000000E+00 -0.30044380616E+03  0.30044380616E+03  0.00000000000E+00 0.  1.
         23    2    1    2    0    0  0.00000000000E+00  0.00000000000E+00 -0.29366080966E+03  0.30722680266E+03  0.90286417259E+02 0.  0.
        -11    1    3    3    0    0 -0.93440978553E+01  0.43894354089E+02 -0.13020090068E+03  0.13771819424E+03  0.00000000000E+00 0. -1.
         11    1    3    3    0    0  0.93440978553E+01 -0.43894354089E+02 -0.16345990898E+03  0.16950860842E+03  0.00000000000E+00 0.  1.
<mgrwt>
<rscale>  0 0.90286417E+02</rscale>
<asrwt>0</asrwt>
<pdfrwt beam="2">  1        2 0.46222118E-01 0.90286417E+02</pdfrwt>
<pdfrwt beam="1">  1       -2 0.10435381E-02 0.90286417E+02</pdfrwt>
<totfact> 0.18452333E+05</totfact>
</mgrwt>
</event>
<event>
 5    1  0.1265228E+001  0.8965545E+02  0.7546771E-02  0.1303688E+00
         -2   -1    0    0    0  501 -0.00000000000E+00  0.00000000000E+00  0.31796715116E+02  0.31796715116E+02  0.00000000000E+00 0.  1.
          2   -1    0    0  501    0  0.00000000000E+00 -0.00000000000E+00 -0.63199141283E+02  0.63199141283E+02  0.00000000000E+00 0. -1.
         23    2    1    2    0    0  0.00000000000E+00  0.00000000000E+00 -0.31402426167E+02  0.94995856399E+02  0.89655453620E+02 0.  0.
        -13    1    3    3    0    0 -0.78362160128E+01  0.15207905755E+02 -0.59604057725E+02  0.62010727912E+02  0.00000000000E+00 0. -1.
         13    1    3    3    0    0  0.78362160128E+01 -0.15207905755E+02  0.28201631557E+02  0.32985128488E+02  0.00000000000E+00 0.  1.
<mgrwt>
<rscale>  0 0.89655454E+02</rscale>
<asrwt>0</asrwt>
<pdfrwt beam="2">  1        2 0.97229446E-02 0.89655454E+02</pdfrwt>
<pdfrwt beam="1">  1       -2 0.48918024E-02 0.89655454E+02</pdfrwt>
<totfact> 0.11276654E+05</totfact>
</mgrwt>
</event>
<event>
 5    1  0.1265228E+001  0.9087708E+02  0.7546771E-02  0.1300742E+00
         -1   -1    0    0    0  501 -0.00000000000E+00  0.00000000000E+00  0.14344314967E+02  0.14344314967E+02  0.00000000000E+00 0.  1.
          1   -1    0    0  501    0  0.00000000000E+00 -0.00000000000E+00 -0.14393581701E+03  0.14393581701E+03  0.00000000000E+00 0. -1.
         23    2    1    2    0    0  0.00000000000E+00  0.00000000000E+00 -0.12959150204E+03  0.15828013197E+03  0.90877075090E+02 0.  0.
        -11    1    3    3    0    0 -0.42131284551E+02  0.80814130829E+01 -0.90880869709E+02  0.10049719824E+03  0.00000000000E+00 0. -1.
         11    1    3    3    0    0  0.42131284551E+02 -0.80814130829E+01 -0.38710632330E+02  0.57782933733E+02  0.00000000000E+00 0.  1.
<mgrwt>
<rscale>  0 0.90877075E+02</rscale>
<asrwt>0</asrwt>
<pdfrwt beam="2">  1        1 0.22143972E-01 0.90877075E+02</pdfrwt>
<pdfrwt beam="1">  1       -1 0.22068177E-02 0.90877075E+02</pdfrwt>
<totfact> 0.11228280E+05</totfact>
</mgrwt>
</event>
<event>
 5    1  0.1265228E+001  0.9175842E+02  0.7546771E-02  0.1298648E+00
          1   -1    0    0  501    0  0.00000000000E+00  0.00000000000E+00  0.86373221048E+01  0.86373221048E+01  0.00000000000E+00 0. -1.
         -1   -1    0    0    0  501 -0.00000000000E+00 -0.00000000000E+00 -0.24369843405E+03  0.24369843405E+03  0.00000000000E+00 0.  1.
         23    2    1    2    0    0  0.00000000000E+00  0.00000000000E+00 -0.23506111195E+03  0.25233575616E+03  0.91758419153E+02 0.  0.
        -11    1    3    3    0    0 -0.44926505677E+02  0.18920931336E+01 -0.14257383386E+03  0.14949671913E+03  0.00000000000E+00 0.  1.
         11    1    3    3    0    0  0.44926505677E+02 -0.18920931336E+01 -0.92487278087E+02  0.10283903703E+03  0.00000000000E+00 0. -1.
<mgrwt>
<rscale>  0 0.91758419E+02</rscale>
<asrwt>0</asrwt>
<pdfrwt beam="1">  1        1 0.13288190E-02 0.91758419E+02</pdfrwt>
<pdfrwt beam="2">  1       -1 0.37492061E-01 0.91758419E+02</pdfrwt>
<totfact> 0.64245687E+04</totfact>
</mgrwt>
</event>
<event>
 5    1  0.1265228E+001  0.9346519E+02  0.7546771E-02  0.1294671E+00
          1   -1    0    0  501    0  0.00000000000E+00  0.00000000000E+00  0.20908603039E+02  0.20908603039E+02  0.00000000000E+00 0. -1.
         -1   -1    0    0    0  501 -0.00000000000E+00 -0.00000000000E+00 -0.10445153237E+03  0.10445153237E+03  0.00000000000E+00 0.  1.
         23    2    1    2    0    0  0.00000000000E+00  0.00000000000E+00 -0.83542929328E+02  0.12536013541E+03  0.93465194102E+02 0.  0.
        -11    1    3    3    0    0 -0.10591156267E+02 -0.43080885789E+02 -0.22068318541E+02  0.49549429812E+02  0.00000000000E+00 0. -1.
         11    1    3    3    0    0  0.10591156267E+02  0.43080885789E+02 -0.61474610787E+02  0.75810705595E+02  0.00000000000E+00 0.  1.
<mgrwt>
<rscale>  0 0.93465194E+02</rscale>
<asrwt>0</asrwt>
<pdfrwt beam="1">  1        1 0.32167082E-02 0.93465194E+02</pdfrwt>
<pdfrwt beam="2">  1       -1 0.16069466E-01 0.93465194E+02</pdfrwt>
<totfact> 0.75704885E+04</totfact>
</mgrwt>
</event>
<event>
 5    1  0.1265228E+001  0.8708974E+02  0.7546771E-02  0.1310056E+00
         -1   -1    0    0    0  501 -0.00000000000E+00  0.00000000000E+00  0.36348953690E+02  0.36348953690E+02  0.00000000000E+00 0.  1.
          1   -1    0    0  501    0  0.00000000000E+00 -0.00000000000E+00 -0.52165339480E+02  0.52165339480E+02  0.00000000000E+00 0. -1.
         23    2    1    2    0    0  0.00000000000E+00  0.00000000000E+00 -0.15816385789E+02  0.88514293170E+02  0.87089735538E+02 0.  0.
        -13    1    3    3    0    0  0.12019592969E+02  0.38765303268E+01 -0.50263078229E+02  0.51825429430E+02  0.00000000000E+00 0. -1.
         13    1    3    3    0    0 -0.12019592969E+02 -0.38765303268E+01  0.34446692440E+02  0.36688863740E+02  0.00000000000E+00 0.  1.
<mgrwt>
<rscale>  0 0.87089736E+02</rscale>
<asrwt>0</asrwt>
<pdfrwt beam="2">  1        1 0.80254368E-02 0.87089736E+02</pdfrwt>
<pdfrwt beam="1">  1       -1 0.55921467E-02 0.87089736E+02</pdfrwt>
<totfact> 0.10718128E+05</totfact>
</mgrwt>
</event>
<event>
 5    1  0.1265228E+001  0.9059649E+02  0.7546771E-02  0.1301414E+00
         -1   -1    0    0    0  501 -0.00000000000E+00  0.00000000000E+00  0.22654154672E+03  0.22654154672E+03  0.00000000000E+00 0.  1.
          1   -1    0    0  501    0  0.00000000000E+00 -0.00000000000E+00 -0.90576370028E+01  0.90576370028E+01  0.00000000000E+00 0. -1.
         23    2    1    2    0    0  0.00000000000E+00  0.00000000000E+00  0.21748390972E+03  0.23559918372E+03  0.90596492123E+02 0.  0.
        -13    1    3    3    0    0 -0.44991526331E+02  0.19993893787E+01  0.12140099586E+03  0.12948527636E+03  0.00000000000E+00 0.  1.
         13    1    3    3    0    0  0.44991526331E+02 -0.19993893787E+01  0.96082913861E+02  0.10611390736E+03  0.00000000000E+00 0. -1.
<mgrwt>
<rscale>  0 0.90596492E+02</rscale>
<asrwt>0</asrwt>
<pdfrwt beam="2">  1        1 0.13934828E-02 0.90596492E+02</pdfrwt>
<pdfrwt beam="1">  1       -1 0.34852542E-01 0.90596492E+02</pdfrwt>
<totfact> 0.68003019E+04</totfact>
</mgrwt>
</event>
<event>
 5    1  0.1265228E+001  0.9216708E+02  0.7546771E-02  0.1297687E+00
          1   -1    0    0  501    0  0.00000000000E+00  0.00000000000E+00  0.16272422438E+03  0.16272422438E+03  0.00000000000E+00 0. -1.
         -1   -1    0    0    0  501 -0.00000000000E+00 -0.00000000000E+00 -0.13050869037E+02  0.13050869037E+02  0.00000000000E+00 0.  1.
         23    2    1    2    0    0  0.00000000000E+00  0.00000000000E+00  0.14967335534E+03  0.17577509342E+03  0.92167077452E+02 0.  0.
        -13    1    3    3    0    0  0.30043350780E+02 -0.87687954863E+01  0.10325928882E+02  0.32956327277E+02  0.00000000000E+00 0.  1.
         13    1    3    3    0    0 -0.30043350780E+02  0.87687954863E+01  0.13934742646E+03  0.14281876614E+03  0.00000000000E+00 0. -1.
<mgrwt>
<rscale>  0 0.92167077E+02</rscale>
<asrwt>0</asrwt>
<pdfrwt beam="1">  1        1 0.25034495E-01 0.92167077E+02</pdfrwt>
<pdfrwt beam="2">  1       -1 0.20078261E-02 0.92167077E+02</pdfrwt>
<totfact> 0.11056977E+05</totfact>
</mgrwt>
</event>
<event>
 5    1  0.1265228E+001  0.9217598E+02  0.7546771E-02  0.1297666E+00
         -4   -1    0    0    0  501 -0.00000000000E+00  0.00000000000E+00  0.27239753305E+02  0.27239753305E+02  0.00000000000E+00 0.  1.
          4   -1    0    0  501    0  0.00000000000E+00 -0.00000000000E+00 -0.77978055185E+02  0.77978055185E+02  0.00000000000E+00 0. -1.
         23    2    1    2    0    0  0.00000000000E+00  0.00000000000E+00 -0.50738301880E+02  0.10521780849E+03  0.92175983562E+02 0.  0.
        -11    1    3    3    0    0  0.27552388802E+02 -0.24882165016E+01  0.16707936131E+02  0.32318423226E+02  0.00000000000E+00 0.  1.
         11    1    3    3    0    0 -0.27552388802E+02  0.24882165016E+01 -0.67446238010E+02  0.72899385264E+02  0.00000000000E+00 0. -1.
<mgrwt>
<rscale>  0 0.92175984E+02</rscale>
<asrwt>0</asrwt>
<pdfrwt beam="2">  1        4 0.11996623E-01 0.92175984E+02</pdfrwt>
<pdfrwt beam="1">  1       -4 0.41907314E-02 0.92175984E+02</pdfrwt>
<totfact> 0.25376995E+04</totfact>
</mgrwt>
</event>
<event>
 5    1  0.1265228E+001  0.9191662E+02  0.7546771E-02  0.1298276E+00
          4   -1    0    0  501    0  0.00000000000E+00  0.00000000000E+00  0.10682788315E+02  0.10682788315E+02  0.00000000000E+00 0. -1.
         -4   -1    0    0    0  501 -0.00000000000E+00 -0.00000000000E+00 -0.19771675314E+03  0.19771675314E+03  0.00000000000E+00 0.  1.
         23    2    1    2    0    0  0.00000000000E+00  0.00000000000E+00 -0.18703396482E+03  0.20839954145E+03  0.91916619175E+02 0.  0.
        -13    1    3    3    0    0 -0.30972593952E+02  0.36634481612E+01 -0.17005005868E+03  0.17288650868E+03  0.00000000000E+00 0.  1.
         13    1    3    3    0    0  0.30972593952E+02 -0.36634481612E+01 -0.16983906146E+02  0.35513032770E+02  0.00000000000E+00 0. -1.
<mgrwt>
<rscale>  0 0.91916619E+02</rscale>
<asrwt>0</asrwt>
<pdfrwt beam="1">  1        4 0.16435059E-02 0.91916619E+02</pdfrwt>
<pdfrwt beam="2">  1       -4 0.30417962E-01 0.91916619E+02</pdfrwt>
<totfact> 0.20589381E+04</totfact>
</mgrwt>
</event>
<event>
 5    1  0.1265228E+001  0.9436006E+02  0.7546771E-02  0.1292624E+00
          2   -1    0    0  501    0  0.00000000000E+00  0.00000000000E+00  0.17777013593E+03  0.17777013593E+03  0.00000000000E+00 0. -1.
         -2   -1    0    0    0  501 -0.00000000000E+00 -0.00000000000E+00 -0.12521537607E+02  0.12521537607E+02  0.00000000000E+00 0.  1.
         23    2    1    2    0    0  0.00000000000E+00  0.00000000000E+00  0.16524859832E+03  0.19029167353E+03  0.94360064486E+02 0.  0.
        -13    1    3    3    0    0  0.19341611404E+02 -0.29946483380E+02  0.20301325366E+02  0.41024792628E+02  0.00000000000E+00 0.  1.
         13    1    3    3    0    0 -0.19341611404E+02  0.29946483380E+02  0.14494727296E+03  0.14926688091E+03  0.00000000000E+00 0. -1.
<mgrwt>
<rscale>  0 0.94360064E+02</rscale>
<asrwt>0</asrwt>
<pdfrwt beam="1">  1        2 0.27349250E-01 0.94360064E+02</pdfrwt>
<pdfrwt beam="2">  1       -2 0.19263905E-02 0.94360064E+02</pdfrwt>
<totfact> 0.13512810E+05</totfact>
</mgrwt>
</event>
<event>
 5    1  0.1265228E+001  0.9740654E+02  0.7546771E-02  0.1285846E+00
         -1   -1    0    0    0  501 -0.00000000000E+00  0.00000000000E+00  0.18208990791E+02  0.18208990791E+02  0.00000000000E+00 0.  1.
          1   -1    0    0  501    0  0.00000000000E+00 -0.00000000000E+00 -0.13026578835E+03  0.13026578835E+03  0.00000000000E+00 0. -1.
         23    2    1    2    0    0  0.00000000000E+00  0.00000000000E+00 -0.11205679756E+03  0.14847477914E+03  0.97406540652E+02 0.  0.
        -11    1    3    3    0    0  0.26743370384E+02  0.34052568398E+01  0.57980876047E+01  0.27575740308E+02  0.00000000000E+00 0.  1.
         11    1    3    3    0    0 -0.26743370384E+02 -0.34052568398E+01 -0.11785488517E+03  0.12089903884E+03  0.00000000000E+00 0. -1.
<mgrwt>
<rscale>  0 0.97406541E+02</rscale>
<asrwt>0</asrwt>
<pdfrwt beam="2">  1        1 0.20040890E-01 0.97406541E+02</pdfrwt>
<pdfrwt beam="1">  1       -1 0.28013833E-02 0.97406541E+02</pdfrwt>
<totfact> 0.91325049E+04</totfact>
</mgrwt>
</event>
<event>
 5    1  0.1265228E+001  0.9222489E+02  0.7546771E-02  0.1297552E+00
         -4   -1    0    0    0  501 -0.00000000000E+00  0.00000000000E+00  0.52938403452E+02  0.52938403452E+02  0.00000000000E+00 0.  1.
          4   -1    0    0  501    0  0.00000000000E+00 -0.00000000000E+00 -0.40166636723E+02  0.40166636723E+02  0.00000000000E+00 0. -1.
         23    2    1    2    0    0  0.00000000000E+00  0.00000000000E+00  0.12771766729E+02  0.93105040175E+02  0.92224890787E+02 0.  0.
        -13    1    3    3    0    0 -0.19636832271E+02  0.28249617709E+02 -0.24610744794E+02  0.42300530040E+02  0.00000000000E+00 0.  1.
         13    1    3    3    0    0  0.19636832271E+02 -0.28249617709E+02  0.37382511523E+02  0.50804510136E+02  0.00000000000E+00 0. -1.
<mgrwt>
<rscale>  0 0.92224891E+02</rscale>
<asrwt>0</asrwt>
<pdfrwt beam="2">  1        4 0.61794826E-02 0.92224891E+02</pdfrwt>
<pdfrwt beam="1">  1       -4 0.81443697E-02 0.92224891E+02</pdfrwt>
<totfact> 0.26069349E+04</totfact>
</mgrwt>
</event>
<event>
 5    1  0.1265228E+001  0.9134753E+02  0.7546771E-02  0.1299621E+00
          2   -1    0    0  501    0  0.00000000000E+00  0.00000000000E+00  0.56210237995E+02  0.56210237995E+02  0.00000000000E+00 0. -1.
         -2   -1    0    0    0  501 -0.00000000000E+00 -0.00000000000E+00 -0.37112328084E+02  0.37112328084E+02  0.00000000000E+00 0.  1.
         23    2    1    2    0    0  0.00000000000E+00  0.00000000000E+00  0.19097909910E+02  0.93322566079E+02  0.91347529669E+02 0.  0.
        -13    1    3    3    0    0 -0.11534585177E+02 -0.24104714797E+02 -0.28292543331E+02  0.38917244748E+02  0.00000000000E+00 0.  1.
         13    1    3    3    0    0  0.11534585177E+02  0.24104714797E+02  0.47390453242E+02  0.54405321331E+02  0.00000000000E+00 0. -1.
<mgrwt>
<rscale>  0 0.91347530E+02</rscale>
<asrwt>0</asrwt>
<pdfrwt beam="1">  1        2 0.86477289E-02 0.91347530E+02</pdfrwt>
<pdfrwt beam="2">  1       -2 0.57095890E-02 0.91347530E+02</pdfrwt>
<totfact> 0.10368834E+05</totfact>
</mgrwt>
</event>
<event>
 5    1  0.1265228E+001  0.9429650E+02  0.7546771E-02  0.1292768E+00
          1   -1    0    0  501    0  0.00000000000E+00  0.00000000000E+00  0.56203797610E+02  0.56203797610E+02  0.00000000000E+00 0. -1.
         -1   -1    0    0    0  501 -0.00000000000E+00 -0.00000000000E+00 -0.39551735041E+02  0.39551735041E+02  0.00000000000E+00 0.  1.
         23    2    1    2    0    0  0.00000000000E+00  0.00000000000E+00  0.16652062569E+02  0.95755532650E+02  0.94296504948E+02 0.  0.
        -13    1    3    3    0    0  0.41755591954E+02 -0.41697984438E+01  0.30153760289E+02  0.51673648391E+02  0.00000000000E+00 0. -1.
         13    1    3    3    0    0 -0.41755591954E+02  0.41697984438E+01 -0.13501697719E+02  0.44081884259E+02  0.00000000000E+00 0.  1.
<mgrwt>
<rscale>  0 0.94296505E+02</rscale>
<asrwt>0</asrwt>
<pdfrwt beam="1">  1        1 0.86467381E-02 0.94296505E+02</pdfrwt>
<pdfrwt beam="2">  1       -1 0.60848823E-02 0.94296505E+02</pdfrwt>
<totfact> 0.86873710E+04</totfact>
</mgrwt>
</event>
<event>
 5    1  0.1265228E+001  0.9083969E+02  0.7546771E-02  0.1300831E+00
          3   -1    0    0  501    0  0.00000000000E+00  0.00000000000E+00  0.64355778396E+02  0.64355778396E+02  0.00000000000E+00 0. -1.
         -3   -1    0    0    0  501 -0.00000000000E+00 -0.00000000000E+00 -0.32055588902E+02  0.32055588902E+02  0.00000000000E+00 0.  1.
         23    2    1    2    0    0  0.00000000000E+00  0.00000000000E+00  0.32300189494E+02  0.96411367298E+02  0.90839691230E+02 0.  0.
        -11    1    3    3    0    0 -0.67480882928E+01  0.13724148461E+02 -0.29240739320E+02  0.32998633041E+02  0.00000000000E+00 0.  1.
         11    1    3    3    0    0  0.67480882928E+01 -0.13724148461E+02  0.61540928814E+02  0.63412734257E+02  0.00000000000E+00 0. -1.
<mgrwt>
<rscale>  0 0.90839691E+02</rscale>
<asrwt>0</asrwt>
<pdfrwt beam="1">  1        3 0.99008890E-02 0.90839691E+02</pdfrwt>
<pdfrwt beam="2">  1       -3 0.49316291E-02 0.90839691E+02</pdfrwt>
<totfact> 0.35293378E+04</totfact>
</mgrwt>
</event>
<event>
 5    1  0.1265228E+001  0.8855966E+02  0.7546771E-02  0.1306378E+00
          2   -1    0    0  501    0  0.00000000000E+00  0.00000000000E+00  0.30787010549E+02  0.30787010549E+02  0.00000000000E+00 0. -1.
         -2   -1    0    0    0  501 -0.00000000000E+00 -0.00000000000E+00 -0.63686064264E+02  0.63686064264E+02  0.00000000000E+00 0.  1.
         23    2    1    2    0    0  0.00000000000E+00  0.00000000000E+00 -0.32899053714E+02  0.94473074813E+02  0.88559664235E+02 0.  0.
        -11    1    3    3    0    0 -0.20930366998E+02  0.24524687248E+01  0.25094525413E+02  0.32769346518E+02  0.00000000000E+00 0. -1.
         11    1    3    3    0    0  0.20930366998E+02 -0.24524687248E+01 -0.57993579127E+02  0.61703728295E+02  0.00000000000E+00 0.  1.
<mgrwt>
<rscale>  0 0.88559664E+02</rscale>
<asrwt>0</asrwt>
<pdfrwt beam="1">  1        2 0.47364632E-02 0.88559664E+02</pdfrwt>
<pdfrwt beam="2">  1       -2 0.97978559E-02 0.88559664E+02</pdfrwt>
<totfact> 0.97064092E+04</totfact>
</mgrwt>
</event>
<event>
 5    1  0.1265228E+001  0.9498795E+02  0.7546771E-02  0.1291203E+00
          2   -1    0    0  501    0  0.00000000000E+00  0.00000000000E+00  0.19819935820E+02  0.19819935820E+02  0.00000000000E+00 0. -1.
         -2   -1    0    0    0  501 -0.00000000000E+00 -0.00000000000E+00 -0.11380853014E+03  0.11380853014E+03  0.00000000000E+00 0.  1.
         23    2    1    2    0    0  0.00000000000E+00  0.00000000000E+00 -0.93988594318E+02  0.13362846596E+03  0.94987952145E+02 0.  0.
        -13    1    3    3    0    0  0.34828931747E+02 -0.20096452227E+02 -0.11439523767E+02  0.41806513640E+02  0.00000000000E+00 0.  1.
         13    1    3    3    0    0 -0.34828931747E+02  0.20096452227E+02 -0.82549070551E+02  0.91821952319E+02  0.00000000000E+00 0. -1.
<mgrwt>
<rscale>  0 0.94987952E+02</rscale>
<asrwt>0</asrwt>
<pdfrwt beam="1">  1        2 0.30492209E-02 0.94987952E+02</pdfrwt>
<pdfrwt beam="2">  1       -2 0.17509005E-01 0.94987952E+02</pdfrwt>
<totfact> 0.69224266E+04</totfact>
</mgrwt>
</event>
<event>
 5    1  0.1265228E+001  0.9133398E+02  0.7546771E-02  0.1299653E+00
         -1   -1    0    0    0  501 -0.00000000000E+00  0.00000000000E+00  0.14105302992E+02  0.14105302992E+02  0.00000000000E+00 0.  1.
          1   -1    0    0  501    0  0.00000000000E+00 -0.00000000000E+00 -0.14785036226E+03  0.14785036226E+03  0.00000000000E+00 0. -1.
         23    2    1    2    0    0  0.00000000000E+00  0.00000000000E+00 -0.13374505927E+03  0.16195566525E+03  0.91333983976E+02 0.  0.
        -11    1    3    3    0    0 -0.12974539801E+02  0.28184980790E+02 -0.74564775990E+01  0.31911297112E+02  0.00000000000E+00 0.  1.
         11    1    3    3    0    0  0.12974539801E+02 -0.28184980790E+02 -0.12628858167E+03  0.13004436814E+03  0.00000000000E+00 0. -1.
<mgrwt>
<rscale>  0 0.91333984E+02</rscale>
<asrwt>0</asrwt>
<pdfrwt beam="2">  1        1 0.22746210E-01 0.91333984E+02</pdfrwt>
<pdfrwt beam="1">  1       -1 0.21700466E-02 0.91333984E+02</pdfrwt>
<totfact> 0.11131697E+05</totfact>
</mgrwt>
</event>
<event>
 5    1  0.1265228E+001  0.9409500E+02  0.7546771E-02  0.1293227E+00
         -2   -1    0    0    0  501 -0.00000000000E+00  0.00000000000E+00  0.17611069958E+02  0.17611069958E+02  0.00000000000E+00 0.  1.
          2   -1    0    0  501    0  0.00000000000E+00 -0.00000000000E+00 -0.12568613447E+03  0.12568613447E+03  0.00000000000E+00 0. -1.
         23    2    1    2    0    0  0.00000000000E+00  0.00000000000E+00 -0.10807506451E+03  0.14329720443E+03  0.94095001076E+02 0.  0.
        -11    1    3    3    0    0  0.33777429893E+02  0.32566498949E+02 -0.48767402462E+02  0.67673858814E+02  0.00000000000E+00 0.  1.
         11    1    3    3    0    0 -0.33777429893E+02 -0.32566498949E+02 -0.59307662051E+02  0.75623345614E+02  0.00000000000E+00 0. -1.
<mgrwt>
<rscale>  0 0.94095001E+02</rscale>
<asrwt>0</asrwt>
<pdfrwt beam="2">  1        2 0.19336329E-01 0.94095001E+02</pdfrwt>
<pdfrwt beam="1">  1       -2 0.27093954E-02 0.94095001E+02</pdfrwt>
<totfact> 0.12092677E+05</totfact>
</mgrwt>
</event>
<event>
 5    1  0.1265228E+001  0.9667498E+02  0.7546771E-02  0.1287448E+00
          4   -1    0    0  501    0  0.00000000000E+00  0.00000000000E+00  0.12525418932E+03  0.12525418932E+03  0.00000000000E+00 0. -1.
         -4   -1    0    0    0  501 -0.00000000000E+00 -0.00000000000E+00 -0.18654170583E+02  0.18654170583E+02  0.00000000000E+00 0.  1.
         23    2    1    2    0    0  0.00000000000E+00  0.00000000000E+00  0.10660001873E+03  0.14390835990E+03  0.96674981537E+02 0.  0.
        -13    1    3    3    0    0  0.46418851384E+02  0.10220462264E+02  0.40208516493E+02  0.62256665597E+02  0.00000000000E+00 0.  1.
         13    1    3    3    0    0 -0.46418851384E+02 -0.10220462264E+02  0.66391502242E+02  0.81651694304E+02  0.00000000000E+00 0. -1.
<mgrwt>
<rscale>  0 0.96674982E+02</rscale>
<asrwt>0</asrwt>
<pdfrwt beam="1">  1        4 0.19269875E-01 0.96674982E+02</pdfrwt>
<pdfrwt beam="2">  1       -4 0.28698725E-02 0.96674982E+02</pdfrwt>
<totfact> 0.20466439E+04</totfact>
</mgrwt>
</event>
<event>
 5    1  0.1265228E+001  0.9354295E+02  0.7546771E-02  0.1294492E+00
          1   -1    0    0  501    0  0.00000000000E+00  0.00000000000E+00  0.15469653409E+03  0.15469653409E+03  0.00000000000E+00 0. -1.
         -1   -1    0    0    0  501 -0.00000000000E+00 -0.00000000000E+00 -0.14141045442E+02  0.14141045442E+02  0.00000000000E+00 0.  1.
         23    2    1    2    0    0  0.00000000000E+00  0.00000000000E+00  0.14055548865E+03  0.16883757953E+03  0.93542946677E+02 0.  0.
        -13    1    3    3    0    0  0.43494155238E+02  0.14868890505E+02  0.54673241404E+02  0.71428207106E+02  0.00000000000E+00 0. -1.
         13    1    3    3    0    0 -0.43494155238E+02 -0.14868890505E+02  0.85882247245E+02  0.97409372426E+02  0.00000000000E+00 0.  1.
<mgrwt>
<rscale>  0 0.93542947E+02</rscale>
<asrwt>0</asrwt>
<pdfrwt beam="1">  1        1 0.23799466E-01 0.93542947E+02</pdfrwt>
<pdfrwt beam="2">  1       -1 0.21755456E-02 0.93542947E+02</pdfrwt>
<totfact> 0.10522925E+05</totfact>
</mgrwt>
</event>
<event>
 5    1  0.1265228E+001  0.9259318E+02  0.7546771E-02  0.1296691E+00
         -2   -1    0    0    0  501 -0.00000000000E+00  0.00000000000E+00  0.65299726038E+01  0.65299726038E+01  0.00000000000E+00 0.  1.
          2   -1    0    0  501    0  0.00000000000E+00 -0.00000000000E+00 -0.32823632726E+03  0.32823632726E+03  0.00000000000E+00 0. -1.
         23    2    1    2    0    0  0.00000000000E+00  0.00000000000E+00 -0.32170635466E+03  0.33476629987E+03  0.92593179546E+02 0.  0.
        -11    1    3    3    0    0  0.40085593648E+02 -0.15303968731E+02 -0.97991275367E+02  0.10697362444E+03  0.00000000000E+00 0.  1.
         11    1    3    3    0    0 -0.40085593648E+02  0.15303968731E+02 -0.22371507929E+03  0.22779267543E+03  0.00000000000E+00 0. -1.
<mgrwt>
<rscale>  0 0.92593180E+02</rscale>
<asrwt>0</asrwt>
<pdfrwt beam="2">  1        2 0.50497883E-01 0.92593180E+02</pdfrwt>
<pdfrwt beam="1">  1       -2 0.10046114E-02 0.92593180E+02</pdfrwt>
<totfact> 0.17827501E+05</totfact>
</mgrwt>
</event>
<event>
 5    1  0.1265228E+001  0.9272460E+02  0.7546771E-02  0.1296385E+00
         -4   -1    0    0    0  501 -0.00000000000E+00  0.00000000000E+00  0.11280988109E+03  0.11280988109E+03  0.00000000000E+00 0.  1.
          4   -1    0    0  501    0  0.00000000000E+00 -0.00000000000E+00 -0.19053850958E+02  0.19053850958E+02  0.00000000000E+00 0. -1.
         23    2    1    2    0    0  0.00000000000E+00  0.00000000000E+00  0.93756030127E+02  0.13186373204E+03  0.92724595676E+02 0.  0.
        -11    1    3    3    0    0 -0.40545096670E+02 -0.15112608321E+02  0.70553619257E+02  0.82765385183E+02  0.00000000000E+00 0.  1.
         11    1    3    3    0    0  0.40545096670E+02  0.15112608321E+02  0.23202410871E+02  0.49098346861E+02  0.00000000000E+00 0. -1.
<mgrwt>
<rscale>  0 0.92724596E+02</rscale>
<asrwt>0</asrwt>
<pdfrwt beam="2">  1        4 0.29313617E-02 0.92724596E+02</pdfrwt>
<pdfrwt beam="1">  1       -4 0.17355366E-01 0.92724596E+02</pdfrwt>
<totfact> 0.23521146E+04</totfact>
</mgrwt>
</event>
<event>
 5    1  0.1265228E+001  0.1013234E+03  0.7546771E-02  0.1277537E+00
          4   -1    0    0  501    0  0.00000000000E+00  0.00000000000E+00  0.31932601046E+02  0.31932601046E+02  0.00000000000E+00 0.  1.
         -4   -1    0    0    0  501 -0.00000000000E+00 -0.00000000000E+00 -0.80375801646E+02  0.80375801646E+02  0.00000000000E+00 0. -1.
         23    2    1    2    0    0  0.00000000000E+00  0.00000000000E+00 -0.48443200600E+02  0.11230840269E+03  0.10132341107E+03 0.  0.
        -13    1    3    3    0    0 -0.28107470582E+02  0.74019418117E+01 -0.70214681935E+02  0.75992895749E+02  0.00000000000E+00 0. -1.
         13    1    3    3    0    0  0.28107470582E+02 -0.74019418117E+01  0.21771481335E+02  0.36315506944E+02  0.00000000000E+00 0.  1.
<mgrwt>
<rscale>  0 0.10132341E+03</rscale>
<asrwt>0</asrwt>
<pdfrwt beam="1">  1        4 0.49127079E-02 0.10132341E+03</pdfrwt>
<pdfrwt beam="2">  1       -4 0.12365508E-01 0.10132341E+03</pdfrwt>
<totfact> 0.19284124E+04</totfact>
</mgrwt>
</event>
<event>
 5    1  0.1265228E+001  0.9145627E+02  0.7546771E-02  0.1299363E+00
         -3   -1    0    0    0  501 -0.00000000000E+00  0.00000000000E+00  0.15991796232E+03  0.15991796232E+03  0.00000000000E+00 0.  1.
          3   -1    0    0  501    0  0.00000000000E+00 -0.00000000000E+00 -0.13075843646E+02  0.13075843646E+02  0.00000000000E+00 0. -1.
         23    2    1    2    0    0  0.00000000000E+00  0.00000000000E+00  0.14684211868E+03  0.17299380597E+03  0.91456268707E+02 0.  0.
        -13    1    3    3    0    0  0.24425939801E+02 -0.26047963253E+02  0.19389685175E+02  0.40633518380E+02  0.00000000000E+00 0. -1.
         13    1    3    3    0    0 -0.24425939801E+02  0.26047963253E+02  0.12745243350E+03  0.13236028759E+03  0.00000000000E+00 0.  1.
<mgrwt>
<rscale>  0 0.91456269E+02</rscale>
<asrwt>0</asrwt>
<pdfrwt beam="2">  1        3 0.20116684E-02 0.91456269E+02</pdfrwt>
<pdfrwt beam="1">  1       -3 0.24602762E-01 0.91456269E+02</pdfrwt>
<totfact> 0.29709794E+04</totfact>
</mgrwt>
</event>
<event>
 5    1  0.1265228E+001  0.8991240E+02  0.7546771E-02  0.1303064E+00
          4   -1    0    0  501    0  0.00000000000E+00  0.00000000000E+00  0.13581344242E+03  0.13581344242E+03  0.00000000000E+00 0. -1.
         -4   -1    0    0    0  501 -0.00000000000E+00 -0.00000000000E+00 -0.14881148632E+02  0.14881148632E+02  0.00000000000E+00 0.  1.
         23    2    1    2    0    0  0.00000000000E+00  0.00000000000E+00  0.12093229378E+03  0.15069459105E+03  0.89912402323E+02 0.  0.
        -13    1    3    3    0    0 -0.16820709264E+02  0.40939557338E+02  0.73671236457E+02  0.85944369777E+02  0.00000000000E+00 0.  1.
         13    1    3    3    0    0  0.16820709264E+02 -0.40939557338E+02  0.47261057325E+02  0.64750221271E+02  0.00000000000E+00 0. -1.
<mgrwt>
<rscale>  0 0.89912402E+02</rscale>
<asrwt>0</asrwt>
<pdfrwt beam="1">  1        4 0.20894375E-01 0.89912402E+02</pdfrwt>
<pdfrwt beam="2">  1       -4 0.22894076E-02 0.89912402E+02</pdfrwt>
<totfact> 0.24541067E+04</totfact>
</mgrwt>
</event>
<event>
 5    1  0.1265228E+001  0.9297412E+02  0.7546771E-02  0.1295805E+00
          1   -1    0    0  501    0  0.00000000000E+00  0.00000000000E+00  0.36817303651E+03  0.36817303651E+03  0.00000000000E+00 0. -1.
         -1   -1    0    0    0  501 -0.00000000000E+00 -0.00000000000E+00 -0.58696491957E+01  0.58696491957E+01  0.00000000000E+00 0.  1.
         23    2    1    2    0    0  0.00000000000E+00  0.00000000000E+00  0.36230338731E+03  0.37404268571E+03  0.92974116132E+02 0.  0.
        -11    1    3    3    0    0  0.44744833197E+02 -0.11420700582E+02  0.20263438551E+03  0.20782980222E+03  0.00000000000E+00 0.  1.
         11    1    3    3    0    0 -0.44744833197E+02  0.11420700582E+02  0.15966900180E+03  0.16621288349E+03  0.00000000000E+00 0. -1.
<mgrwt>
<rscale>  0 0.92974116E+02</rscale>
<asrwt>0</asrwt>
<pdfrwt beam="1">  1        1 0.56641988E-01 0.92974116E+02</pdfrwt>
<pdfrwt beam="2">  1       -1 0.90302324E-03 0.92974116E+02</pdfrwt>
<totfact> 0.12627723E+05</totfact>
</mgrwt>
</event>
<event>
 5    1  0.1265228E+001  0.9175606E+02  0.7546771E-02  0.1298654E+00
         -1   -1    0    0    0  501 -0.00000000000E+00  0.00000000000E+00  0.15163990174E+02  0.15163990174E+02  0.00000000000E+00 0.  1.
          1   -1    0    0  501    0  0.00000000000E+00 -0.00000000000E+00 -0.13880210147E+03  0.13880210147E+03  0.00000000000E+00 0. -1.
         23    2    1    2    0    0  0.00000000000E+00  0.00000000000E+00 -0.12363811130E+03  0.15396609165E+03  0.91756061444E+02 0.  0.
        -13    1    3    3    0    0 -0.38187269685E+02 -0.25425208062E+02 -0.61330036355E+02  0.76590352723E+02  0.00000000000E+00 0.  1.
         13    1    3    3    0    0  0.38187269685E+02  0.25425208062E+02 -0.62308074945E+02  0.77375738926E+02  0.00000000000E+00 0. -1.
<mgrwt>
<rscale>  0 0.91756061E+02</rscale>
<asrwt>0</asrwt>
<pdfrwt beam="2">  1        1 0.21354170E-01 0.91756061E+02</pdfrwt>
<pdfrwt beam="1">  1       -1 0.23329215E-02 0.91756061E+02</pdfrwt>
<totfact> 0.10867971E+05</totfact>
</mgrwt>
</event>
<event>
 5    1  0.1265228E+001  0.1043711E+03  0.7546771E-02  0.1271364E+00
          1   -1    0    0  501    0  0.00000000000E+00  0.00000000000E+00  0.39752122000E+03  0.39752122000E+03  0.00000000000E+00 0. -1.
         -1   -1    0    0    0  501 -0.00000000000E+00 -0.00000000000E+00 -0.68507824856E+01  0.68507824856E+01  0.00000000000E+00 0.  1.
         23    2    1    2    0    0  0.00000000000E+00  0.00000000000E+00  0.39067043752E+03  0.40437200249E+03  0.10437109584E+03 0.  0.
        -13    1    3    3    0    0 -0.50453533356E+02 -0.12630136092E+02  0.17878298500E+03  0.18619461617E+03  0.00000000000E+00 0.  1.
         13    1    3    3    0    0  0.50453533356E+02  0.12630136092E+02  0.21188745252E+03  0.21817738632E+03  0.00000000000E+00 0. -1.
<mgrwt>
<rscale>  0 0.10437110E+03</rscale>
<asrwt>0</asrwt>
<pdfrwt beam="1">  1        1 0.61157093E-01 0.10437110E+03</pdfrwt>
<pdfrwt beam="2">  1       -1 0.10539668E-02 0.10437110E+03</pdfrwt>
<totfact> 0.93880794E+04</totfact>
</mgrwt>
</event>
<event>
 5    1  0.1265228E+001  0.9100185E+02  0.7546771E-02  0.1300444E+00
          1   -1    0    0  501    0  0.00000000000E+00  0.00000000000E+00  0.16832743699E+02  0.16832743699E+02  0.00000000000E+00 0. -1.
         -1   -1    0    0    0  501 -0.00000000000E+00 -0.00000000000E+00 -0.12299446639E+03  0.12299446639E+03  0.00000000000E+00 0.  1.
         23    2    1    2    0    0  0.00000000000E+00  0.00000000000E+00 -0.10616172269E+03  0.13982721009E+03  0.91001853370E+02 0.  0.
        -11    1    3    3    0    0 -0.31605853554E+02  0.79763951529E+01 -0.43027883139E+01  0.32879580986E+02  0.00000000000E+00 0. -1.
         11    1    3    3    0    0  0.31605853554E+02 -0.79763951529E+01 -0.10185893438E+03  0.10694762911E+03  0.00000000000E+00 0.  1.
<mgrwt>
<rscale>  0 0.91001853E+02</rscale>
<asrwt>0</asrwt>
<pdfrwt beam="1">  1        1 0.25896529E-02 0.91001853E+02</pdfrwt>
<pdfrwt beam="2">  1       -1 0.18922226E-01 0.91001853E+02</pdfrwt>
<totfact> 0.78522314E+04</totfact>
</mgrwt>
</event>
<event>
 5    1  0.1265228E+001  0.9187392E+02  0.7546771E-02  0.1298376E+00
         -3   -1    0    0    0  501 -0.00000000000E+00  0.00000000000E+00  0.40883020933E+02  0.40883020933E+02  0.00000000000E+00 0.  1.
          3   -1    0    0  501    0  0.00000000000E+00 -0.00000000000E+00 -0.51615659170E+02  0.51615659170E+02  0.00000000000E+00 0. -1.
         23    2    1    2    0    0  0.00000000000E+00  0.00000000000E+00 -0.10732638238E+02  0.92498680103E+02  0.91873915217E+02 0.  0.
        -11    1    3    3    0    0  0.39881001224E+02  0.22513872826E+02 -0.89733271003E+01  0.46667861827E+02  0.00000000000E+00 0. -1.
         11    1    3    3    0    0 -0.39881001224E+02 -0.22513872826E+02 -0.17593111372E+01  0.45830818277E+02  0.00000000000E+00 0.  1.
<mgrwt>
<rscale>  0 0.91873915E+02</rscale>
<asrwt>0</asrwt>
<pdfrwt beam="2">  1        3 0.79408706E-02 0.91873915E+02</pdfrwt>
<pdfrwt beam="1">  1       -3 0.62896955E-02 0.91873915E+02</pdfrwt>
<totfact> 0.34512286E+04</totfact>
</mgrwt>
</event>
<event>
 5    1  0.1265228E+001  0.9336344E+02  0.7546771E-02  0.1294905E+00
          2   -1    0    0  501    0  0.00000000000E+00  0.00000000000E+00  0.83042346198E+02  0.83042346198E+02  0.00000000000E+00 0. -1.
         -2   -1    0    0    0  501 -0.00000000000E+00 -0.00000000000E+00 -0.26241829741E+02  0.26241829741E+02  0.00000000000E+00 0.  1.
         23    2    1    2    0    0  0.00000000000E+00  0.00000000000E+00  0.56800516457E+02  0.10928417594E+03  0.93363442742E+02 0.  0.
        -11    1    3    3    0    0  0.86730853325E+01 -0.45595680953E+02  0.22548271391E+02  0.51600514275E+02  0.00000000000E+00 0.  1.
         11    1    3    3    0    0 -0.86730853325E+01  0.45595680953E+02  0.34252245066E+02  0.57683661663E+02  0.00000000000E+00 0. -1.
<mgrwt>
<rscale>  0 0.93363443E+02</rscale>
<asrwt>0</asrwt>
<pdfrwt beam="1">  1        2 0.12775745E-01 0.93363443E+02</pdfrwt>
<pdfrwt beam="2">  1       -2 0.40372046E-02 0.93363443E+02</pdfrwt>
<totfact> 0.10868668E+05</totfact>
</mgrwt>
</event>
<event>
 5    1  0.1265228E+001  0.9195073E+02  0.7546771E-02  0.1298195E+00
         -1   -1    0    0    0  501 -0.00000000000E+00  0.00000000000E+00  0.11592960997E+03  0.11592960997E+03  0.00000000000E+00 0.  1.
          1   -1    0    0  501    0  0.00000000000E+00 -0.00000000000E+00 -0.18232909263E+02  0.18232909263E+02  0.00000000000E+00 0. -1.
         23    2    1    2    0    0  0.00000000000E+00  0.00000000000E+00  0.97696700711E+02  0.13416251924E+03  0.91950727231E+02 0.  0.
        -13    1    3    3    0    0  0.44646886111E+02 -0.87613286560E+01  0.58485805579E+02  0.74099222489E+02  0.00000000000E+00 0.  1.
         13    1    3    3    0    0 -0.44646886111E+02  0.87613286560E+01  0.39210895132E+02  0.60063296748E+02  0.00000000000E+00 0. -1.
<mgrwt>
<rscale>  0 0.91950727E+02</rscale>
<asrwt>0</asrwt>
<pdfrwt beam="2">  1        1 0.28050630E-02 0.91950727E+02</pdfrwt>
<pdfrwt beam="1">  1       -1 0.17835324E-01 0.91950727E+02</pdfrwt>
<totfact> 0.77371621E+04</totfact>
</mgrwt>
</event>
<event>
 5    1  0.1265228E+001  0.1011695E+03  0.7546771E-02  0.1277856E+00
          2   -1    0    0  501    0  0.00000000000E+00  0.00000000000E+00  0.49721662914E+02  0.49721662914E+02  0.00000000000E+00 0. -1.
         -2   -1    0    0    0  501 -0.00000000000E+00 -0.00000000000E+00 -0.51462842402E+02  0.51462842402E+02  0.00000000000E+00 0.  1.
         23    2    1    2    0    0  0.00000000000E+00  0.00000000000E+00 -0.17411794872E+01  0.10118450532E+03  0.10116952313E+03 0.  0.
        -13    1    3    3    0    0 -0.52797612749E+01  0.42380619565E+02 -0.27982265553E+02  0.51058789443E+02  0.00000000000E+00 0. -1.
         13    1    3    3    0    0  0.52797612749E+01 -0.42380619565E+02  0.26241086066E+02  0.50125715873E+02  0.00000000000E+00 0.  1.
<mgrwt>
<rscale>  0 0.10116952E+03</rscale>
<asrwt>0</asrwt>
<pdfrwt beam="1">  1        2 0.76494867E-02 0.10116952E+03</pdfrwt>
<pdfrwt beam="2">  1       -2 0.79173603E-02 0.10116952E+03</pdfrwt>
<totfact> 0.74766263E+04</totfact>
</mgrwt>
</event>
<event>
 5    1  0.1265228E+001  0.9912648E+02  0.7546771E-02  0.1282144E+00
         -2   -1    0    0    0  501 -0.00000000000E+00  0.00000000000E+00  0.30865152710E+03  0.30865152710E+03  0.00000000000E+00 0.  1.
          2   -1    0    0  501    0  0.00000000000E+00 -0.00000000000E+00 -0.79588610999E+01  0.79588610999E+01  0.00000000000E+00 0. -1.
         23    2    1    2    0    0  0.00000000000E+00  0.00000000000E+00  0.30069266600E+03  0.31661038820E+03  0.99126477441E+02 0.  0.
        -13    1    3    3    0    0 -0.30192375958E+02 -0.37248153413E+02  0.19043205747E+03  0.19637559169E+03  0.00000000000E+00 0.  1.
         13    1    3    3    0    0  0.30192375958E+02  0.37248153413E+02  0.11026060853E+03  0.12023479651E+03  0.00000000000E+00 0. -1.
<mgrwt>
<rscale>  0 0.99126477E+02</rscale>
<asrwt>0</asrwt>
<pdfrwt beam="2">  1        2 0.12244404E-02 0.99126477E+02</pdfrwt>
<pdfrwt beam="1">  1       -2 0.47484841E-01 0.99126477E+02</pdfrwt>
<totfact> 0.40440456E+04</totfact>
</mgrwt>
</event>
<event>
 5    1  0.1265228E+001  0.8965689E+02  0.7546771E-02  0.1303685E+00
         -3   -1    0    0    0  501 -0.00000000000E+00  0.00000000000E+00  0.73539324325E+02  0.73539324325E+02  0.00000000000E+00 0.  1.
          3   -1    0    0  501    0  0.00000000000E+00 -0.00000000000E+00 -0.27326730760E+02  0.27326730760E+02  0.00000000000E+00 0. -1.
         23    2    1    2    0    0  0.00000000000E+00  0.00000000000E+00  0.46212593564E+02  0.10086605508E+03  0.89656886319E+02 0.  0.
        -13    1    3    3    0    0  0.37521388981E+02 -0.13316744304E+02 -0.70241162597E-01  0.39814510467E+02  0.00000000000E+00 0. -1.
         13    1    3    3    0    0 -0.37521388981E+02  0.13316744304E+02  0.46282834727E+02  0.61051544618E+02  0.00000000000E+00 0.  1.
<mgrwt>
<rscale>  0 0.89656886E+02</rscale>
<asrwt>0</asrwt>
<pdfrwt beam="2">  1        3 0.42041124E-02 0.89656886E+02</pdfrwt>
<pdfrwt beam="1">  1       -3 0.11313742E-01 0.89656886E+02</pdfrwt>
<totfact> 0.36224762E+04</totfact>
</mgrwt>
</event>
<event>
 5    1  0.1265228E+001  0.8941734E+02  0.7546771E-02  0.1304269E+00
         -1   -1    0    0    0  501 -0.00000000000E+00  0.00000000000E+00  0.20508144665E+02  0.20508144665E+02  0.00000000000E+00 0.  1.
          1   -1    0    0  501    0  0.00000000000E+00 -0.00000000000E+00 -0.97466897333E+02  0.97466897333E+02  0.00000000000E+00 0. -1.
         23    2    1    2    0    0  0.00000000000E+00  0.00000000000E+00 -0.76958752668E+02  0.11797504200E+03  0.89417341284E+02 0.  0.
        -13    1    3    3    0    0  0.30438367901E+02  0.63590502957E+01 -0.80862624525E+02  0.86635418889E+02  0.00000000000E+00 0. -1.
         13    1    3    3    0    0 -0.30438367901E+02 -0.63590502957E+01  0.39038718560E+01  0.31339623109E+02  0.00000000000E+00 0.  1.
<mgrwt>
<rscale>  0 0.89417341E+02</rscale>
<asrwt>0</asrwt>
<pdfrwt beam="2">  1        1 0.14994907E-01 0.89417341E+02</pdfrwt>
<pdfrwt beam="1">  1       -1 0.31550992E-02 0.89417341E+02</pdfrwt>
<totfact> 0.10967523E+05</totfact>
</mgrwt>
</event>
<event>
 5    1  0.1265228E+001  0.9152879E+02  0.7546771E-02  0.1299191E+00
          1   -1    0    0  501    0  0.00000000000E+00  0.00000000000E+00  0.56335427750E+02  0.56335427750E+02  0.00000000000E+00 0. -1.
         -1   -1    0    0    0  501 -0.00000000000E+00 -0.00000000000E+00 -0.37176956420E+02  0.37176956420E+02  0.00000000000E+00 0.  1.
         23    2    1    2    0    0  0.00000000000E+00  0.00000000000E+00  0.19158471330E+02  0.93512384170E+02  0.91528787655E+02 0.  0.
        -11    1    3    3    0    0  0.26667114610E+02  0.34770626700E+02 -0.39071521607E+01  0.43993150839E+02  0.00000000000E+00 0. -1.
         11    1    3    3    0    0 -0.26667114610E+02 -0.34770626700E+02  0.23065623490E+02  0.49519233331E+02  0.00000000000E+00 0.  1.
<mgrwt>
<rscale>  0 0.91528788E+02</rscale>
<asrwt>0</asrwt>
<pdfrwt beam="1">  1        1 0.86669889E-02 0.91528788E+02</pdfrwt>
<pdfrwt beam="2">  1       -1 0.57195317E-02 0.91528788E+02</pdfrwt>
<totfact> 0.94440490E+04</totfact>
</mgrwt>
</event>
<event>
 5    1  0.1265228E+001  0.9074790E+02  0.7546771E-02  0.1301051E+00
          3   -1    0    0  501    0  0.00000000000E+00  0.00000000000E+00  0.41068047859E+03  0.41068047859E+03  0.00000000000E+00 0. -1.
         -3   -1    0    0    0  501 -0.00000000000E+00 -0.00000000000E+00 -0.50131313479E+01  0.50131313479E+01  0.00000000000E+00 0.  1.
         23    2    1    2    0    0  0.00000000000E+00  0.00000000000E+00  0.40566734724E+03  0.41569360993E+03  0.90747896531E+02 0.  0.
        -11    1    3    3    0    0 -0.43450510833E+02 -0.52340810115E+01  0.14796921188E+03  0.15430563879E+03  0.00000000000E+00 0.  1.
         11    1    3    3    0    0  0.43450510833E+02  0.52340810115E+01  0.25769813536E+03  0.26138797115E+03  0.00000000000E+00 0. -1.
<mgrwt>
<rscale>  0 0.90747897E+02</rscale>
<asrwt>0</asrwt>
<pdfrwt beam="1">  1        3 0.63181586E-01 0.90747897E+02</pdfrwt>
<pdfrwt beam="2">  1       -3 0.77125130E-03 0.90747897E+02</pdfrwt>
<totfact> 0.20405023E+04</totfact>
</mgrwt>
</event>
<event>
 5    1  0.1265228E+001  0.9987612E+02  0.7546771E-02  0.1280557E+00
          1   -1    0    0  501    0  0.00000000000E+00  0.00000000000E+00  0.17258697606E+02  0.17258697606E+02  0.00000000000E+00 0. -1.
         -1   -1    0    0    0  501 -0.00000000000E+00 -0.00000000000E+00 -0.14449584043E+03  0.14449584043E+03  0.00000000000E+00 0.  1.
         23    2    1    2    0    0  0.00000000000E+00  0.00000000000E+00 -0.12723714282E+03  0.16175453804E+03  0.99876123578E+02 0.  0.
        -13    1    3    3    0    0  0.39423623253E+02 -0.30121573394E+02 -0.72819956879E+02  0.88115137031E+02  0.00000000000E+00 0. -1.
         13    1    3    3    0    0 -0.39423623253E+02  0.30121573394E+02 -0.54417185944E+02  0.73639401004E+02  0.00000000000E+00 0.  1.
<mgrwt>
<rscale>  0 0.99876124E+02</rscale>
<asrwt>0</asrwt>
<pdfrwt beam="1">  1        1 0.26551843E-02 0.99876124E+02</pdfrwt>
<pdfrwt beam="2">  1       -1 0.22230129E-01 0.99876124E+02</pdfrwt>
<totfact> 0.59519101E+04</totfact>
</mgrwt>
</event>
<event>
 5    1  0.1265228E+001  0.8539966E+02  0.7546771E-02  0.1314391E+00
         -2   -1    0    0    0  501 -0.00000000000E+00  0.00000000000E+00  0.15056132229E+02  0.15056132229E+02  0.00000000000E+00 0.  1.
          2   -1    0    0  501    0  0.00000000000E+00 -0.00000000000E+00 -0.12109851821E+03  0.12109851821E+03  0.00000000000E+00 0. -1.
         23    2    1    2    0    0  0.00000000000E+00  0.00000000000E+00 -0.10604238598E+03  0.13615465044E+03  0.85399655808E+02 0.  0.
        -11    1    3    3    0    0 -0.38219641909E+02 -0.94663017302E+01 -0.79360039485E+02  0.88591014009E+02  0.00000000000E+00 0. -1.
         11    1    3    3    0    0  0.38219641909E+02  0.94663017302E+01 -0.26682346500E+02  0.47563636435E+02  0.00000000000E+00 0.  1.
<mgrwt>
<rscale>  0 0.85399656E+02</rscale>
<asrwt>0</asrwt>
<pdfrwt beam="2">  1        2 0.18630542E-01 0.85399656E+02</pdfrwt>
<pdfrwt beam="1">  1       -2 0.23163279E-02 0.85399656E+02</pdfrwt>
<totfact> 0.15561604E+05</totfact>
</mgrwt>
</event>
<event>
 5    1  0.1265228E+001  0.8926684E+02  0.7546771E-02  0.1304637E+00
         -3   -1    0    0    0  501 -0.00000000000E+00  0.00000000000E+00  0.10955481379E+03  0.10955481379E+03  0.00000000000E+00 0.  1.
          3   -1    0    0  501    0  0.00000000000E+00 -0.00000000000E+00 -0.18183978214E+02  0.18183978214E+02  0.00000000000E+00 0. -1.
         23    2    1    2    0    0  0.00000000000E+00  0.00000000000E+00  0.91370835581E+02  0.12773879201E+03  0.89266843727E+02 0.  0.
        -11    1    3    3    0    0 -0.30732030527E+02  0.11604844354E+02  0.88923948130E+02  0.94797672249E+02  0.00000000000E+00 0.  1.
         11    1    3    3    0    0  0.30732030527E+02 -0.11604844354E+02  0.24468874509E+01  0.32941119759E+02  0.00000000000E+00 0. -1.
<mgrwt>
<rscale>  0 0.89266844E+02</rscale>
<asrwt>0</asrwt>
<pdfrwt beam="2">  1        3 0.27975352E-02 0.89266844E+02</pdfrwt>
<pdfrwt beam="1">  1       -3 0.16854586E-01 0.89266844E+02</pdfrwt>
<totfact> 0.34656658E+04</totfact>
</mgrwt>
</event>
<event>
 5    1  0.1265228E+001  0.9046707E+02  0.7546771E-02  0.1301725E+00
         -1   -1    0    0    0  501 -0.00000000000E+00  0.00000000000E+00  0.30169743654E+03  0.30169743654E+03  0.00000000000E+00 0.  1.
          1   -1    0    0  501    0  0.00000000000E+00 -0.00000000000E+00 -0.67818698438E+01  0.67818698438E+01  0.00000000000E+00 0. -1.
         23    2    1    2    0    0  0.00000000000E+00  0.00000000000E+00  0.29491556669E+03  0.30847930638E+03  0.90467071287E+02 0.  0.
        -11    1    3    3    0    0  0.13707511584E+01 -0.44894673680E+02  0.16571309408E+03  0.17169228355E+03  0.00000000000E+00 0.  1.
         11    1    3    3    0    0 -0.13707511584E+01  0.44894673680E+02  0.12920247262E+03  0.13678702283E+03  0.00000000000E+00 0. -1.
<mgrwt>
<rscale>  0 0.90467071E+02</rscale>
<asrwt>0</asrwt>
<pdfrwt beam="2">  1        1 0.10433648E-02 0.90467071E+02</pdfrwt>
<pdfrwt beam="1">  1       -1 0.46414980E-01 0.90467071E+02</pdfrwt>
<totfact> 0.61699039E+04</totfact>
</mgrwt>
</event>
<event>
 5    1  0.1265228E+001  0.9289445E+02  0.7546771E-02  0.1295990E+00
         -1   -1    0    0    0  501 -0.00000000000E+00  0.00000000000E+00  0.28118383305E+02  0.28118383305E+02  0.00000000000E+00 0.  1.
          1   -1    0    0  501    0  0.00000000000E+00 -0.00000000000E+00 -0.76723644052E+02  0.76723644052E+02  0.00000000000E+00 0. -1.
         23    2    1    2    0    0  0.00000000000E+00  0.00000000000E+00 -0.48605260747E+02  0.10484202736E+03  0.92894452623E+02 0.  0.
        -13    1    3    3    0    0  0.58886047815E+01  0.23197055689E+02 -0.69228942064E+02  0.73249064692E+02  0.00000000000E+00 0. -1.
         13    1    3    3    0    0 -0.58886047815E+01 -0.23197055689E+02  0.20623681317E+02  0.31592962666E+02  0.00000000000E+00 0.  1.
<mgrwt>
<rscale>  0 0.92894453E+02</rscale>
<asrwt>0</asrwt>
<pdfrwt beam="2">  1        1 0.11803637E-01 0.92894453E+02</pdfrwt>
<pdfrwt beam="1">  1       -1 0.43259051E-02 0.92894453E+02</pdfrwt>
<totfact> 0.95068084E+04</totfact>
</mgrwt>
</event>
<event>
 5    1  0.1265228E+001  0.8885444E+02  0.7546771E-02  0.1305650E+00
          1   -1    0    0  501    0  0.00000000000E+00  0.00000000000E+00  0.65239470548E+02  0.65239470548E+02  0.00000000000E+00 0.  1.
         -1   -1    0    0    0  501 -0.00000000000E+00 -0.00000000000E+00 -0.30254348978E+02  0.30254348978E+02  0.00000000000E+00 0. -1.
         23    2    1    2    0    0  0.00000000000E+00  0.00000000000E+00  0.34985121569E+02  0.95493819526E+02  0.88854436223E+02 0.  0.
        -11    1    3    3    0    0  0.22444047642E+02 -0.16282384684E+02  0.54798364923E+02  0.61414266452E+02  0.00000000000E+00 0.  1.
         11    1    3    3    0    0 -0.22444047642E+02  0.16282384684E+02 -0.19813243354E+02  0.34079553074E+02  0.00000000000E+00 0. -1.
<mgrwt>
<rscale>  0 0.88854436E+02</rscale>
<asrwt>0</asrwt>
<pdfrwt beam="1">  1        1 0.10036842E-01 0.88854436E+02</pdfrwt>
<pdfrwt beam="2">  1       -1 0.46545152E-02 0.88854436E+02</pdfrwt>
<totfact> 0.10480297E+05</totfact>
</mgrwt>
</event>
<event>
 5    1  0.1265228E+001  0.9092614E+02  0.7546771E-02  0.1300624E+00
          2   -1    0    0  501    0  0.00000000000E+00  0.00000000000E+00  0.14362292624E+02  0.14362292624E+02  0.00000000000E+00 0. -1.
         -2   -1    0    0    0  501 -0.00000000000E+00 -0.00000000000E+00 -0.14391093467E+03  0.14391093467E+03  0.00000000000E+00 0.  1.
         23    2    1    2    0    0  0.00000000000E+00  0.00000000000E+00 -0.12954864205E+03  0.15827322730E+03  0.90926144879E+02 0.  0.
        -11    1    3    3    0    0 -0.29761227321E+02 -0.38023581629E+01 -0.12423073627E+03  0.12780244291E+03  0.00000000000E+00 0.  1.
         11    1    3    3    0    0  0.29761227321E+02  0.38023581629E+01 -0.53179057761E+01  0.30470784386E+02  0.00000000000E+00 0. -1.
<mgrwt>
<rscale>  0 0.90926145E+02</rscale>
<asrwt>0</asrwt>
<pdfrwt beam="1">  1        2 0.22095835E-02 0.90926145E+02</pdfrwt>
<pdfrwt beam="2">  1       -2 0.22140144E-01 0.90926145E+02</pdfrwt>
<totfact> 0.71401651E+04</totfact>
</mgrwt>
</event>
<event>
 5    1  0.1265228E+001  0.9391979E+02  0.7546771E-02  0.1293628E+00
          2   -1    0    0  501    0  0.00000000000E+00  0.00000000000E+00  0.26762991761E+02  0.26762991761E+02  0.00000000000E+00 0. -1.
         -2   -1    0    0    0  501 -0.00000000000E+00 -0.00000000000E+00 -0.82398555162E+02  0.82398555162E+02  0.00000000000E+00 0.  1.
         23    2    1    2    0    0  0.00000000000E+00  0.00000000000E+00 -0.55635563401E+02  0.10916154692E+03  0.93919792439E+02 0.  0.
        -11    1    3    3    0    0  0.20394445463E+02 -0.41713416497E+02 -0.19657803084E+02  0.50421937127E+02  0.00000000000E+00 0.  1.
         11    1    3    3    0    0 -0.20394445463E+02  0.41713416497E+02 -0.35977760317E+02  0.58739609796E+02  0.00000000000E+00 0. -1.
<mgrwt>
<rscale>  0 0.93919792E+02</rscale>
<asrwt>0</asrwt>
<pdfrwt beam="1">  1        2 0.41173833E-02 0.93919792E+02</pdfrwt>
<pdfrwt beam="2">  1       -2 0.12676701E-01 0.93919792E+02</pdfrwt>
<totfact> 0.78445325E+04</totfact>
</mgrwt>
</event>
<event>
 5    1  0.1265228E+001  0.9280326E+02  0.7546771E-02  0.1296202E+00
          1   -1    0    0  501    0  0.00000000000E+00  0.00000000000E+00  0.11619245284E+03  0.11619245284E+03  0.00000000000E+00 0. -1.
         -1   -1    0    0    0  501 -0.00000000000E+00 -0.00000000000E+00 -0.18530560679E+02  0.18530560679E+02  0.00000000000E+00 0.  1.
         23    2    1    2    0    0  0.00000000000E+00  0.00000000000E+00  0.97661892160E+02  0.13472301352E+03  0.92803260669E+02 0.  0.
        -11    1    3    3    0    0  0.34297072681E+02  0.12338881279E+02  0.71446411510E+01  0.37142739302E+02  0.00000000000E+00 0.  1.
         11    1    3    3    0    0 -0.34297072681E+02 -0.12338881279E+02  0.90517251009E+02  0.97580274215E+02  0.00000000000E+00 0. -1.
<mgrwt>
<rscale>  0 0.92803261E+02</rscale>
<asrwt>0</asrwt>
<pdfrwt beam="1">  1        1 0.17875762E-01 0.92803261E+02</pdfrwt>
<pdfrwt beam="2">  1       -1 0.28508555E-02 0.92803261E+02</pdfrwt>
<totfact> 0.10210913E+05</totfact>
</mgrwt>
</event>
<event>
 5    1  0.1265228E+001  0.9089442E+02  0.7546771E-02  0.1300700E+00
         -2   -1    0    0    0  501 -0.00000000000E+00  0.00000000000E+00  0.12146596189E+02  0.12146596189E+02  0.00000000000E+00 0.  1.
          2   -1    0    0  501    0  0.00000000000E+00 -0.00000000000E+00 -0.17004342582E+03  0.17004342582E+03  0.00000000000E+00 0. -1.
         23    2    1    2    0    0  0.00000000000E+00  0.00000000000E+00 -0.15789682963E+03  0.18219002201E+03  0.90894418486E+02 0.  0.
        -11    1    3    3    0    0 -0.37220673458E+02  0.48901739476E+01 -0.27604250628E+02  0.46597070580E+02  0.00000000000E+00 0.  1.
         11    1    3    3    0    0  0.37220673458E+02 -0.48901739476E+01 -0.13029257900E+03  0.13559295143E+03  0.00000000000E+00 0. -1.
<mgrwt>
<rscale>  0 0.90894418E+02</rscale>
<asrwt>0</asrwt>
<pdfrwt beam="2">  1        2 0.26160526E-01 0.90894418E+02</pdfrwt>
<pdfrwt beam="1">  1       -2 0.18687072E-02 0.90894418E+02</pdfrwt>
<totfact> 0.14722110E+05</totfact>
</mgrwt>
</event>
<event>
 5    1  0.1265228E+001  0.9228922E+02  0.7546771E-02  0.1297401E+00
          2   -1    0    0  501    0  0.00000000000E+00  0.00000000000E+00  0.48200211071E+03  0.48200211071E+03  0.00000000000E+00 0. -1.
         -2   -1    0    0    0  501 -0.00000000000E+00 -0.00000000000E+00 -0.44176675284E+01  0.44176675284E+01  0.00000000000E+00 0.  1.
         23    2    1    2    0    0  0.00000000000E+00  0.00000000000E+00  0.47758444318E+03  0.48641977824E+03  0.92289220889E+02 0.  0.
        -13    1    3    3    0    0  0.30713192621E+02  0.34436478948E+02  0.23672529994E+03  0.24118051106E+03  0.00000000000E+00 0.  1.
         13    1    3    3    0    0 -0.30713192621E+02 -0.34436478948E+02  0.24085914324E+03  0.24523926717E+03  0.00000000000E+00 0. -1.
<mgrwt>
<rscale>  0 0.92289221E+02</rscale>
<asrwt>0</asrwt>
<pdfrwt beam="1">  1        2 0.74154129E-01 0.92289221E+02</pdfrwt>
<pdfrwt beam="2">  1       -2 0.67964154E-03 0.92289221E+02</pdfrwt>
<totfact> 0.20618302E+05</totfact>
</mgrwt>
</event>
<event>
 5    1  0.1265228E+001  0.9106249E+02  0.7546771E-02  0.1300299E+00
          2   -1    0    0  501    0  0.00000000000E+00  0.00000000000E+00  0.25160680604E+02  0.25160680604E+02  0.00000000000E+00 0. -1.
         -2   -1    0    0    0  501 -0.00000000000E+00 -0.00000000000E+00 -0.82394208323E+02  0.82394208323E+02  0.00000000000E+00 0.  1.
         23    2    1    2    0    0  0.00000000000E+00  0.00000000000E+00 -0.57233527719E+02  0.10755488893E+03  0.91062491933E+02 0.  0.
        -11    1    3    3    0    0 -0.92703630715E+00 -0.30453427995E+02 -0.68579933691E+02  0.75043174093E+02  0.00000000000E+00 0.  1.
         11    1    3    3    0    0  0.92703630715E+00  0.30453427995E+02  0.11346405972E+02  0.32511714834E+02  0.00000000000E+00 0. -1.
<mgrwt>
<rscale>  0 0.91062492E+02</rscale>
<asrwt>0</asrwt>
<pdfrwt beam="1">  1        2 0.38708740E-02 0.91062492E+02</pdfrwt>
<pdfrwt beam="2">  1       -2 0.12676032E-01 0.91062492E+02</pdfrwt>
<totfact> 0.84647102E+04</totfact>
</mgrwt>
</event>
<event>
 5    1  0.1265228E+001  0.9090343E+02  0.7546771E-02  0.1300679E+00
          1   -1    0    0  501    0  0.00000000000E+00  0.00000000000E+00  0.16750324556E+03  0.16750324556E+03  0.00000000000E+00 0. -1.
         -1   -1    0    0    0  501 -0.00000000000E+00 -0.00000000000E+00 -0.12333242695E+02  0.12333242695E+02  0.00000000000E+00 0.  1.
         23    2    1    2    0    0  0.00000000000E+00  0.00000000000E+00  0.15517000286E+03  0.17983648825E+03  0.90903425229E+02 0.  0.
        -13    1    3    3    0    0 -0.33304366324E+02  0.16091818706E+02  0.12984164268E+03  0.13500733172E+03  0.00000000000E+00 0. -1.
         13    1    3    3    0    0  0.33304366324E+02 -0.16091818706E+02  0.25328360184E+02  0.44829156529E+02  0.00000000000E+00 0.  1.
<mgrwt>
<rscale>  0 0.90903425E+02</rscale>
<asrwt>0</asrwt>
<pdfrwt beam="1">  1        1 0.25769728E-01 0.90903425E+02</pdfrwt>
<pdfrwt beam="2">  1       -1 0.18974221E-02 0.90903425E+02</pdfrwt>
<totfact> 0.11538529E+05</totfact>
</mgrwt>
</event>
<event>
 5    1  0.1265228E+001  0.9235763E+02  0.7546771E-02  0.1297241E+00
          1   -1    0    0  501    0  0.00000000000E+00  0.00000000000E+00  0.17047148828E+03  0.17047148828E+03  0.00000000000E+00 0. -1.
         -1   -1    0    0    0  501 -0.00000000000E+00 -0.00000000000E+00 -0.12509322162E+02  0.12509322162E+02  0.00000000000E+00 0.  1.
         23    2    1    2    0    0  0.00000000000E+00  0.00000000000E+00  0.15796216611E+03  0.18298081044E+03  0.92357625918E+02 0.  0.
        -11    1    3    3    0    0  0.41675744919E+02  0.11389757422E+02  0.46675130959E+02  0.63601589121E+02  0.00000000000E+00 0.  1.
         11    1    3    3    0    0 -0.41675744919E+02 -0.11389757422E+02  0.11128703516E+03  0.11937922132E+03  0.00000000000E+00 0. -1.
<mgrwt>
<rscale>  0 0.92357626E+02</rscale>
<asrwt>0</asrwt>
<pdfrwt beam="1">  1        1 0.26226381E-01 0.92357626E+02</pdfrwt>
<pdfrwt beam="2">  1       -1 0.19245112E-02 0.92357626E+02</pdfrwt>
<totfact> 0.11092254E+05</totfact>
</mgrwt>
</event>
<event>
 5    1  0.1265228E+001  0.9261908E+02  0.7546771E-02  0.1296630E+00
          3   -1    0    0  501    0  0.00000000000E+00  0.00000000000E+00  0.40052901923E+02  0.40052901923E+02  0.00000000000E+00 0. -1.
         -3   -1    0    0    0  501 -0.00000000000E+00 -0.00000000000E+00 -0.53543524253E+02  0.53543524253E+02  0.00000000000E+00 0.  1.
         23    2    1    2    0    0  0.00000000000E+00  0.00000000000E+00 -0.13490622330E+02  0.93596426176E+02  0.92619080658E+02 0.  0.
        -11    1    3    3    0    0 -0.39777098050E+02 -0.20216193879E+02 -0.19272145569E+02  0.48603781942E+02  0.00000000000E+00 0.  1.
         11    1    3    3    0    0  0.39777098050E+02  0.20216193879E+02  0.57815232398E+01  0.44992644234E+02  0.00000000000E+00 0. -1.
<mgrwt>
<rscale>  0 0.92619081E+02</rscale>
<asrwt>0</asrwt>
<pdfrwt beam="1">  1        3 0.61619849E-02 0.92619081E+02</pdfrwt>
<pdfrwt beam="2">  1       -3 0.82374653E-02 0.92619081E+02</pdfrwt>
<totfact> 0.33679439E+04</totfact>
</mgrwt>
</event>
<event>
 5    1  0.1265228E+001  0.9149035E+02  0.7546771E-02  0.1299282E+00
          2   -1    0    0  501    0  0.00000000000E+00  0.00000000000E+00  0.80607408438E+02  0.80607408438E+02  0.00000000000E+00 0.  1.
         -2   -1    0    0    0  501 -0.00000000000E+00 -0.00000000000E+00 -0.25960656131E+02  0.25960656131E+02  0.00000000000E+00 0. -1.
         23    2    1    2    0    0  0.00000000000E+00  0.00000000000E+00  0.54646752307E+02  0.10656806457E+03  0.91490353853E+02 0.  0.
        -11    1    3    3    0    0  0.49652990714E+01  0.44557045216E+02  0.37911971609E+02  0.58713729778E+02  0.00000000000E+00 0.  1.
         11    1    3    3    0    0 -0.49652990714E+01 -0.44557045216E+02  0.16734780698E+02  0.47854334790E+02  0.00000000000E+00 0. -1.
<mgrwt>
<rscale>  0 0.91490354E+02</rscale>
<asrwt>0</asrwt>
<pdfrwt beam="1">  1        2 0.12401140E-01 0.91490354E+02</pdfrwt>
<pdfrwt beam="2">  1       -2 0.39939471E-02 0.91490354E+02</pdfrwt>
<totfact> 0.11401086E+05</totfact>
</mgrwt>
</event>
<event>
 5    1  0.1265228E+001  0.8946162E+02  0.7546771E-02  0.1304161E+00
         -2   -1    0    0    0  501 -0.00000000000E+00  0.00000000000E+00  0.20140962250E+02  0.20140962250E+02  0.00000000000E+00 0.  1.
          2   -1    0    0  501    0  0.00000000000E+00 -0.00000000000E+00 -0.99342088739E+02  0.99342088739E+02  0.00000000000E+00 0. -1.
         23    2    1    2    0    0  0.00000000000E+00  0.00000000000E+00 -0.79201126489E+02  0.11948305099E+03  0.89461617672E+02 0.  0.
        -13    1    3    3    0    0  0.47128375082E+01 -0.21285620355E+02  0.12564981402E+02  0.25162814407E+02  0.00000000000E+00 0.  1.
         13    1    3    3    0    0 -0.47128375082E+01  0.21285620355E+02 -0.91766107891E+02  0.94320236581E+02  0.00000000000E+00 0. -1.
<mgrwt>
<rscale>  0 0.89461618E+02</rscale>
<asrwt>0</asrwt>
<pdfrwt beam="2">  1        2 0.15283399E-01 0.89461618E+02</pdfrwt>
<pdfrwt beam="1">  1       -2 0.30986095E-02 0.89461618E+02</pdfrwt>
<totfact> 0.12898852E+05</totfact>
</mgrwt>
</event>
<event>
 5    1  0.1265228E+001  0.9249992E+02  0.7546771E-02  0.1296908E+00
         -1   -1    0    0    0  501 -0.00000000000E+00  0.00000000000E+00  0.28749240677E+03  0.28749240677E+03  0.00000000000E+00 0. -1.
          1   -1    0    0  501    0  0.00000000000E+00 -0.00000000000E+00 -0.74404007253E+01  0.74404007253E+01  0.00000000000E+00 0.  1.
         23    2    1    2    0    0  0.00000000000E+00  0.00000000000E+00  0.28005200605E+03  0.29493280750E+03  0.92499918095E+02 0.  0.
        -11    1    3    3    0    0 -0.22185834121E+02 -0.39258030828E+02  0.10725228451E+03  0.11634627950E+03  0.00000000000E+00 0.  1.
         11    1    3    3    0    0  0.22185834121E+02  0.39258030828E+02  0.17279972154E+03  0.17858652800E+03  0.00000000000E+00 0. -1.
<mgrwt>
<rscale>  0 0.92499918E+02</rscale>
<asrwt>0</asrwt>
<pdfrwt beam="2">  1        1 0.11446773E-02 0.92499918E+02</pdfrwt>
<pdfrwt beam="1">  1       -1 0.44229592E-01 0.92499918E+02</pdfrwt>
<totfact> 0.59313575E+04</totfact>
</mgrwt>
</event>
<event>
 5    1  0.1265228E+001  0.9162090E+02  0.7546771E-02  0.1298973E+00
          4   -1    0    0  501    0  0.00000000000E+00  0.00000000000E+00  0.34420750876E+02  0.34420750876E+02  0.00000000000E+00 0. -1.
         -4   -1    0    0    0  501 -0.00000000000E+00 -0.00000000000E+00 -0.60968961468E+02  0.60968961468E+02  0.00000000000E+00 0.  1.
         23    2    1    2    0    0  0.00000000000E+00  0.00000000000E+00 -0.26548210592E+02  0.95389712344E+02  0.91620902284E+02 0.  0.
        -13    1    3    3    0    0 -0.34176268833E+02  0.72986632682E+01 -0.44111907238E+02  0.56277421734E+02  0.00000000000E+00 0.  1.
         13    1    3    3    0    0  0.34176268833E+02 -0.72986632682E+01  0.17563696646E+02  0.39112290610E+02  0.00000000000E+00 0. -1.
<mgrwt>
<rscale>  0 0.91620902E+02</rscale>
<asrwt>0</asrwt>
<pdfrwt beam="1">  1        4 0.52955002E-02 0.91620902E+02</pdfrwt>
<pdfrwt beam="2">  1       -4 0.93798401E-02 0.91620902E+02</pdfrwt>
<totfact> 0.26396127E+04</totfact>
</mgrwt>
</event>
<event>
 5    1  0.1265228E+001  0.9051727E+02  0.7546771E-02  0.1301604E+00
          4   -1    0    0  501    0  0.00000000000E+00  0.00000000000E+00  0.22669649049E+02  0.22669649049E+02  0.00000000000E+00 0. -1.
         -4   -1    0    0    0  501 -0.00000000000E+00 -0.00000000000E+00 -0.90356228069E+02  0.90356228069E+02  0.00000000000E+00 0.  1.
         23    2    1    2    0    0  0.00000000000E+00  0.00000000000E+00 -0.67686579020E+02  0.11302587712E+03  0.90517268623E+02 0.  0.
        -11    1    3    3    0    0  0.30022706957E+02  0.33527575400E+02 -0.27870180969E+02  0.52935887944E+02  0.00000000000E+00 0. -1.
         11    1    3    3    0    0 -0.30022706957E+02 -0.33527575400E+02 -0.39816398051E+02  0.60089989174E+02  0.00000000000E+00 0.  1.
<mgrwt>
<rscale>  0 0.90517269E+02</rscale>
<asrwt>0</asrwt>
<pdfrwt beam="1">  1        4 0.34876383E-02 0.90517269E+02</pdfrwt>
<pdfrwt beam="2">  1       -4 0.13900958E-01 0.90517269E+02</pdfrwt>
<totfact> 0.26182594E+04</totfact>
</mgrwt>
</event>
<event>
 5    1  0.1265228E+001  0.1001757E+03  0.7546771E-02  0.1279927E+00
          1   -1    0    0  501    0  0.00000000000E+00  0.00000000000E+00  0.49349917672E+02  0.49349917672E+02  0.00000000000E+00 0. -1.
         -1   -1    0    0    0  501 -0.00000000000E+00 -0.00000000000E+00 -0.50836807884E+02  0.50836807884E+02  0.00000000000E+00 0.  1.
         23    2    1    2    0    0  0.00000000000E+00  0.00000000000E+00 -0.14868902116E+01  0.10018672556E+03  0.10017569134E+03 0.  0.
        -11    1    3    3    0    0 -0.36702075353E+02  0.21293450628E+02 -0.27361013789E+02  0.50488399167E+02  0.00000000000E+00 0.  1.
         11    1    3    3    0    0  0.36702075353E+02 -0.21293450628E+02  0.25874123577E+02  0.49698326388E+02  0.00000000000E+00 0. -1.
<mgrwt>
<rscale>  0 0.10017569E+03</rscale>
<asrwt>0</asrwt>
<pdfrwt beam="1">  1        1 0.75922951E-02 0.10017569E+03</pdfrwt>
<pdfrwt beam="2">  1       -1 0.78210473E-02 0.10017569E+03</pdfrwt>
<totfact> 0.71762416E+04</totfact>
</mgrwt>
</event>
<event>
 5    1  0.1265228E+001  0.9125099E+02  0.7546771E-02  0.1299850E+00
         -2   -1    0    0    0  501 -0.00000000000E+00  0.00000000000E+00  0.31698344894E+02  0.31698344894E+02  0.00000000000E+00 0.  1.
          2   -1    0    0  501    0  0.00000000000E+00 -0.00000000000E+00 -0.65671756162E+02  0.65671756162E+02  0.00000000000E+00 0. -1.
         23    2    1    2    0    0  0.00000000000E+00  0.00000000000E+00 -0.33973411268E+02  0.97370101055E+02  0.91250994002E+02 0.  0.
        -13    1    3    3    0    0 -0.13350628228E+02  0.29889592108E+02 -0.50899328886E+02  0.60517507148E+02  0.00000000000E+00 0. -1.
         13    1    3    3    0    0  0.13350628228E+02 -0.29889592108E+02  0.16925917618E+02  0.36852593907E+02  0.00000000000E+00 0.  1.
<mgrwt>
<rscale>  0 0.91250994E+02</rscale>
<asrwt>0</asrwt>
<pdfrwt beam="2">  1        2 0.10103347E-01 0.91250994E+02</pdfrwt>
<pdfrwt beam="1">  1       -2 0.48766685E-02 0.91250994E+02</pdfrwt>
<totfact> 0.10844638E+05</totfact>
</mgrwt>
</event>
<event>
 5    1  0.1265228E+001  0.8859020E+02  0.7546771E-02  0.1306302E+00
         -1   -1    0    0    0  501 -0.00000000000E+00  0.00000000000E+00  0.62584838098E+01  0.62584838098E+01  0.00000000000E+00 0.  1.
          1   -1    0    0  501    0  0.00000000000E+00 -0.00000000000E+00 -0.31350335648E+03  0.31350335648E+03  0.00000000000E+00 0. -1.
         23    2    1    2    0    0  0.00000000000E+00  0.00000000000E+00 -0.30724487267E+03  0.31976184029E+03  0.88590195413E+02 0.  0.
        -11    1    3    3    0    0 -0.21988116812E+01 -0.44183822091E+02 -0.16170210142E+03  0.16764430951E+03  0.00000000000E+00 0. -1.
         11    1    3    3    0    0  0.21988116812E+01  0.44183822091E+02 -0.14554277126E+03  0.15211753079E+03  0.00000000000E+00 0.  1.
<mgrwt>
<rscale>  0 0.88590195E+02</rscale>
<asrwt>0</asrwt>
<pdfrwt beam="2">  1        1 0.48231296E-01 0.88590195E+02</pdfrwt>
<pdfrwt beam="1">  1       -1 0.96284346E-03 0.88590195E+02</pdfrwt>
<totfact> 0.13946383E+05</totfact>
</mgrwt>
</event>
<event>
 5    1  0.1265228E+001  0.8893742E+02  0.7546771E-02  0.1305445E+00
         -4   -1    0    0    0  501 -0.00000000000E+00  0.00000000000E+00  0.14075860279E+03  0.14075860279E+03  0.00000000000E+00 0.  1.
          4   -1    0    0  501    0  0.00000000000E+00 -0.00000000000E+00 -0.14048634061E+02  0.14048634061E+02  0.00000000000E+00 0. -1.
         23    2    1    2    0    0  0.00000000000E+00  0.00000000000E+00  0.12670996873E+03  0.15480723685E+03  0.88937418483E+02 0.  0.
        -11    1    3    3    0    0 -0.26724043148E+02 -0.44889110431E+01  0.19834492543E+01  0.27170919665E+02  0.00000000000E+00 0. -1.
         11    1    3    3    0    0  0.26724043148E+02  0.44889110431E+01  0.12472651948E+03  0.12763631719E+03  0.00000000000E+00 0.  1.
<mgrwt>
<rscale>  0 0.88937418E+02</rscale>
<asrwt>0</asrwt>
<pdfrwt beam="2">  1        4 0.21613284E-02 0.88937418E+02</pdfrwt>
<pdfrwt beam="1">  1       -4 0.21655169E-01 0.88937418E+02</pdfrwt>
<totfact> 0.25049286E+04</totfact>
</mgrwt>
</event>
<event>
 5    1  0.1265228E+001  0.8795883E+02  0.7546771E-02  0.1307871E+00
         -1   -1    0    0    0  501 -0.00000000000E+00  0.00000000000E+00  0.10919418551E+02  0.10919418551E+02  0.00000000000E+00 0.  1.
          1   -1    0    0  501    0  0.00000000000E+00 -0.00000000000E+00 -0.17713296798E+03  0.17713296798E+03  0.00000000000E+00 0. -1.
         23    2    1    2    0    0  0.00000000000E+00  0.00000000000E+00 -0.16621354943E+03  0.18805238653E+03  0.87958831653E+02 0.  0.
        -11    1    3    3    0    0 -0.11874599460E+02 -0.23380324000E+02 -0.76230901618E+01  0.27308554819E+02  0.00000000000E+00 0.  1.
         11    1    3    3    0    0  0.11874599460E+02  0.23380324000E+02 -0.15859045927E+03  0.16074383171E+03  0.00000000000E+00 0. -1.
<mgrwt>
<rscale>  0 0.87958832E+02</rscale>
<asrwt>0</asrwt>
<pdfrwt beam="2">  1        1 0.27251222E-01 0.87958832E+02</pdfrwt>
<pdfrwt beam="1">  1       -1 0.16799108E-02 0.87958832E+02</pdfrwt>
<totfact> 0.12736702E+05</totfact>
</mgrwt>
</event>
<event>
 5    1  0.1265228E+001  0.5584039E+02  0.7546771E-02  0.1416166E+00
         -4   -1    0    0    0  501 -0.00000000000E+00  0.00000000000E+00  0.96568073642E+01  0.96568073642E+01  0.00000000000E+00 0.  1.
          4   -1    0    0  501    0  0.00000000000E+00 -0.00000000000E+00 -0.80724115016E+02  0.80724115016E+02  0.00000000000E+00 0. -1.
         23    2    1    2    0    0  0.00000000000E+00  0.00000000000E+00 -0.71067307652E+02  0.90380922380E+02  0.55840387834E+02 0.  0.
        -11    1    3    3    0    0  0.63608751104E+01  0.19621710593E+02 -0.65989440624E+02  0.69138112012E+02  0.00000000000E+00 0. -1.
         11    1    3    3    0    0 -0.63608751104E+01 -0.19621710593E+02 -0.50778670281E+01  0.21242810368E+02  0.00000000000E+00 0.  1.
<mgrwt>
<rscale>  0 0.55840388E+02</rscale>
<asrwt>0</asrwt>
<pdfrwt beam="2">  1        4 0.12419094E-01 0.55840388E+02</pdfrwt>
<pdfrwt beam="1">  1       -4 0.14856627E-02 0.55840388E+02</pdfrwt>
<totfact> 0.97535828E+04</totfact>
</mgrwt>
</event>
<event>
 5    1  0.1265228E+001  0.9000890E+02  0.7546771E-02  0.1302830E+00
          1   -1    0    0  501    0  0.00000000000E+00  0.00000000000E+00  0.20771418234E+03  0.20771418234E+03  0.00000000000E+00 0. -1.
         -1   -1    0    0    0  501 -0.00000000000E+00 -0.00000000000E+00 -0.97509015145E+01  0.97509015145E+01  0.00000000000E+00 0.  1.
         23    2    1    2    0    0  0.00000000000E+00  0.00000000000E+00  0.19796328082E+03  0.21746508385E+03  0.90008900341E+02 0.  0.
        -11    1    3    3    0    0 -0.44960868029E+02 -0.19583923224E+01  0.99688432932E+02  0.10937595081E+03  0.00000000000E+00 0.  1.
         11    1    3    3    0    0  0.44960868029E+02  0.19583923224E+01  0.98274847890E+02  0.10808913304E+03  0.00000000000E+00 0. -1.
<mgrwt>
<rscale>  0 0.90008900E+02</rscale>
<asrwt>0</asrwt>
<pdfrwt beam="1">  1        1 0.31956025E-01 0.90008900E+02</pdfrwt>
<pdfrwt beam="2">  1       -1 0.15001389E-02 0.90008900E+02</pdfrwt>
<totfact> 0.12346767E+05</totfact>
</mgrwt>
</event>
<event>
 5    1  0.1265228E+001  0.9085149E+02  0.7546771E-02  0.1300803E+00
          2   -1    0    0  501    0  0.00000000000E+00  0.00000000000E+00  0.26736431119E+02  0.26736431119E+02  0.00000000000E+00 0. -1.
         -2   -1    0    0    0  501 -0.00000000000E+00 -0.00000000000E+00 -0.77179280360E+02  0.77179280360E+02  0.00000000000E+00 0.  1.
         23    2    1    2    0    0  0.00000000000E+00  0.00000000000E+00 -0.50442849241E+02  0.10391571148E+03  0.90851494500E+02 0.  0.
        -13    1    3    3    0    0 -0.19562812758E+02 -0.40501748377E+02 -0.32491807499E+02  0.55487050914E+02  0.00000000000E+00 0.  1.
         13    1    3    3    0    0  0.19562812758E+02  0.40501748377E+02 -0.17951041742E+02  0.48428660566E+02  0.00000000000E+00 0. -1.
<mgrwt>
<rscale>  0 0.90851494E+02</rscale>
<asrwt>0</asrwt>
<pdfrwt beam="1">  1        2 0.41132971E-02 0.90851494E+02</pdfrwt>
<pdfrwt beam="2">  1       -2 0.11873735E-01 0.90851494E+02</pdfrwt>
<totfact> 0.86678474E+04</totfact>
</mgrwt>
</event>
<event>
 5    1  0.1265228E+001  0.8975312E+02  0.7546771E-02  0.1303451E+00
          2   -1    0    0  501    0  0.00000000000E+00  0.00000000000E+00  0.14804037562E+02  0.14804037562E+02  0.00000000000E+00 0. -1.
         -2   -1    0    0    0  501 -0.00000000000E+00 -0.00000000000E+00 -0.13603759098E+03  0.13603759098E+03  0.00000000000E+00 0.  1.
         23    2    1    2    0    0  0.00000000000E+00  0.00000000000E+00 -0.12123355342E+03  0.15084162854E+03  0.89753119316E+02 0.  0.
        -11    1    3    3    0    0 -0.25587365365E+02 -0.36459154800E+02 -0.51423514054E+02  0.68032058860E+02  0.00000000000E+00 0. -1.
         11    1    3    3    0    0  0.25587365365E+02  0.36459154800E+02 -0.69810039361E+02  0.82809569680E+02  0.00000000000E+00 0.  1.
<mgrwt>
<rscale>  0 0.89753119E+02</rscale>
<asrwt>0</asrwt>
<pdfrwt beam="1">  1        2 0.22775442E-02 0.89753119E+02</pdfrwt>
<pdfrwt beam="2">  1       -2 0.20928860E-01 0.89753119E+02</pdfrwt>
<totfact> 0.75245002E+04</totfact>
</mgrwt>
</event>
<event>
 5    1  0.1265228E+001  0.9047618E+02  0.7546771E-02  0.1301703E+00
          1   -1    0    0  501    0  0.00000000000E+00  0.00000000000E+00  0.17620515810E+03  0.17620515810E+03  0.00000000000E+00 0. -1.
         -1   -1    0    0    0  501 -0.00000000000E+00 -0.00000000000E+00 -0.11614214904E+02  0.11614214904E+02  0.00000000000E+00 0.  1.
         23    2    1    2    0    0  0.00000000000E+00  0.00000000000E+00  0.16459094320E+03  0.18781937301E+03  0.90476175280E+02 0.  0.
        -13    1    3    3    0    0 -0.43534367683E+02  0.83057922527E+01  0.10112299361E+03  0.11040872787E+03  0.00000000000E+00 0.  1.
         13    1    3    3    0    0  0.43534367683E+02 -0.83057922527E+01  0.63467949591E+02  0.77410645132E+02  0.00000000000E+00 0. -1.
<mgrwt>
<rscale>  0 0.90476175E+02</rscale>
<asrwt>0</asrwt>
<pdfrwt beam="1">  1        1 0.27108484E-01 0.90476175E+02</pdfrwt>
<pdfrwt beam="2">  1       -1 0.17868024E-02 0.90476175E+02</pdfrwt>
<totfact> 0.11797462E+05</totfact>
</mgrwt>
</event>
<event>
 5    1  0.1265228E+001  0.9147801E+02  0.7546771E-02  0.1299311E+00
          2   -1    0    0  501    0  0.00000000000E+00  0.00000000000E+00  0.16082331372E+03  0.16082331372E+03  0.00000000000E+00 0. -1.
         -2   -1    0    0    0  501 -0.00000000000E+00 -0.00000000000E+00 -0.13008415475E+02  0.13008415475E+02  0.00000000000E+00 0.  1.
         23    2    1    2    0    0  0.00000000000E+00  0.00000000000E+00  0.14781489824E+03  0.17383172919E+03  0.91478007913E+02 0.  0.
        -11    1    3    3    0    0  0.66568229475E+01 -0.45139871917E+02  0.67857836894E+02  0.81771678205E+02  0.00000000000E+00 0.  1.
         11    1    3    3    0    0 -0.66568229475E+01  0.45139871917E+02  0.79957061351E+02  0.92060050990E+02  0.00000000000E+00 0. -1.
<mgrwt>
<rscale>  0 0.91478008E+02</rscale>
<asrwt>0</asrwt>
<pdfrwt beam="1">  1        2 0.24742047E-01 0.91478008E+02</pdfrwt>
<pdfrwt beam="2">  1       -2 0.20012948E-02 0.91478008E+02</pdfrwt>
<totfact> 0.14191544E+05</totfact>
</mgrwt>
</event>
<event>
 5    1  0.1265228E+001  0.8966590E+02  0.7546771E-02  0.1303663E+00
          2   -1    0    0  501    0  0.00000000000E+00  0.00000000000E+00  0.38603085246E+02  0.38603085246E+02  0.00000000000E+00 0. -1.
         -2   -1    0    0    0  501 -0.00000000000E+00 -0.00000000000E+00 -0.52068200578E+02  0.52068200578E+02  0.00000000000E+00 0.  1.
         23    2    1    2    0    0  0.00000000000E+00  0.00000000000E+00 -0.13465115332E+02  0.90671285824E+02  0.89665895089E+02 0.  0.
        -11    1    3    3    0    0 -0.44702326277E+00  0.10519400166E+02 -0.50800266478E+02  0.51879906360E+02  0.00000000000E+00 0.  1.
         11    1    3    3    0    0  0.44702326277E+00 -0.10519400166E+02  0.37335151146E+02  0.38791379464E+02  0.00000000000E+00 0. -1.
<mgrwt>
<rscale>  0 0.89665895E+02</rscale>
<asrwt>0</asrwt>
<pdfrwt beam="1">  1        2 0.59389362E-02 0.89665895E+02</pdfrwt>
<pdfrwt beam="2">  1       -2 0.80104924E-02 0.89665895E+02</pdfrwt>
<totfact> 0.99202242E+04</totfact>
</mgrwt>
</event>
<event>
 5    1  0.1265228E+001  0.9024145E+02  0.7546771E-02  0.1302268E+00
         -1   -1    0    0    0  501 -0.00000000000E+00  0.00000000000E+00  0.15051232118E+03  0.15051232118E+03  0.00000000000E+00 0.  1.
          1   -1    0    0  501    0  0.00000000000E+00 -0.00000000000E+00 -0.13526333425E+02  0.13526333425E+02  0.00000000000E+00 0. -1.
         23    2    1    2    0    0  0.00000000000E+00  0.00000000000E+00  0.13698598775E+03  0.16403865460E+03  0.90241450362E+02 0.  0.
        -11    1    3    3    0    0  0.38686632786E+02  0.20733020277E+02  0.87502971403E+02  0.97894247484E+02  0.00000000000E+00 0.  1.
         11    1    3    3    0    0 -0.38686632786E+02 -0.20733020277E+02  0.49483016349E+02  0.66144407119E+02  0.00000000000E+00 0. -1.
<mgrwt>
<rscale>  0 0.90241450E+02</rscale>
<asrwt>0</asrwt>
<pdfrwt beam="2">  1        1 0.20809745E-02 0.90241450E+02</pdfrwt>
<pdfrwt beam="1">  1       -1 0.23155741E-01 0.90241450E+02</pdfrwt>
<totfact> 0.76754118E+04</totfact>
</mgrwt>
</event>
<event>
 5    1  0.1265228E+001  0.9056455E+02  0.7546771E-02  0.1301490E+00
          1   -1    0    0  501    0  0.00000000000E+00  0.00000000000E+00  0.28249219434E+03  0.28249219434E+03  0.00000000000E+00 0.  1.
         -1   -1    0    0    0  501 -0.00000000000E+00 -0.00000000000E+00 -0.72585525287E+01  0.72585525287E+01  0.00000000000E+00 0. -1.
         23    2    1    2    0    0  0.00000000000E+00  0.00000000000E+00  0.27523364181E+03  0.28975074687E+03  0.90564550053E+02 0.  0.
        -13    1    3    3    0    0 -0.10549423206E+02  0.43927074748E+02  0.14753295223E+03  0.15429468629E+03  0.00000000000E+00 0.  1.
         13    1    3    3    0    0  0.10549423206E+02 -0.43927074748E+02  0.12770068959E+03  0.13545606058E+03  0.00000000000E+00 0. -1.
<mgrwt>
<rscale>  0 0.90564550E+02</rscale>
<asrwt>0</asrwt>
<pdfrwt beam="1">  1        1 0.43460329E-01 0.90564550E+02</pdfrwt>
<pdfrwt beam="2">  1       -1 0.11167006E-02 0.90564550E+02</pdfrwt>
<totfact> 0.12894487E+05</totfact>
</mgrwt>
</event>
<event>
 5    1  0.1265228E+001  0.9177682E+02  0.7546771E-02  0.1298605E+00
          1   -1    0    0  501    0  0.00000000000E+00  0.00000000000E+00  0.11669416341E+03  0.11669416341E+03  0.00000000000E+00 0. -1.
         -1   -1    0    0    0  501 -0.00000000000E+00 -0.00000000000E+00 -0.18045001565E+02  0.18045001565E+02  0.00000000000E+00 0.  1.
         23    2    1    2    0    0  0.00000000000E+00  0.00000000000E+00  0.98649161841E+02  0.13473916497E+03  0.91776824117E+02 0.  0.
        -11    1    3    3    0    0  0.28100427716E+02 -0.33748241436E+02  0.68865910488E+02  0.81676749845E+02  0.00000000000E+00 0. -1.
         11    1    3    3    0    0 -0.28100427716E+02  0.33748241436E+02  0.29783251353E+02  0.53062415126E+02  0.00000000000E+00 0.  1.
<mgrwt>
<rscale>  0 0.91776824E+02</rscale>
<asrwt>0</asrwt>
<pdfrwt beam="1">  1        1 0.17952948E-01 0.91776824E+02</pdfrwt>
<pdfrwt beam="2">  1       -1 0.27761542E-02 0.91776824E+02</pdfrwt>
<totfact> 0.10532471E+05</totfact>
</mgrwt>
</event>
<event>
 5    1  0.1265228E+001  0.9051013E+02  0.7546771E-02  0.1301621E+00
         -2   -1    0    0    0  501 -0.00000000000E+00  0.00000000000E+00  0.11973883135E+02  0.11973883135E+02  0.00000000000E+00 0.  1.
          2   -1    0    0  501    0  0.00000000000E+00 -0.00000000000E+00 -0.17104068094E+03  0.17104068094E+03  0.00000000000E+00 0. -1.
         23    2    1    2    0    0  0.00000000000E+00  0.00000000000E+00 -0.15906679781E+03  0.18301456408E+03  0.90510134789E+02 0.  0.
        -11    1    3    3    0    0 -0.12613415414E+02  0.42856668030E+02 -0.64920250178E+02  0.78806288621E+02  0.00000000000E+00 0. -1.
         11    1    3    3    0    0  0.12613415414E+02 -0.42856668030E+02 -0.94146547629E+02  0.10420827546E+03  0.00000000000E+00 0.  1.
<mgrwt>
<rscale>  0 0.90510135E+02</rscale>
<asrwt>0</asrwt>
<pdfrwt beam="2">  1        2 0.26313948E-01 0.90510135E+02</pdfrwt>
<pdfrwt beam="1">  1       -2 0.18421361E-02 0.90510135E+02</pdfrwt>
<totfact> 0.14921929E+05</totfact>
</mgrwt>
</event>
<event>
 5    1  0.1265228E+001  0.9196283E+02  0.7546771E-02  0.1298167E+00
          1   -1    0    0  501    0  0.00000000000E+00  0.00000000000E+00  0.17739564466E+02  0.17739564466E+02  0.00000000000E+00 0. -1.
         -1   -1    0    0    0  501 -0.00000000000E+00 -0.00000000000E+00 -0.11918502936E+03  0.11918502936E+03  0.00000000000E+00 0.  1.
         23    2    1    2    0    0  0.00000000000E+00  0.00000000000E+00 -0.10144546489E+03  0.13692459382E+03  0.91962829701E+02 0.  0.
        -11    1    3    3    0    0  0.28163173171E+02  0.31047585739E+02 -0.78861742579E+02  0.89310085353E+02  0.00000000000E+00 0.  1.
         11    1    3    3    0    0 -0.28163173171E+02 -0.31047585739E+02 -0.22583722310E+02  0.47614508468E+02  0.00000000000E+00 0. -1.
<mgrwt>
<rscale>  0 0.91962830E+02</rscale>
<asrwt>0</asrwt>
<pdfrwt beam="1">  1        1 0.27291636E-02 0.91962830E+02</pdfrwt>
<pdfrwt beam="2">  1       -1 0.18336159E-01 0.91962830E+02</pdfrwt>
<totfact> 0.76912466E+04</totfact>
</mgrwt>
</event>
<event>
 5    1  0.1265228E+001  0.9334209E+02  0.7546771E-02  0.1294954E+00
          2   -1    0    0  501    0  0.00000000000E+00  0.00000000000E+00  0.38498032236E+02  0.38498032236E+02  0.00000000000E+00 0. -1.
         -2   -1    0    0    0  501 -0.00000000000E+00 -0.00000000000E+00 -0.56579167783E+02  0.56579167783E+02  0.00000000000E+00 0.  1.
         23    2    1    2    0    0  0.00000000000E+00  0.00000000000E+00 -0.18081135546E+02  0.95077200019E+02  0.93342093938E+02 0.  0.
        -13    1    3    3    0    0  0.42793954698E+02  0.11491108467E+02  0.58885683098E+01  0.44699478400E+02  0.00000000000E+00 0. -1.
         13    1    3    3    0    0 -0.42793954698E+02 -0.11491108467E+02 -0.23969703856E+02  0.50377721619E+02  0.00000000000E+00 0.  1.
<mgrwt>
<rscale>  0 0.93342094E+02</rscale>
<asrwt>0</asrwt>
<pdfrwt beam="1">  1        2 0.59227742E-02 0.93342094E+02</pdfrwt>
<pdfrwt beam="2">  1       -2 0.87044873E-02 0.93342094E+02</pdfrwt>
<totfact> 0.88201391E+04</totfact>
</mgrwt>
</event>
<event>
 4    1  0.1265228E+001  0.3988327E+02  0.7546771E-02  0.1509072E+00
          2   -1    0    0  501    0  0.00000000000E+00  0.00000000000E+00  0.59837971636E+02  0.59837971636E+02  0.00000000000E+00 0.  1.
         -2   -1    0    0    0  501 -0.00000000000E+00 -0.00000000000E+00 -0.66457615514E+01  0.66457615514E+01  0.00000000000E+00 0. -1.
        -11    1    1    2    0    0  0.94155097636E+01  0.78325841862E+01  0.36242172398E+00  0.12252858795E+02  0.00000000000E+00 0. -1.
         11    1    1    2    0    0 -0.94155097636E+01 -0.78325841862E+01  0.52829788360E+02  0.54230874392E+02  0.00000000000E+00 0.  1.
<mgrwt>
<rscale>  0 0.39883274E+02</rscale>
<asrwt>0</asrwt>
<pdfrwt beam="1">  1        2 0.92058414E-02 0.39883274E+02</pdfrwt>
<pdfrwt beam="2">  1       -2 0.10224249E-02 0.39883274E+02</pdfrwt>
<totfact> 0.93945164E+05</totfact>
</mgrwt>
</event>
<event>
 5    1  0.1265228E+001  0.8519671E+02  0.7546771E-02  0.1314919E+00
         -1   -1    0    0    0  501 -0.00000000000E+00  0.00000000000E+00  0.83711938950E+02  0.83711938950E+02  0.00000000000E+00 0.  1.
          1   -1    0    0  501    0  0.00000000000E+00 -0.00000000000E+00 -0.21676956485E+02  0.21676956485E+02  0.00000000000E+00 0. -1.
         23    2    1    2    0    0  0.00000000000E+00  0.00000000000E+00  0.62034982465E+02  0.10538889544E+03  0.85196714912E+02 0.  0.
        -11    1    3    3    0    0  0.11333072485E+01 -0.35574177076E+02  0.20648354073E+01  0.35652068737E+02  0.00000000000E+00 0. -1.
         11    1    3    3    0    0 -0.11333072485E+01  0.35574177076E+02  0.59970147057E+02  0.69736826699E+02  0.00000000000E+00 0.  1.
<mgrwt>
<rscale>  0 0.85196715E+02</rscale>
<asrwt>0</asrwt>
<pdfrwt beam="2">  1        1 0.33349164E-02 0.85196715E+02</pdfrwt>
<pdfrwt beam="1">  1       -1 0.12878760E-01 0.85196715E+02</pdfrwt>
<totfact> 0.99921587E+04</totfact>
</mgrwt>
</event>
<event>
 5    1  0.1265228E+001  0.8857930E+02  0.7546771E-02  0.1306329E+00
         -2   -1    0    0    0  501 -0.00000000000E+00  0.00000000000E+00  0.11432811843E+02  0.11432811843E+02  0.00000000000E+00 0.  1.
          2   -1    0    0  501    0  0.00000000000E+00 -0.00000000000E+00 -0.17157397108E+03  0.17157397108E+03  0.00000000000E+00 0. -1.
         23    2    1    2    0    0  0.00000000000E+00  0.00000000000E+00 -0.16014115924E+03  0.18300678293E+03  0.88579296194E+02 0.  0.
        -11    1    3    3    0    0  0.15300744307E+02  0.23301994918E+02 -0.89658791455E+01  0.29282806087E+02  0.00000000000E+00 0.  1.
         11    1    3    3    0    0 -0.15300744307E+02 -0.23301994918E+02 -0.15117528009E+03  0.15372397684E+03  0.00000000000E+00 0. -1.
<mgrwt>
<rscale>  0 0.88579296E+02</rscale>
<asrwt>0</asrwt>
<pdfrwt beam="2">  1        2 0.26395994E-01 0.88579296E+02</pdfrwt>
<pdfrwt beam="1">  1       -2 0.17588942E-02 0.88579296E+02</pdfrwt>
<totfact> 0.15832055E+05</totfact>
</mgrwt>
</event>
<event>
 5    1  0.1265228E+001  0.8448101E+02  0.7546771E-02  0.1316795E+00
          2   -1    0    0  501    0  0.00000000000E+00  0.00000000000E+00  0.99340339640E+02  0.99340339640E+02  0.00000000000E+00 0. -1.
         -2   -1    0    0    0  501 -0.00000000000E+00 -0.00000000000E+00 -0.17961083753E+02  0.17961083753E+02  0.00000000000E+00 0.  1.
         23    2    1    2    0    0  0.00000000000E+00  0.00000000000E+00  0.81379255886E+02  0.11730142339E+03  0.84481007578E+02 0.  0.
        -11    1    3    3    0    0  0.19351300658E+02 -0.60321804800E+01  0.92146423583E+02  0.94349474920E+02  0.00000000000E+00 0. -1.
         11    1    3    3    0    0 -0.19351300658E+02  0.60321804800E+01 -0.10767167697E+02  0.22951948473E+02  0.00000000000E+00 0.  1.
<mgrwt>
<rscale>  0 0.84481008E+02</rscale>
<asrwt>0</asrwt>
<pdfrwt beam="1">  1        2 0.15283129E-01 0.84481008E+02</pdfrwt>
<pdfrwt beam="2">  1       -2 0.27632437E-02 0.84481008E+02</pdfrwt>
<totfact> 0.15084434E+05</totfact>
</mgrwt>
</event>
<event>
 5    1  0.1265228E+001  0.9209815E+02  0.7546771E-02  0.1297849E+00
         -2   -1    0    0    0  501 -0.00000000000E+00  0.00000000000E+00  0.61925601744E+02  0.61925601744E+02  0.00000000000E+00 0.  1.
          2   -1    0    0  501    0  0.00000000000E+00 -0.00000000000E+00 -0.34242982683E+02  0.34242982683E+02  0.00000000000E+00 0. -1.
         23    2    1    2    0    0  0.00000000000E+00  0.00000000000E+00  0.27682619061E+02  0.96168584427E+02  0.92098149996E+02 0.  0.
        -13    1    3    3    0    0  0.37693973129E+02 -0.16667242945E+01  0.41406989564E+02  0.56019214247E+02  0.00000000000E+00 0. -1.
         13    1    3    3    0    0 -0.37693973129E+02  0.16667242945E+01 -0.13724370504E+02  0.40149370180E+02  0.00000000000E+00 0.  1.
<mgrwt>
<rscale>  0 0.92098150E+02</rscale>
<asrwt>0</asrwt>
<pdfrwt beam="2">  1        2 0.52681512E-02 0.92098150E+02</pdfrwt>
<pdfrwt beam="1">  1       -2 0.95270156E-02 0.92098150E+02</pdfrwt>
<totfact> 0.88944235E+04</totfact>
</mgrwt>
</event>
<event>
 5    1  0.1265228E+001  0.9750858E+02  0.7546771E-02  0.1285624E+00
         -1   -1    0    0    0  501 -0.00000000000E+00  0.00000000000E+00  0.26537980399E+02  0.26537980399E+02  0.00000000000E+00 0.  1.
          1   -1    0    0  501    0  0.00000000000E+00 -0.00000000000E+00 -0.89569021879E+02  0.89569021879E+02  0.00000000000E+00 0. -1.
         23    2    1    2    0    0  0.00000000000E+00  0.00000000000E+00 -0.63031041481E+02  0.11610700228E+03  0.97508583150E+02 0.  0.
        -13    1    3    3    0    0  0.41334524200E+02  0.16299737181E+02 -0.76188768218E+01  0.45080723231E+02  0.00000000000E+00 0.  1.
         13    1    3    3    0    0 -0.41334524200E+02 -0.16299737181E+02 -0.55412164659E+02  0.71026279047E+02  0.00000000000E+00 0. -1.
<mgrwt>
<rscale>  0 0.97508583E+02</rscale>
<asrwt>0</asrwt>
<pdfrwt beam="2">  1        1 0.13779850E-01 0.97508583E+02</pdfrwt>
<pdfrwt beam="1">  1       -1 0.40827662E-02 0.97508583E+02</pdfrwt>
<totfact> 0.85289778E+04</totfact>
</mgrwt>
</event>
<event>
 5    1  0.1265228E+001  0.9095484E+02  0.7546771E-02  0.1300556E+00
          2   -1    0    0  501    0  0.00000000000E+00  0.00000000000E+00  0.64764198222E+01  0.64764198222E+01  0.00000000000E+00 0. -1.
         -2   -1    0    0    0  501 -0.00000000000E+00 -0.00000000000E+00 -0.31934243337E+03  0.31934243337E+03  0.00000000000E+00 0.  1.
         23    2    1    2    0    0  0.00000000000E+00  0.00000000000E+00 -0.31286601355E+03  0.32581885319E+03  0.90954838586E+02 0.  0.
        -13    1    3    3    0    0  0.44251716210E+02  0.37963069396E+01 -0.12141352802E+03  0.12928213767E+03  0.00000000000E+00 0. -1.
         13    1    3    3    0    0 -0.44251716210E+02 -0.37963069396E+01 -0.19145248553E+03  0.19653671553E+03  0.00000000000E+00 0.  1.
<mgrwt>
<rscale>  0 0.90954839E+02</rscale>
<asrwt>0</asrwt>
<pdfrwt beam="1">  1        2 0.99637234E-03 0.90954839E+02</pdfrwt>
<pdfrwt beam="2">  1       -2 0.49129602E-01 0.90954839E+02</pdfrwt>
<totfact> 0.49514978E+04</totfact>
</mgrwt>
</event>
<event>
 5    1  0.1265228E+001  0.9145604E+02  0.7546771E-02  0.1299364E+00
         -1   -1    0    0    0  501 -0.00000000000E+00  0.00000000000E+00  0.40813251283E+01  0.40813251283E+01  0.00000000000E+00 0.  1.
          1   -1    0    0  501    0  0.00000000000E+00 -0.00000000000E+00 -0.51234628655E+03  0.51234628655E+03  0.00000000000E+00 0. -1.
         23    2    1    2    0    0  0.00000000000E+00  0.00000000000E+00 -0.50826496142E+03  0.51642761168E+03  0.91456039137E+02 0.  0.
        -11    1    3    3    0    0  0.45495731685E+02  0.36079800194E+01 -0.27027526997E+03  0.27410144232E+03  0.00000000000E+00 0. -1.
         11    1    3    3    0    0 -0.45495731685E+02 -0.36079800194E+01 -0.23798969145E+03  0.24232616936E+03  0.00000000000E+00 0.  1.
<mgrwt>
<rscale>  0 0.91456039E+02</rscale>
<asrwt>0</asrwt>
<pdfrwt beam="2">  1        1 0.78822503E-01 0.91456039E+02</pdfrwt>
<pdfrwt beam="1">  1       -1 0.62789620E-03 0.91456039E+02</pdfrwt>
<totfact> 0.13852817E+05</totfact>
</mgrwt>
</event>
<event>
 5    1  0.1265228E+001  0.9471772E+02  0.7546771E-02  0.1291813E+00
         -2   -1    0    0    0  501 -0.00000000000E+00  0.00000000000E+00  0.77758837038E+01  0.77758837038E+01  0.00000000000E+00 0. -1.
          2   -1    0    0  501    0  0.00000000000E+00 -0.00000000000E+00 -0.28843814146E+03  0.28843814146E+03  0.00000000000E+00 0.  1.
         23    2    1    2    0    0  0.00000000000E+00  0.00000000000E+00 -0.28066225775E+03  0.29621402516E+03  0.94717716267E+02 0.  0.
        -13    1    3    3    0    0 -0.51923015166E+00  0.40210579990E+02 -0.21855834205E+03  0.22222715681E+03  0.00000000000E+00 0. -1.
         13    1    3    3    0    0  0.51923015166E+00 -0.40210579990E+02 -0.62103915702E+02  0.73986868352E+02  0.00000000000E+00 0.  1.
<mgrwt>
<rscale>  0 0.94717716E+02</rscale>
<asrwt>0</asrwt>
<pdfrwt beam="2">  1        2 0.44375099E-01 0.94717716E+02</pdfrwt>
<pdfrwt beam="1">  1       -2 0.11962898E-02 0.94717716E+02</pdfrwt>
<totfact> 0.15987736E+05</totfact>
</mgrwt>
</event>
<event>
 5    1  0.1265228E+001  0.9039475E+02  0.7546771E-02  0.1301899E+00
          4   -1    0    0  501    0  0.00000000000E+00  0.00000000000E+00  0.24341004188E+02  0.24341004188E+02  0.00000000000E+00 0. -1.
         -4   -1    0    0    0  501 -0.00000000000E+00 -0.00000000000E+00 -0.83924337841E+02  0.83924337841E+02  0.00000000000E+00 0.  1.
         23    2    1    2    0    0  0.00000000000E+00  0.00000000000E+00 -0.59583333653E+02  0.10826534203E+03  0.90394748937E+02 0.  0.
        -13    1    3    3    0    0  0.21202676528E+02  0.90084943849E+01 -0.76364854047E+02  0.79764010661E+02  0.00000000000E+00 0.  1.
         13    1    3    3    0    0 -0.21202676528E+02 -0.90084943849E+01  0.16781520394E+02  0.28501331368E+02  0.00000000000E+00 0. -1.
<mgrwt>
<rscale>  0 0.90394749E+02</rscale>
<asrwt>0</asrwt>
<pdfrwt beam="1">  1        4 0.37447700E-02 0.90394749E+02</pdfrwt>
<pdfrwt beam="2">  1       -4 0.12911436E-01 0.90394749E+02</pdfrwt>
<totfact> 0.26567076E+04</totfact>
</mgrwt>
</event>
<event>
 5    1  0.1265228E+001  0.9009068E+02  0.7546771E-02  0.1302632E+00
         -1   -1    0    0    0  501 -0.00000000000E+00  0.00000000000E+00  0.75896904590E+01  0.75896904590E+01  0.00000000000E+00 0.  1.
          1   -1    0    0  501    0  0.00000000000E+00 -0.00000000000E+00 -0.26734721009E+03  0.26734721009E+03  0.00000000000E+00 0. -1.
         23    2    1    2    0    0  0.00000000000E+00  0.00000000000E+00 -0.25975751963E+03  0.27493690055E+03  0.90090678089E+02 0.  0.
        -11    1    3    3    0    0 -0.34609067161E+02 -0.28646639600E+02 -0.11991243069E+03  0.12805236633E+03  0.00000000000E+00 0.  1.
         11    1    3    3    0    0  0.34609067161E+02  0.28646639600E+02 -0.13984508894E+03  0.14688453421E+03  0.00000000000E+00 0. -1.
<mgrwt>
<rscale>  0 0.90090678E+02</rscale>
<asrwt>0</asrwt>
<pdfrwt beam="2">  1        1 0.41130333E-01 0.90090678E+02</pdfrwt>
<pdfrwt beam="1">  1       -1 0.11676449E-02 0.90090678E+02</pdfrwt>
<totfact> 0.12936836E+05</totfact>
</mgrwt>
</event>
<event>
 5    1  0.1265228E+001  0.8923615E+02  0.7546771E-02  0.1304712E+00
          2   -1    0    0  501    0  0.00000000000E+00  0.00000000000E+00  0.53490460682E+02  0.53490460682E+02  0.00000000000E+00 0. -1.
         -2   -1    0    0    0  501 -0.00000000000E+00 -0.00000000000E+00 -0.37217335378E+02  0.37217335378E+02  0.00000000000E+00 0.  1.
         23    2    1    2    0    0  0.00000000000E+00  0.00000000000E+00  0.16273125303E+02  0.90707796060E+02  0.89236145473E+02 0.  0.
        -13    1    3    3    0    0 -0.39563362230E+02 -0.20206642258E+02  0.39203405343E+01  0.44597500964E+02  0.00000000000E+00 0.  1.
         13    1    3    3    0    0  0.39563362230E+02  0.20206642258E+02  0.12352784769E+02  0.46110295096E+02  0.00000000000E+00 0. -1.
<mgrwt>
<rscale>  0 0.89236145E+02</rscale>
<asrwt>0</asrwt>
<pdfrwt beam="1">  1        2 0.82293016E-02 0.89236145E+02</pdfrwt>
<pdfrwt beam="2">  1       -2 0.57257439E-02 0.89236145E+02</pdfrwt>
<totfact> 0.10934507E+05</totfact>
</mgrwt>
</event>
<event>
 5    1  0.1265228E+001  0.7556443E+02  0.7546771E-02  0.1342132E+00
         -2   -1    0    0    0  501 -0.00000000000E+00  0.00000000000E+00  0.10358118811E+02  0.10358118811E+02  0.00000000000E+00 0.  1.
          2   -1    0    0  501    0  0.00000000000E+00 -0.00000000000E+00 -0.13781420834E+03  0.13781420834E+03  0.00000000000E+00 0. -1.
         23    2    1    2    0    0  0.00000000000E+00  0.00000000000E+00 -0.12745608953E+03  0.14817232715E+03  0.75564434593E+02 0.  0.
        -13    1    3    3    0    0  0.12600950765E+02  0.29197624118E+02 -0.10373231023E+03  0.10849736126E+03  0.00000000000E+00 0. -1.
         13    1    3    3    0    0 -0.12600950765E+02 -0.29197624118E+02 -0.23723779299E+02  0.39674965892E+02  0.00000000000E+00 0.  1.
<mgrwt>
<rscale>  0 0.75564435E+02</rscale>
<asrwt>0</asrwt>
<pdfrwt beam="2">  1        2 0.21202187E-01 0.75564435E+02</pdfrwt>
<pdfrwt beam="1">  1       -2 0.15935567E-02 0.75564435E+02</pdfrwt>
<totfact> 0.22508451E+05</totfact>
</mgrwt>
</event>
<event>
 5    1  0.1265228E+001  0.9054175E+02  0.7546771E-02  0.1301545E+00
          2   -1    0    0  501    0  0.00000000000E+00  0.00000000000E+00  0.13481046797E+03  0.13481046797E+03  0.00000000000E+00 0.  1.
         -2   -1    0    0    0  501 -0.00000000000E+00 -0.00000000000E+00 -0.15202471169E+02  0.15202471169E+02  0.00000000000E+00 0. -1.
         23    2    1    2    0    0  0.00000000000E+00  0.00000000000E+00  0.11960799680E+03  0.15001293914E+03  0.90541752856E+02 0.  0.
        -11    1    3    3    0    0  0.26645201863E+02  0.17263479033E+02  0.11327282490E+03  0.11763812032E+03  0.00000000000E+00 0.  1.
         11    1    3    3    0    0 -0.26645201863E+02 -0.17263479033E+02  0.63351718979E+01  0.32374818820E+02  0.00000000000E+00 0. -1.
<mgrwt>
<rscale>  0 0.90541753E+02</rscale>
<asrwt>0</asrwt>
<pdfrwt beam="1">  1        2 0.20740071E-01 0.90541753E+02</pdfrwt>
<pdfrwt beam="2">  1       -2 0.23388418E-02 0.90541753E+02</pdfrwt>
<totfact> 0.13747648E+05</totfact>
</mgrwt>
</event>
<event>
 5    1  0.1265228E+001  0.8599083E+02  0.7546771E-02  0.1312862E+00
          1   -1    0    0  501    0  0.00000000000E+00  0.00000000000E+00  0.34028681562E+02  0.34028681562E+02  0.00000000000E+00 0. -1.
         -1   -1    0    0    0  501 -0.00000000000E+00 -0.00000000000E+00 -0.54324934354E+02  0.54324934354E+02  0.00000000000E+00 0.  1.
         23    2    1    2    0    0  0.00000000000E+00  0.00000000000E+00 -0.20296252792E+02  0.88353615916E+02  0.85990834210E+02 0.  0.
        -13    1    3    3    0    0  0.16204416944E+02 -0.34908125662E+02  0.95474478590E+01  0.39652416400E+02  0.00000000000E+00 0. -1.
         13    1    3    3    0    0 -0.16204416944E+02  0.34908125662E+02 -0.29843700651E+02  0.48701199516E+02  0.00000000000E+00 0.  1.
<mgrwt>
<rscale>  0 0.85990834E+02</rscale>
<asrwt>0</asrwt>
<pdfrwt beam="1">  1        1 0.52351818E-02 0.85990834E+02</pdfrwt>
<pdfrwt beam="2">  1       -1 0.83576821E-02 0.85990834E+02</pdfrwt>
<totfact> 0.10438845E+05</totfact>
</mgrwt>
</event>
<event>
 5    1  0.1265228E+001  0.9140468E+02  0.7546771E-02  0.1299485E+00
         -2   -1    0    0    0  501 -0.00000000000E+00  0.00000000000E+00  0.47006353408E+02  0.47006353408E+02  0.00000000000E+00 0.  1.
          2   -1    0    0  501    0  0.00000000000E+00 -0.00000000000E+00 -0.44434500725E+02  0.44434500725E+02  0.00000000000E+00 0. -1.
         23    2    1    2    0    0  0.00000000000E+00  0.00000000000E+00  0.25718526824E+01  0.91440854133E+02  0.91404679192E+02 0.  0.
        -11    1    3    3    0    0  0.44042599376E+02 -0.33445943243E+01 -0.10456136612E+02  0.45390171445E+02  0.00000000000E+00 0. -1.
         11    1    3    3    0    0 -0.44042599376E+02  0.33445943243E+01  0.13027989294E+02  0.46050682688E+02  0.00000000000E+00 0.  1.
<mgrwt>
<rscale>  0 0.91404679E+02</rscale>
<asrwt>0</asrwt>
<pdfrwt beam="2">  1        2 0.68360770E-02 0.91404679E+02</pdfrwt>
<pdfrwt beam="1">  1       -2 0.72317467E-02 0.91404679E+02</pdfrwt>
<totfact> 0.97318947E+04</totfact>
</mgrwt>
</event>
<event>
 5    1  0.1265228E+001  0.9105300E+02  0.7546771E-02  0.1300322E+00
         -1   -1    0    0    0  501 -0.00000000000E+00  0.00000000000E+00  0.47578495884E+02  0.47578495884E+02  0.00000000000E+00 0.  1.
          1   -1    0    0  501    0  0.00000000000E+00 -0.00000000000E+00 -0.43563001794E+02  0.43563001794E+02  0.00000000000E+00 0. -1.
         23    2    1    2    0    0  0.00000000000E+00  0.00000000000E+00  0.40154940903E+01  0.91141497678E+02  0.91052997788E+02 0.  0.
        -11    1    3    3    0    0  0.10432453477E+02  0.44180524855E+02 -0.14462936985E+01  0.45418571394E+02  0.00000000000E+00 0.  1.
         11    1    3    3    0    0 -0.10432453477E+02 -0.44180524855E+02  0.54617877888E+01  0.45722926283E+02  0.00000000000E+00 0. -1.
<mgrwt>
<rscale>  0 0.91052998E+02</rscale>
<asrwt>0</asrwt>
<pdfrwt beam="2">  1        1 0.67020003E-02 0.91052998E+02</pdfrwt>
<pdfrwt beam="1">  1       -1 0.73197686E-02 0.91052998E+02</pdfrwt>
<totfact> 0.92193942E+04</totfact>
</mgrwt>
</event>
<event>
 5    1  0.1265228E+001  0.9103740E+02  0.7546771E-02  0.1300359E+00
          1   -1    0    0  501    0  0.00000000000E+00  0.00000000000E+00  0.31396042450E+03  0.31396042450E+03  0.00000000000E+00 0. -1.
         -1   -1    0    0    0  501 -0.00000000000E+00 -0.00000000000E+00 -0.65994053937E+01  0.65994053937E+01  0.00000000000E+00 0.  1.
         23    2    1    2    0    0  0.00000000000E+00  0.00000000000E+00  0.30736101911E+03  0.32055982989E+03  0.91037401519E+02 0.  0.
        -11    1    3    3    0    0  0.32544812551E+02 -0.26685376959E+02  0.92622866292E+02  0.10173627439E+03  0.00000000000E+00 0.  1.
         11    1    3    3    0    0 -0.32544812551E+02  0.26685376959E+02  0.21473815282E+03  0.21882355550E+03  0.00000000000E+00 0. -1.
<mgrwt>
<rscale>  0 0.91037402E+02</rscale>
<asrwt>0</asrwt>
<pdfrwt beam="1">  1        1 0.48301592E-01 0.91037402E+02</pdfrwt>
<pdfrwt beam="2">  1       -1 0.10152934E-02 0.91037402E+02</pdfrwt>
<totfact> 0.12975774E+05</totfact>
</mgrwt>
</event>
<event>
 5    1  0.1265228E+001  0.9029212E+02  0.7546771E-02  0.1302146E+00
          1   -1    0    0  501    0  0.00000000000E+00  0.00000000000E+00  0.18840986528E+02  0.18840986528E+02  0.00000000000E+00 0. -1.
         -1   -1    0    0    0  501 -0.00000000000E+00 -0.00000000000E+00 -0.10817727171E+03  0.10817727171E+03  0.00000000000E+00 0.  1.
         23    2    1    2    0    0  0.00000000000E+00  0.00000000000E+00 -0.89336285178E+02  0.12701825823E+03  0.90292115246E+02 0.  0.
        -11    1    3    3    0    0 -0.10532847376E+02  0.43347473911E+02 -0.34899378690E+02  0.56638423365E+02  0.00000000000E+00 0. -1.
         11    1    3    3    0    0  0.10532847376E+02 -0.43347473911E+02 -0.54436906488E+02  0.70379834870E+02  0.00000000000E+00 0.  1.
<mgrwt>
<rscale>  0 0.90292115E+02</rscale>
<asrwt>0</asrwt>
<pdfrwt beam="1">  1        1 0.28986133E-02 0.90292115E+02</pdfrwt>
<pdfrwt beam="2">  1       -1 0.16642657E-01 0.90292115E+02</pdfrwt>
<totfact> 0.82207385E+04</totfact>
</mgrwt>
</event>
<event>
 5    1  0.1265228E+001  0.9507849E+02  0.7546771E-02  0.1290999E+00
          1   -1    0    0  501    0  0.00000000000E+00  0.00000000000E+00  0.16239257253E+03  0.16239257253E+03  0.00000000000E+00 0. -1.
         -1   -1    0    0    0  501 -0.00000000000E+00 -0.00000000000E+00 -0.13916767163E+02  0.13916767163E+02  0.00000000000E+00 0.  1.
         23    2    1    2    0    0  0.00000000000E+00  0.00000000000E+00  0.14847580537E+03  0.17630933970E+03  0.95078485913E+02 0.  0.
        -11    1    3    3    0    0 -0.44817010494E+02 -0.13235529829E+02  0.90428875577E+02  0.10178961252E+03  0.00000000000E+00 0.  1.
         11    1    3    3    0    0  0.44817010494E+02  0.13235529829E+02  0.58046929795E+02  0.74519727174E+02  0.00000000000E+00 0. -1.
<mgrwt>
<rscale>  0 0.95078486E+02</rscale>
<asrwt>0</asrwt>
<pdfrwt beam="1">  1        1 0.24983471E-01 0.95078486E+02</pdfrwt>
<pdfrwt beam="2">  1       -1 0.21410412E-02 0.95078486E+02</pdfrwt>
<totfact> 0.10161520E+05</totfact>
</mgrwt>
</event>
<event>
 5    1  0.1265228E+001  0.9115279E+02  0.7546771E-02  0.1300084E+00
          2   -1    0    0  501    0  0.00000000000E+00  0.00000000000E+00  0.13194958022E+02  0.13194958022E+02  0.00000000000E+00 0. -1.
         -2   -1    0    0    0  501 -0.00000000000E+00 -0.00000000000E+00 -0.15742434406E+03  0.15742434406E+03  0.00000000000E+00 0.  1.
         23    2    1    2    0    0  0.00000000000E+00  0.00000000000E+00 -0.14422938604E+03  0.17061930208E+03  0.91152786277E+02 0.  0.
        -11    1    3    3    0    0  0.17337415758E+02 -0.34292594240E+02 -0.11798854364E+03  0.12408813173E+03  0.00000000000E+00 0.  1.
         11    1    3    3    0    0 -0.17337415758E+02  0.34292594240E+02 -0.26240842397E+02  0.46531170355E+02  0.00000000000E+00 0. -1.
<mgrwt>
<rscale>  0 0.91152786E+02</rscale>
<asrwt>0</asrwt>
<pdfrwt beam="1">  1        2 0.20299936E-02 0.91152786E+02</pdfrwt>
<pdfrwt beam="2">  1       -2 0.24219129E-01 0.91152786E+02</pdfrwt>
<totfact> 0.68668236E+04</totfact>
</mgrwt>
</event>
<event>
 5    1  0.1265228E+001  0.8997709E+02  0.7546771E-02  0.1302907E+00
         -1   -1    0    0    0  501 -0.00000000000E+00  0.00000000000E+00  0.57153336378E+02  0.57153336378E+02  0.00000000000E+00 0.  1.
          1   -1    0    0  501    0  0.00000000000E+00 -0.00000000000E+00 -0.35412963432E+02  0.35412963432E+02  0.00000000000E+00 0. -1.
         23    2    1    2    0    0  0.00000000000E+00  0.00000000000E+00  0.21740372945E+02  0.92566299810E+02  0.89977086220E+02 0.  0.
        -11    1    3    3    0    0 -0.17265823215E+02 -0.38447391701E+01  0.53425708831E+02  0.56277855633E+02  0.00000000000E+00 0.  1.
         11    1    3    3    0    0  0.17265823215E+02  0.38447391701E+01 -0.31685335886E+02  0.36288444177E+02  0.00000000000E+00 0. -1.
<mgrwt>
<rscale>  0 0.89977086E+02</rscale>
<asrwt>0</asrwt>
<pdfrwt beam="2">  1        1 0.54481482E-02 0.89977086E+02</pdfrwt>
<pdfrwt beam="1">  1       -1 0.87928210E-02 0.89977086E+02</pdfrwt>
<totfact> 0.92394232E+04</totfact>
</mgrwt>
</event>
<event>
 5    1  0.1265228E+001  0.9148087E+02  0.7546771E-02  0.1299305E+00
          2   -1    0    0  501    0  0.00000000000E+00  0.00000000000E+00  0.83699743651E+02  0.83699743651E+02  0.00000000000E+00 0. -1.
         -2   -1    0    0    0  501 -0.00000000000E+00 -0.00000000000E+00 -0.24996343748E+02  0.24996343748E+02  0.00000000000E+00 0.  1.
         23    2    1    2    0    0  0.00000000000E+00  0.00000000000E+00  0.58703399903E+02  0.10869608740E+03  0.91480873716E+02 0.  0.
        -11    1    3    3    0    0 -0.44505914725E+02 -0.76606182079E+00  0.16843320630E+02  0.47592654329E+02  0.00000000000E+00 0.  1.
         11    1    3    3    0    0  0.44505914725E+02  0.76606182079E+00  0.41860079273E+02  0.61103433070E+02  0.00000000000E+00 0. -1.
<mgrwt>
<rscale>  0 0.91480874E+02</rscale>
<asrwt>0</asrwt>
<pdfrwt beam="1">  1        2 0.12876883E-01 0.91480874E+02</pdfrwt>
<pdfrwt beam="2">  1       -2 0.38455914E-02 0.91480874E+02</pdfrwt>
<totfact> 0.11528890E+05</totfact>
</mgrwt>
</event>
<event>
 5    1  0.1265228E+001  0.9188918E+02  0.7546771E-02  0.1298340E+00
         -1   -1    0    0    0  501 -0.00000000000E+00  0.00000000000E+00  0.42413156923E+02  0.42413156923E+02  0.00000000000E+00 0.  1.
          1   -1    0    0  501    0  0.00000000000E+00 -0.00000000000E+00 -0.49770061193E+02  0.49770061193E+02  0.00000000000E+00 0. -1.
         23    2    1    2    0    0  0.00000000000E+00  0.00000000000E+00 -0.73569042697E+01  0.92183218117E+02  0.91889181419E+02 0.  0.
        -11    1    3    3    0    0  0.14978325912E+02  0.43414689938E+02 -0.23628190713E+01  0.45986611785E+02  0.00000000000E+00 0. -1.
         11    1    3    3    0    0 -0.14978325912E+02 -0.43414689938E+02 -0.49940851984E+01  0.46196606331E+02  0.00000000000E+00 0.  1.
<mgrwt>
<rscale>  0 0.91889181E+02</rscale>
<asrwt>0</asrwt>
<pdfrwt beam="2">  1        1 0.76569325E-02 0.91889181E+02</pdfrwt>
<pdfrwt beam="1">  1       -1 0.65251011E-02 0.91889181E+02</pdfrwt>
<totfact> 0.91679150E+04</totfact>
</mgrwt>
</event>
<event>
 5    1  0.1265228E+001  0.9140098E+02  0.7546771E-02  0.1299494E+00
          1   -1    0    0  501    0  0.00000000000E+00  0.00000000000E+00  0.23065062448E+02  0.23065062448E+02  0.00000000000E+00 0. -1.
         -1   -1    0    0    0  501 -0.00000000000E+00 -0.00000000000E+00 -0.90549721212E+02  0.90549721212E+02  0.00000000000E+00 0.  1.
         23    2    1    2    0    0  0.00000000000E+00  0.00000000000E+00 -0.67484658764E+02  0.11361478366E+03  0.91400984118E+02 0.  0.
        -11    1    3    3    0    0  0.58416843840E+01  0.38094714529E+02 -0.64271535617E+02  0.74941062456E+02  0.00000000000E+00 0.  1.
         11    1    3    3    0    0 -0.58416843840E+01 -0.38094714529E+02 -0.32131231472E+01  0.38673721205E+02  0.00000000000E+00 0. -1.
<mgrwt>
<rscale>  0 0.91400984E+02</rscale>
<asrwt>0</asrwt>
<pdfrwt beam="1">  1        1 0.35484712E-02 0.91400984E+02</pdfrwt>
<pdfrwt beam="2">  1       -1 0.13930726E-01 0.91400984E+02</pdfrwt>
<totfact> 0.82330959E+04</totfact>
</mgrwt>
</event>
<event>
 5    1  0.1265228E+001  0.9265440E+02  0.7546771E-02  0.1296548E+00
         -1   -1    0    0    0  501 -0.00000000000E+00  0.00000000000E+00  0.39569736077E+02  0.39569736077E+02  0.00000000000E+00 0.  1.
          1   -1    0    0  501    0  0.00000000000E+00 -0.00000000000E+00 -0.54238660011E+02  0.54238660011E+02  0.00000000000E+00 0. -1.
         23    2    1    2    0    0  0.00000000000E+00  0.00000000000E+00 -0.14668923935E+02  0.93808396088E+02  0.92654400042E+02 0.  0.
        -11    1    3    3    0    0  0.17306783823E+02  0.10137146241E+02 -0.49614883669E+02  0.53515634927E+02  0.00000000000E+00 0. -1.
         11    1    3    3    0    0 -0.17306783823E+02 -0.10137146241E+02  0.34945959734E+02  0.40292761161E+02  0.00000000000E+00 0.  1.
<mgrwt>
<rscale>  0 0.92654400E+02</rscale>
<asrwt>0</asrwt>
<pdfrwt beam="2">  1        1 0.83444092E-02 0.92654400E+02</pdfrwt>
<pdfrwt beam="1">  1       -1 0.60876518E-02 0.92654400E+02</pdfrwt>
<totfact> 0.90751300E+04</totfact>
</mgrwt>
</event>
<event>
 5    1  0.1265228E+001  0.8917904E+02  0.7546771E-02  0.1304852E+00
         -3   -1    0    0    0  501 -0.00000000000E+00  0.00000000000E+00  0.13424970256E+03  0.13424970256E+03  0.00000000000E+00 0.  1.
          3   -1    0    0  501    0  0.00000000000E+00 -0.00000000000E+00 -0.14809903467E+02  0.14809903467E+02  0.00000000000E+00 0. -1.
         23    2    1    2    0    0  0.00000000000E+00  0.00000000000E+00  0.11943979909E+03  0.14905960602E+03  0.89179036445E+02 0.  0.
        -13    1    3    3    0    0 -0.42352307299E+02  0.91391394800E+01  0.77328549970E+02  0.88639418119E+02  0.00000000000E+00 0.  1.
         13    1    3    3    0    0  0.42352307299E+02 -0.91391394800E+01  0.42111249119E+02  0.60420187904E+02  0.00000000000E+00 0. -1.
<mgrwt>
<rscale>  0 0.89179036E+02</rscale>
<asrwt>0</asrwt>
<pdfrwt beam="2">  1        3 0.22784468E-02 0.89179036E+02</pdfrwt>
<pdfrwt beam="1">  1       -3 0.20653800E-01 0.89179036E+02</pdfrwt>
<totfact> 0.33299995E+04</totfact>
</mgrwt>
</event>
<event>
 5    1  0.1265228E+001  0.1006909E+03  0.7546771E-02  0.1278850E+00
         -1   -1    0    0    0  501 -0.00000000000E+00  0.00000000000E+00  0.35099684987E+03  0.35099684987E+03  0.00000000000E+00 0.  1.
          1   -1    0    0  501    0  0.00000000000E+00 -0.00000000000E+00 -0.72213303492E+01  0.72213303492E+01  0.00000000000E+00 0. -1.
         23    2    1    2    0    0  0.00000000000E+00  0.00000000000E+00  0.34377551952E+03  0.35821818022E+03  0.10069089739E+03 0.  0.
        -11    1    3    3    0    0  0.76247641104E+01 -0.49536674076E+02  0.18881727473E+03  0.19535603994E+03  0.00000000000E+00 0.  1.
         11    1    3    3    0    0 -0.76247641104E+01  0.49536674076E+02  0.15495824479E+03  0.16286214027E+03  0.00000000000E+00 0. -1.
<mgrwt>
<rscale>  0 0.10069090E+03</rscale>
<asrwt>0</asrwt>
<pdfrwt beam="2">  1        1 0.11109742E-02 0.10069090E+03</pdfrwt>
<pdfrwt beam="1">  1       -1 0.53999502E-01 0.10069090E+03</pdfrwt>
<totfact> 0.43692816E+04</totfact>
</mgrwt>
</event>
<event>
 5    1  0.1265228E+001  0.9014880E+02  0.7546771E-02  0.1302492E+00
         -1   -1    0    0    0  501 -0.00000000000E+00  0.00000000000E+00  0.10757769085E+02  0.10757769085E+02  0.00000000000E+00 0.  1.
          1   -1    0    0  501    0  0.00000000000E+00 -0.00000000000E+00 -0.18885901726E+03  0.18885901726E+03  0.00000000000E+00 0. -1.
         23    2    1    2    0    0  0.00000000000E+00  0.00000000000E+00 -0.17810124817E+03  0.19961678634E+03  0.90148803594E+02 0.  0.
        -13    1    3    3    0    0  0.18293154329E+02  0.33877801732E+02 -0.14095026170E+03  0.14611406921E+03  0.00000000000E+00 0. -1.
         13    1    3    3    0    0 -0.18293154329E+02 -0.33877801732E+02 -0.37150986468E+02  0.53502717137E+02  0.00000000000E+00 0.  1.
<mgrwt>
<rscale>  0 0.90148804E+02</rscale>
<asrwt>0</asrwt>
<pdfrwt beam="2">  1        1 0.29055233E-01 0.90148804E+02</pdfrwt>
<pdfrwt beam="1">  1       -1 0.16550414E-02 0.90148804E+02</pdfrwt>
<totfact> 0.12071647E+05</totfact>
</mgrwt>
</event>
<event>
 5    1  0.1265228E+001  0.9264845E+02  0.7546771E-02  0.1296562E+00
          1   -1    0    0  501    0  0.00000000000E+00  0.00000000000E+00  0.23484069205E+02  0.23484069205E+02  0.00000000000E+00 0. -1.
         -1   -1    0    0    0  501 -0.00000000000E+00 -0.00000000000E+00 -0.91378281514E+02  0.91378281514E+02  0.00000000000E+00 0.  1.
         23    2    1    2    0    0  0.00000000000E+00  0.00000000000E+00 -0.67894212309E+02  0.11486235072E+03  0.92648451404E+02 0.  0.
        -11    1    3    3    0    0 -0.31209594875E+02  0.31931301181E+02 -0.49246388680E+02  0.66474458293E+02  0.00000000000E+00 0.  1.
         11    1    3    3    0    0  0.31209594875E+02 -0.31931301181E+02 -0.18647823630E+02  0.48387892426E+02  0.00000000000E+00 0. -1.
<mgrwt>
<rscale>  0 0.92648451E+02</rscale>
<asrwt>0</asrwt>
<pdfrwt beam="1">  1        1 0.36129337E-02 0.92648451E+02</pdfrwt>
<pdfrwt beam="2">  1       -1 0.14058197E-01 0.92648451E+02</pdfrwt>
<totfact> 0.79380226E+04</totfact>
</mgrwt>
</event>
<event>
 5    1  0.1265228E+001  0.9283801E+02  0.7546771E-02  0.1296121E+00
         -3   -1    0    0    0  501 -0.00000000000E+00  0.00000000000E+00  0.61520610925E+02  0.61520610925E+02  0.00000000000E+00 0.  1.
          3   -1    0    0  501    0  0.00000000000E+00 -0.00000000000E+00 -0.35024425358E+02  0.35024425358E+02  0.00000000000E+00 0. -1.
         23    2    1    2    0    0  0.00000000000E+00  0.00000000000E+00  0.26496185567E+02  0.96545036283E+02  0.92838010433E+02 0.  0.
        -13    1    3    3    0    0  0.30819948968E+02  0.34674323403E+02  0.14907453424E+02  0.48727919363E+02  0.00000000000E+00 0. -1.
         13    1    3    3    0    0 -0.30819948968E+02 -0.34674323403E+02  0.11588732143E+02  0.47817116920E+02  0.00000000000E+00 0.  1.
<mgrwt>
<rscale>  0 0.92838010E+02</rscale>
<asrwt>0</asrwt>
<pdfrwt beam="2">  1        3 0.53883731E-02 0.92838010E+02</pdfrwt>
<pdfrwt beam="1">  1       -3 0.94647094E-02 0.92838010E+02</pdfrwt>
<totfact> 0.33250479E+04</totfact>
</mgrwt>
</event>
<event>
 5    1  0.1265228E+001  0.9724512E+02  0.7546771E-02  0.1286198E+00
          4   -1    0    0  501    0  0.00000000000E+00  0.00000000000E+00  0.60614757768E+02  0.60614757768E+02  0.00000000000E+00 0. -1.
         -4   -1    0    0    0  501 -0.00000000000E+00 -0.00000000000E+00 -0.39002932926E+02  0.39002932926E+02  0.00000000000E+00 0.  1.
         23    2    1    2    0    0  0.00000000000E+00  0.00000000000E+00  0.21611824843E+02  0.99617690694E+02  0.97245119806E+02 0.  0.
        -13    1    3    3    0    0 -0.29929230157E+02  0.34275549748E+02  0.28358161660E+02  0.53616764739E+02  0.00000000000E+00 0. -1.
         13    1    3    3    0    0  0.29929230157E+02 -0.34275549748E+02 -0.67463368169E+01  0.46000925955E+02  0.00000000000E+00 0.  1.
<mgrwt>
<rscale>  0 0.97245120E+02</rscale>
<asrwt>0</asrwt>
<pdfrwt beam="1">  1        4 0.93253474E-02 0.97245120E+02</pdfrwt>
<pdfrwt beam="2">  1       -4 0.60004512E-02 0.97245120E+02</pdfrwt>
<totfact> 0.22215395E+04</totfact>
</mgrwt>
</event>
<event>
 5    1  0.1265228E+001  0.8605388E+02  0.7546771E-02  0.1312699E+00
         -1   -1    0    0    0  501 -0.00000000000E+00  0.00000000000E+00  0.13366566845E+03  0.13366566845E+03  0.00000000000E+00 0.  1.
          1   -1    0    0  501    0  0.00000000000E+00 -0.00000000000E+00 -0.13850359031E+02  0.13850359031E+02  0.00000000000E+00 0. -1.
         23    2    1    2    0    0  0.00000000000E+00  0.00000000000E+00  0.11981530942E+03  0.14751602748E+03  0.86053878428E+02 0.  0.
        -11    1    3    3    0    0  0.25537674334E+02 -0.25861640421E+02  0.99384083919E+02  0.10582151668E+03  0.00000000000E+00 0.  1.
         11    1    3    3    0    0 -0.25537674334E+02  0.25861640421E+02  0.20431225502E+02  0.41694510804E+02  0.00000000000E+00 0. -1.
<mgrwt>
<rscale>  0 0.86053878E+02</rscale>
<asrwt>0</asrwt>
<pdfrwt beam="2">  1        1 0.21308246E-02 0.86053878E+02</pdfrwt>
<pdfrwt beam="1">  1       -1 0.20563948E-01 0.86053878E+02</pdfrwt>
<totfact> 0.89138573E+04</totfact>
</mgrwt>
</event>
<event>
 5    1  0.1265228E+001  0.9690344E+02  0.7546771E-02  0.1286946E+00
         -2   -1    0    0    0  501 -0.00000000000E+00  0.00000000000E+00  0.76146460861E+01  0.76146460861E+01  0.00000000000E+00 0.  1.
          2   -1    0    0  501    0  0.00000000000E+00 -0.00000000000E+00 -0.30829657869E+03  0.30829657869E+03  0.00000000000E+00 0. -1.
         23    2    1    2    0    0  0.00000000000E+00  0.00000000000E+00 -0.30068193260E+03  0.31591122478E+03  0.96903443412E+02 0.  0.
        -11    1    3    3    0    0 -0.26127287232E+02  0.34534562358E+02 -0.79491922516E+02  0.90522024285E+02  0.00000000000E+00 0.  1.
         11    1    3    3    0    0  0.26127287232E+02 -0.34534562358E+02 -0.22119001009E+03  0.22538920049E+03  0.00000000000E+00 0. -1.
<mgrwt>
<rscale>  0 0.96903443E+02</rscale>
<asrwt>0</asrwt>
<pdfrwt beam="2">  1        2 0.47430242E-01 0.96903443E+02</pdfrwt>
<pdfrwt beam="1">  1       -2 0.11714840E-02 0.96903443E+02</pdfrwt>
<totfact> 0.15418289E+05</totfact>
</mgrwt>
</event>
<event>
 5    1  0.1265228E+001  0.9231222E+02  0.7546771E-02  0.1297347E+00
         -3   -1    0    0    0  501 -0.00000000000E+00  0.00000000000E+00  0.42204618759E+02  0.42204618759E+02  0.00000000000E+00 0.  1.
          3   -1    0    0  501    0  0.00000000000E+00 -0.00000000000E+00 -0.50477568746E+02  0.50477568746E+02  0.00000000000E+00 0. -1.
         23    2    1    2    0    0  0.00000000000E+00  0.00000000000E+00 -0.82729499871E+01  0.92682187505E+02  0.92312221180E+02 0.  0.
        -11    1    3    3    0    0  0.19879753983E+02 -0.40520314891E+02  0.55607021214E+01  0.45475509292E+02  0.00000000000E+00 0.  1.
         11    1    3    3    0    0 -0.19879753983E+02  0.40520314891E+02 -0.13833652108E+02  0.47206678213E+02  0.00000000000E+00 0. -1.
<mgrwt>
<rscale>  0 0.92312221E+02</rscale>
<asrwt>0</asrwt>
<pdfrwt beam="2">  1        3 0.77657798E-02 0.92312221E+02</pdfrwt>
<pdfrwt beam="1">  1       -3 0.64930183E-02 0.92312221E+02</pdfrwt>
<totfact> 0.34052716E+04</totfact>
</mgrwt>
</event>
<event>
 5    1  0.1265228E+001  0.9179515E+02  0.7546771E-02  0.1298562E+00
          2   -1    0    0  501    0  0.00000000000E+00  0.00000000000E+00  0.17293200199E+02  0.17293200199E+02  0.00000000000E+00 0. -1.
         -2   -1    0    0    0  501 -0.00000000000E+00 -0.00000000000E+00 -0.12181593934E+03  0.12181593934E+03  0.00000000000E+00 0.  1.
         23    2    1    2    0    0  0.00000000000E+00  0.00000000000E+00 -0.10452273914E+03  0.13910913954E+03  0.91795150774E+02 0.  0.
        -13    1    3    3    0    0  0.27850164379E+02 -0.87104002252E+00  0.30091970081E+01  0.28025802991E+02  0.00000000000E+00 0. -1.
         13    1    3    3    0    0 -0.27850164379E+02  0.87104002252E+00 -0.10753193615E+03  0.11108333655E+03  0.00000000000E+00 0.  1.
<mgrwt>
<rscale>  0 0.91795151E+02</rscale>
<asrwt>0</asrwt>
<pdfrwt beam="1">  1        2 0.26604923E-02 0.91795151E+02</pdfrwt>
<pdfrwt beam="2">  1       -2 0.18740914E-01 0.91795151E+02</pdfrwt>
<totfact> 0.73785783E+04</totfact>
</mgrwt>
</event>
<event>
 5    1  0.1265228E+001  0.8921261E+02  0.7546771E-02  0.1304770E+00
          4   -1    0    0  501    0  0.00000000000E+00  0.00000000000E+00  0.31934552300E+02  0.31934552300E+02  0.00000000000E+00 0.  1.
         -4   -1    0    0    0  501 -0.00000000000E+00 -0.00000000000E+00 -0.62306253769E+02  0.62306253769E+02  0.00000000000E+00 0. -1.
         23    2    1    2    0    0  0.00000000000E+00  0.00000000000E+00 -0.30371701469E+02  0.94240806068E+02  0.89212607171E+02 0.  0.
        -13    1    3    3    0    0 -0.42695307963E+02  0.53565913082E+01 -0.27701175254E+01  0.43119090245E+02  0.00000000000E+00 0.  1.
         13    1    3    3    0    0  0.42695307963E+02 -0.53565913082E+01 -0.27601583944E+02  0.51121715823E+02  0.00000000000E+00 0. -1.
<mgrwt>
<rscale>  0 0.89212607E+02</rscale>
<asrwt>0</asrwt>
<pdfrwt beam="1">  1        4 0.49130081E-02 0.89212607E+02</pdfrwt>
<pdfrwt beam="2">  1       -4 0.95855774E-02 0.89212607E+02</pdfrwt>
<totfact> 0.28446769E+04</totfact>
</mgrwt>
</event>
<event>
 5    1  0.1265228E+001  0.9353229E+02  0.7546771E-02  0.1294516E+00
         -2   -1    0    0    0  501 -0.00000000000E+00  0.00000000000E+00  0.46227368236E+01  0.46227368236E+01  0.00000000000E+00 0. -1.
          2   -1    0    0  501    0  0.00000000000E+00 -0.00000000000E+00 -0.47311200912E+03  0.47311200912E+03  0.00000000000E+00 0.  1.
         23    2    1    2    0    0  0.00000000000E+00  0.00000000000E+00 -0.46848927229E+03  0.47773474594E+03  0.93532289744E+02 0.  0.
        -13    1    3    3    0    0 -0.33221619192E+02  0.32566622053E+02 -0.25863968727E+03  0.26279031315E+03  0.00000000000E+00 0. -1.
         13    1    3    3    0    0  0.33221619192E+02 -0.32566622053E+02 -0.20984958502E+03  0.21494443279E+03  0.00000000000E+00 0.  1.
<mgrwt>
<rscale>  0 0.93532290E+02</rscale>
<asrwt>0</asrwt>
<pdfrwt beam="2">  1        2 0.72786400E-01 0.93532290E+02</pdfrwt>
<pdfrwt beam="1">  1       -2 0.71119090E-03 0.93532290E+02</pdfrwt>
<totfact> 0.19775532E+05</totfact>
</mgrwt>
</event>
<event>
 5    1  0.1265228E+001  0.9132778E+02  0.7546771E-02  0.1299668E+00
         -1   -1    0    0    0  501 -0.00000000000E+00  0.00000000000E+00  0.98051900238E+02  0.98051900238E+02  0.00000000000E+00 0.  1.
          1   -1    0    0  501    0  0.00000000000E+00 -0.00000000000E+00 -0.21266197159E+02  0.21266197159E+02  0.00000000000E+00 0. -1.
         23    2    1    2    0    0  0.00000000000E+00  0.00000000000E+00  0.76785703079E+02  0.11931809740E+03  0.91327784212E+02 0.  0.
        -13    1    3    3    0    0 -0.17498102080E+02 -0.38024210752E+01  0.93273630562E+02  0.94976903196E+02  0.00000000000E+00 0.  1.
         13    1    3    3    0    0  0.17498102080E+02  0.38024210752E+01 -0.16487927483E+02  0.24341194201E+02  0.00000000000E+00 0. -1.
<mgrwt>
<rscale>  0 0.91327784E+02</rscale>
<asrwt>0</asrwt>
<pdfrwt beam="2">  1        1 0.32717227E-02 0.91327784E+02</pdfrwt>
<pdfrwt beam="1">  1       -1 0.15084907E-01 0.91327784E+02</pdfrwt>
<totfact> 0.81320109E+04</totfact>
</mgrwt>
</event>
<event>
 5    1  0.1265228E+001  0.9206309E+02  0.7546771E-02  0.1297931E+00
         -2   -1    0    0    0  501 -0.00000000000E+00  0.00000000000E+00  0.43285982501E+02  0.43285982501E+02  0.00000000000E+00 0. -1.
          2   -1    0    0  501    0  0.00000000000E+00 -0.00000000000E+00 -0.48951249763E+02  0.48951249763E+02  0.00000000000E+00 0.  1.
         23    2    1    2    0    0  0.00000000000E+00  0.00000000000E+00 -0.56652672621E+01  0.92237232263E+02  0.92063085775E+02 0.  0.
        -11    1    3    3    0    0  0.34214637944E+02 -0.13590489275E+02 -0.30517494551E+02  0.47819037235E+02  0.00000000000E+00 0.  1.
         11    1    3    3    0    0 -0.34214637944E+02  0.13590489275E+02  0.24852227289E+02  0.44418195029E+02  0.00000000000E+00 0. -1.
<mgrwt>
<rscale>  0 0.92063086E+02</rscale>
<asrwt>0</asrwt>
<pdfrwt beam="2">  1        2 0.75309615E-02 0.92063086E+02</pdfrwt>
<pdfrwt beam="1">  1       -2 0.66593819E-02 0.92063086E+02</pdfrwt>
<totfact> 0.97774638E+04</totfact>
</mgrwt>
</event>
<event>
 5    1  0.1265228E+001  0.9477874E+02  0.7546771E-02  0.1291675E+00
          3   -1    0    0  501    0  0.00000000000E+00  0.00000000000E+00  0.21429046388E+02  0.21429046388E+02  0.00000000000E+00 0. -1.
         -3   -1    0    0    0  501 -0.00000000000E+00 -0.00000000000E+00 -0.10479944849E+03  0.10479944849E+03  0.00000000000E+00 0.  1.
         23    2    1    2    0    0  0.00000000000E+00  0.00000000000E+00 -0.83370402103E+02  0.12622849488E+03  0.94778736923E+02 0.  0.
        -13    1    3    3    0    0 -0.53156189453E+01  0.45818569320E+02 -0.27208393411E+02  0.53552719551E+02  0.00000000000E+00 0. -1.
         13    1    3    3    0    0  0.53156189453E+01 -0.45818569320E+02 -0.56162008692E+02  0.72675775328E+02  0.00000000000E+00 0.  1.
<mgrwt>
<rscale>  0 0.94778737E+02</rscale>
<asrwt>0</asrwt>
<pdfrwt beam="1">  1        3 0.32967764E-02 0.94778737E+02</pdfrwt>
<pdfrwt beam="2">  1       -3 0.16122992E-01 0.94778737E+02</pdfrwt>
<totfact> 0.29538676E+04</totfact>
</mgrwt>
</event>
<event>
 5    1  0.1265228E+001  0.9065194E+02  0.7546771E-02  0.1301281E+00
         -1   -1    0    0    0  501 -0.00000000000E+00  0.00000000000E+00  0.15524429028E+02  0.15524429028E+02  0.00000000000E+00 0.  1.
          1   -1    0    0  501    0  0.00000000000E+00 -0.00000000000E+00 -0.13233616499E+03  0.13233616499E+03  0.00000000000E+00 0. -1.
         23    2    1    2    0    0  0.00000000000E+00  0.00000000000E+00 -0.11681173596E+03  0.14786059402E+03  0.90651936576E+02 0.  0.
        -13    1    3    3    0    0  0.14499447050E+02  0.32949644365E+02 -0.10332815393E+03  0.10941947004E+03  0.00000000000E+00 0. -1.
         13    1    3    3    0    0 -0.14499447050E+02 -0.32949644365E+02 -0.13483582032E+02  0.38441123981E+02  0.00000000000E+00 0.  1.
<mgrwt>
<rscale>  0 0.90651937E+02</rscale>
<asrwt>0</asrwt>
<pdfrwt beam="2">  1        1 0.20359411E-01 0.90651937E+02</pdfrwt>
<pdfrwt beam="1">  1       -1 0.23883736E-02 0.90651937E+02</pdfrwt>
<totfact> 0.11133900E+05</totfact>
</mgrwt>
</event>
<event>
 5    1  0.1265228E+001  0.9093285E+02  0.7546771E-02  0.1300608E+00
          1   -1    0    0  501    0  0.00000000000E+00  0.00000000000E+00  0.16171865316E+02  0.16171865316E+02  0.00000000000E+00 0. -1.
         -1   -1    0    0    0  501 -0.00000000000E+00 -0.00000000000E+00 -0.12782666423E+03  0.12782666423E+03  0.00000000000E+00 0.  1.
         23    2    1    2    0    0  0.00000000000E+00  0.00000000000E+00 -0.11165479892E+03  0.14399852955E+03  0.90932845503E+02 0.  0.
        -13    1    3    3    0    0  0.23214908099E+02  0.31669200219E+02 -0.92122790073E+02  0.10014229202E+03  0.00000000000E+00 0.  1.
         13    1    3    3    0    0 -0.23214908099E+02 -0.31669200219E+02 -0.19532008843E+02  0.43856237527E+02  0.00000000000E+00 0. -1.
<mgrwt>
<rscale>  0 0.90932846E+02</rscale>
<asrwt>0</asrwt>
<pdfrwt beam="1">  1        1 0.24879792E-02 0.90932846E+02</pdfrwt>
<pdfrwt beam="2">  1       -1 0.19665641E-01 0.90932846E+02</pdfrwt>
<totfact> 0.78042623E+04</totfact>
</mgrwt>
</event>
<event>
 5    1  0.1265228E+001  0.5568607E+02  0.7546771E-02  0.1416882E+00
          1   -1    0    0  501    0  0.00000000000E+00  0.00000000000E+00  0.16304545179E+02  0.16304545179E+02  0.00000000000E+00 0.  1.
         -1   -1    0    0    0  501 -0.00000000000E+00 -0.00000000000E+00 -0.47547143199E+02  0.47547143199E+02  0.00000000000E+00 0. -1.
         23    2    1    2    0    0  0.00000000000E+00  0.00000000000E+00 -0.31242598020E+02  0.63851688378E+02  0.55686068075E+02 0.  0.
        -13    1    3    3    0    0  0.15736190084E+02 -0.47311954366E+01  0.10151835492E+02  0.19315062839E+02  0.00000000000E+00 0.  1.
         13    1    3    3    0    0 -0.15736190084E+02  0.47311954366E+01 -0.41394433512E+02  0.44536625539E+02  0.00000000000E+00 0. -1.
<mgrwt>
<rscale>  0 0.55686068E+02</rscale>
<asrwt>0</asrwt>
<pdfrwt beam="1">  1        1 0.25083916E-02 0.55686068E+02</pdfrwt>
<pdfrwt beam="2">  1       -1 0.73149450E-02 0.55686068E+02</pdfrwt>
<totfact> 0.31510776E+05</totfact>
</mgrwt>
</event>
<event>
 5    1  0.1265228E+001  0.9151839E+02  0.7546771E-02  0.1299216E+00
          4   -1    0    0  501    0  0.00000000000E+00  0.00000000000E+00  0.15747108037E+02  0.15747108037E+02  0.00000000000E+00 0. -1.
         -4   -1    0    0    0  501 -0.00000000000E+00 -0.00000000000E+00 -0.13297070898E+03  0.13297070898E+03  0.00000000000E+00 0.  1.
         23    2    1    2    0    0  0.00000000000E+00  0.00000000000E+00 -0.11722360094E+03  0.14871781701E+03  0.91518394216E+02 0.  0.
        -11    1    3    3    0    0  0.36875737243E+02 -0.26473326333E+02 -0.49241972923E+02  0.66973344710E+02  0.00000000000E+00 0.  1.
         11    1    3    3    0    0 -0.36875737243E+02  0.26473326333E+02 -0.67981628017E+02  0.81744472303E+02  0.00000000000E+00 0. -1.
<mgrwt>
<rscale>  0 0.91518394E+02</rscale>
<asrwt>0</asrwt>
<pdfrwt beam="1">  1        4 0.24226320E-02 0.91518394E+02</pdfrwt>
<pdfrwt beam="2">  1       -4 0.20457032E-01 0.91518394E+02</pdfrwt>
<totfact> 0.23499461E+04</totfact>
</mgrwt>
</event>
<event>
 5    1  0.1265228E+001  0.8778849E+02  0.7546771E-02  0.1308297E+00
          4   -1    0    0  501    0  0.00000000000E+00  0.00000000000E+00  0.28982111000E+02  0.28982111000E+02  0.00000000000E+00 0. -1.
         -4   -1    0    0    0  501 -0.00000000000E+00 -0.00000000000E+00 -0.66479109236E+02  0.66479109236E+02  0.00000000000E+00 0.  1.
         23    2    1    2    0    0  0.00000000000E+00  0.00000000000E+00 -0.37496998235E+02  0.95461220236E+02  0.87788494077E+02 0.  0.
        -13    1    3    3    0    0  0.27665820617E+02 -0.63485568447E+01  0.17659163051E+02  0.33429744900E+02  0.00000000000E+00 0. -1.
         13    1    3    3    0    0 -0.27665820617E+02  0.63485568447E+01 -0.55156161287E+02  0.62031475336E+02  0.00000000000E+00 0.  1.
<mgrwt>
<rscale>  0 0.87788494E+02</rscale>
<asrwt>0</asrwt>
<pdfrwt beam="1">  1        4 0.44587864E-02 0.87788494E+02</pdfrwt>
<pdfrwt beam="2">  1       -4 0.10227555E-01 0.87788494E+02</pdfrwt>
<totfact> 0.29621992E+04</totfact>
</mgrwt>
</event>
<event>
 5    1  0.1265228E+001  0.8952041E+02  0.7546771E-02  0.1304017E+00
         -1   -1    0    0    0  501 -0.00000000000E+00  0.00000000000E+00  0.13560531261E+03  0.13560531261E+03  0.00000000000E+00 0.  1.
          1   -1    0    0  501    0  0.00000000000E+00 -0.00000000000E+00 -0.14774318628E+02  0.14774318628E+02  0.00000000000E+00 0. -1.
         23    2    1    2    0    0  0.00000000000E+00  0.00000000000E+00  0.12083099398E+03  0.15037963124E+03  0.89520413229E+02 0.  0.
        -11    1    3    3    0    0 -0.23515467381E+02 -0.33228364500E+02  0.91679170575E+02  0.10031037698E+03  0.00000000000E+00 0.  1.
         11    1    3    3    0    0  0.23515467381E+02  0.33228364500E+02  0.29151823403E+02  0.50069254250E+02  0.00000000000E+00 0. -1.
<mgrwt>
<rscale>  0 0.89520413E+02</rscale>
<asrwt>0</asrwt>
<pdfrwt beam="2">  1        1 0.22729722E-02 0.89520413E+02</pdfrwt>
<pdfrwt beam="1">  1       -1 0.20862355E-01 0.89520413E+02</pdfrwt>
<totfact> 0.80238434E+04</totfact>
</mgrwt>
</event>
<event>
 5    1  0.1265228E+001  0.9644506E+02  0.7546771E-02  0.1287954E+00
          2   -1    0    0  501    0  0.00000000000E+00  0.00000000000E+00  0.38677363708E+02  0.38677363708E+02  0.00000000000E+00 0. -1.
         -2   -1    0    0    0  501 -0.00000000000E+00 -0.00000000000E+00 -0.60123344006E+02  0.60123344006E+02  0.00000000000E+00 0.  1.
         23    2    1    2    0    0  0.00000000000E+00  0.00000000000E+00 -0.21445980299E+02  0.98800707714E+02  0.96445060909E+02 0.  0.
        -13    1    3    3    0    0 -0.20654101370E+02  0.25339577042E+02 -0.47039192619E+02  0.57283258552E+02  0.00000000000E+00 0.  1.
         13    1    3    3    0    0  0.20654101370E+02 -0.25339577042E+02  0.25593212320E+02  0.41517449162E+02  0.00000000000E+00 0. -1.
<mgrwt>
<rscale>  0 0.96445061E+02</rscale>
<asrwt>0</asrwt>
<pdfrwt beam="1">  1        2 0.59503637E-02 0.96445061E+02</pdfrwt>
<pdfrwt beam="2">  1       -2 0.92497452E-02 0.96445061E+02</pdfrwt>
<totfact> 0.80233588E+04</totfact>
</mgrwt>
</event>
<event>
 4    1  0.1265228E+001  0.3953976E+02  0.7546771E-02  0.1511626E+00
         -4   -1    0    0    0  501 -0.00000000000E+00  0.00000000000E+00  0.15538830849E+02  0.15538830849E+02  0.00000000000E+00 0.  1.
          4   -1    0    0  501    0  0.00000000000E+00 -0.00000000000E+00 -0.25152995373E+02  0.25152995373E+02  0.00000000000E+00 0. -1.
        -11    1    1    2    0    0 -0.18547923003E+02  0.35768419057E+01 -0.10810479514E+02  0.21764322021E+02  0.00000000000E+00 0. -1.
         11    1    1    2    0    0  0.18547923003E+02 -0.35768419057E+01  0.11963149901E+01  0.18927504201E+02  0.00000000000E+00 0.  1.
<mgrwt>
<rscale>  0 0.39539759E+02</rscale>
<asrwt>0</asrwt>
<pdfrwt beam="2">  1        4 0.38696916E-02 0.39539759E+02</pdfrwt>
<pdfrwt beam="1">  1       -4 0.23905894E-02 0.39539759E+02</pdfrwt>
<totfact> 0.26331683E+05</totfact>
</mgrwt>
</event>
<event>
 5    1  0.1265228E+001  0.9036396E+02  0.7546771E-02  0.1301973E+00
         -2   -1    0    0    0  501 -0.00000000000E+00  0.00000000000E+00  0.72396646956E+02  0.72396646956E+02  0.00000000000E+00 0.  1.
          2   -1    0    0  501    0  0.00000000000E+00 -0.00000000000E+00 -0.28197595035E+02  0.28197595035E+02  0.00000000000E+00 0. -1.
         23    2    1    2    0    0  0.00000000000E+00  0.00000000000E+00  0.44199051921E+02  0.10059424199E+03  0.90363960355E+02 0.  0.
        -13    1    3    3    0    0  0.17842003136E+02  0.38765671827E+01  0.68106927875E+02  0.70511832153E+02  0.00000000000E+00 0.  1.
         13    1    3    3    0    0 -0.17842003136E+02 -0.38765671827E+01 -0.23907875954E+02  0.30082409838E+02  0.00000000000E+00 0. -1.
<mgrwt>
<rscale>  0 0.90363960E+02</rscale>
<asrwt>0</asrwt>
<pdfrwt beam="2">  1        2 0.43380916E-02 0.90363960E+02</pdfrwt>
<pdfrwt beam="1">  1       -2 0.11137946E-01 0.90363960E+02</pdfrwt>
<totfact> 0.89358481E+04</totfact>
</mgrwt>
</event>
<event>
 5    1  0.1265228E+001  0.9342109E+02  0.7546771E-02  0.1294772E+00
          1   -1    0    0  501    0  0.00000000000E+00  0.00000000000E+00  0.18086379810E+03  0.18086379810E+03  0.00000000000E+00 0. -1.
         -1   -1    0    0    0  501 -0.00000000000E+00 -0.00000000000E+00 -0.12063637069E+02  0.12063637069E+02  0.00000000000E+00 0.  1.
         23    2    1    2    0    0  0.00000000000E+00  0.00000000000E+00  0.16880016103E+03  0.19292743517E+03  0.93421094391E+02 0.  0.
        -13    1    3    3    0    0  0.18420545760E+02 -0.24973409209E+02  0.15649934925E+03  0.15954633807E+03  0.00000000000E+00 0. -1.
         13    1    3    3    0    0 -0.18420545760E+02  0.24973409209E+02  0.12300811781E+02  0.33381097107E+02  0.00000000000E+00 0.  1.
<mgrwt>
<rscale>  0 0.93421094E+02</rscale>
<asrwt>0</asrwt>
<pdfrwt beam="1">  1        1 0.27825198E-01 0.93421094E+02</pdfrwt>
<pdfrwt beam="2">  1       -1 0.18559443E-02 0.93421094E+02</pdfrwt>
<totfact> 0.10877229E+05</totfact>
</mgrwt>
</event>
<event>
 5    1  0.1265228E+001  0.7882479E+02  0.7546771E-02  0.1332420E+00
          1   -1    0    0  501    0  0.00000000000E+00  0.00000000000E+00  0.98114375282E+02  0.98114375282E+02  0.00000000000E+00 0. -1.
         -1   -1    0    0    0  501 -0.00000000000E+00 -0.00000000000E+00 -0.15831897804E+02  0.15831897804E+02  0.00000000000E+00 0.  1.
         23    2    1    2    0    0  0.00000000000E+00  0.00000000000E+00  0.82282477478E+02  0.11394627309E+03  0.78824787030E+02 0.  0.
        -11    1    3    3    0    0  0.85909345902E+01  0.19597140878E+02  0.88986669853E+02  0.91523109100E+02  0.00000000000E+00 0. -1.
         11    1    3    3    0    0 -0.85909345902E+01 -0.19597140878E+02 -0.67041923754E+01  0.22423163986E+02  0.00000000000E+00 0.  1.
<mgrwt>
<rscale>  0 0.78824787E+02</rscale>
<asrwt>0</asrwt>
<pdfrwt beam="1">  1        1 0.15094519E-01 0.78824787E+02</pdfrwt>
<pdfrwt beam="2">  1       -1 0.24356766E-02 0.78824787E+02</pdfrwt>
<totfact> 0.15426852E+05</totfact>
</mgrwt>
</event>
<event>
 5    1  0.1265228E+001  0.9130791E+02  0.7546771E-02  0.1299715E+00
          2   -1    0    0  501    0  0.00000000000E+00  0.00000000000E+00  0.71235070925E+02  0.71235070925E+02  0.00000000000E+00 0. -1.
         -2   -1    0    0    0  501 -0.00000000000E+00 -0.00000000000E+00 -0.29259232161E+02  0.29259232161E+02  0.00000000000E+00 0.  1.
         23    2    1    2    0    0  0.00000000000E+00  0.00000000000E+00  0.41975838765E+02  0.10049430309E+03  0.91307907176E+02 0.  0.
        -11    1    3    3    0    0  0.14797379550E+02 -0.23005101450E+02 -0.19242106936E+02  0.33443322407E+02  0.00000000000E+00 0.  1.
         11    1    3    3    0    0 -0.14797379550E+02  0.23005101450E+02  0.61217945701E+02  0.67050980680E+02  0.00000000000E+00 0. -1.
<mgrwt>
<rscale>  0 0.91307907E+02</rscale>
<asrwt>0</asrwt>
<pdfrwt beam="1">  1        2 0.10959242E-01 0.91307907E+02</pdfrwt>
<pdfrwt beam="2">  1       -2 0.45014204E-02 0.91307907E+02</pdfrwt>
<totfact> 0.11071197E+05</totfact>
</mgrwt>
</event>
<event>
 5    1  0.1265228E+001  0.1110732E+03  0.7546771E-02  0.1258595E+00
         -2   -1    0    0    0  501 -0.00000000000E+00  0.00000000000E+00  0.72456193533E+02  0.72456193533E+02  0.00000000000E+00 0.  1.
          2   -1    0    0  501    0  0.00000000000E+00 -0.00000000000E+00 -0.42567966310E+02  0.42567966310E+02  0.00000000000E+00 0. -1.
         23    2    1    2    0    0  0.00000000000E+00  0.00000000000E+00  0.29888227223E+02  0.11502415984E+03  0.11107317958E+03 0.  0.
        -11    1    3    3    0    0 -0.32555686169E+00  0.42081794128E+02  0.52473088551E+02  0.67263722811E+02  0.00000000000E+00 0.  1.
         11    1    3    3    0    0  0.32555686169E+00 -0.42081794128E+02 -0.22584861329E+02  0.47760437033E+02  0.00000000000E+00 0. -1.
<mgrwt>
<rscale>  0 0.11107318E+03</rscale>
<asrwt>0</asrwt>
<pdfrwt beam="2">  1        2 0.65489179E-02 0.11107318E+03</pdfrwt>
<pdfrwt beam="1">  1       -2 0.11147107E-01 0.11107318E+03</pdfrwt>
<totfact> 0.54153390E+04</totfact>
</mgrwt>
</event>
<event>
 5    1  0.1265228E+001  0.8925654E+02  0.7546771E-02  0.1304662E+00
          1   -1    0    0  501    0  0.00000000000E+00  0.00000000000E+00  0.59363125254E+02  0.59363125254E+02  0.00000000000E+00 0. -1.
         -1   -1    0    0    0  501 -0.00000000000E+00 -0.00000000000E+00 -0.33550835525E+02  0.33550835525E+02  0.00000000000E+00 0.  1.
         23    2    1    2    0    0  0.00000000000E+00  0.00000000000E+00  0.25812289729E+02  0.92913960779E+02  0.89256539293E+02 0.  0.
        -13    1    3    3    0    0  0.42697708050E+02  0.12949271712E+02  0.11916099550E+02  0.46181937368E+02  0.00000000000E+00 0.  1.
         13    1    3    3    0    0 -0.42697708050E+02 -0.12949271712E+02  0.13896190179E+02  0.46732023411E+02  0.00000000000E+00 0. -1.
<mgrwt>
<rscale>  0 0.89256539E+02</rscale>
<asrwt>0</asrwt>
<pdfrwt beam="1">  1        1 0.91327885E-02 0.89256539E+02</pdfrwt>
<pdfrwt beam="2">  1       -1 0.51616670E-02 0.89256539E+02</pdfrwt>
<totfact> 0.10205569E+05</totfact>
</mgrwt>
</event>
<event>
 5    1  0.1265228E+001  0.8965670E+02  0.7546771E-02  0.1303685E+00
         -2   -1    0    0    0  501 -0.00000000000E+00  0.00000000000E+00  0.61780088036E+01  0.61780088036E+01  0.00000000000E+00 0.  1.
          2   -1    0    0  501    0  0.00000000000E+00 -0.00000000000E+00 -0.32527970559E+03  0.32527970559E+03  0.00000000000E+00 0. -1.
         23    2    1    2    0    0  0.00000000000E+00  0.00000000000E+00 -0.31910169679E+03  0.33145771440E+03  0.89656698239E+02 0.  0.
        -11    1    3    3    0    0  0.31339758798E+02 -0.28091205334E+02 -0.21661894204E+03  0.22066957731E+03  0.00000000000E+00 0. -1.
         11    1    3    3    0    0 -0.31339758798E+02  0.28091205334E+02 -0.10248275475E+03  0.11078813709E+03  0.00000000000E+00 0.  1.
<mgrwt>
<rscale>  0 0.89656698E+02</rscale>
<asrwt>0</asrwt>
<pdfrwt beam="2">  1        2 0.50043037E-01 0.89656698E+02</pdfrwt>
<pdfrwt beam="1">  1       -2 0.95046279E-03 0.89656698E+02</pdfrwt>
<totfact> 0.19360718E+05</totfact>
</mgrwt>
</event>
<event>
 5    1  0.1265228E+001  0.8898038E+02  0.7546771E-02  0.1305340E+00
         -1   -1    0    0    0  501 -0.00000000000E+00  0.00000000000E+00  0.66171940912E+02  0.66171940912E+02  0.00000000000E+00 0.  1.
          1   -1    0    0  501    0  0.00000000000E+00 -0.00000000000E+00 -0.29912636577E+02  0.29912636577E+02  0.00000000000E+00 0. -1.
         23    2    1    2    0    0  0.00000000000E+00  0.00000000000E+00  0.36259304334E+02  0.96084577489E+02  0.88980384807E+02 0.  0.
        -13    1    3    3    0    0 -0.40266667117E+01 -0.29382546791E+02  0.53941110932E+02  0.61556409491E+02  0.00000000000E+00 0.  1.
         13    1    3    3    0    0  0.40266667117E+01  0.29382546791E+02 -0.17681806598E+02  0.34528167998E+02  0.00000000000E+00 0. -1.
<mgrwt>
<rscale>  0 0.88980385E+02</rscale>
<asrwt>0</asrwt>
<pdfrwt beam="2">  1        1 0.46019441E-02 0.88980385E+02</pdfrwt>
<pdfrwt beam="1">  1       -1 0.10180299E-01 0.88980385E+02</pdfrwt>
<totfact> 0.92907585E+04</totfact>
</mgrwt>
</event>
<event>
 5    1  0.1265228E+001  0.8139863E+02  0.7546771E-02  0.1325129E+00
         -1   -1    0    0    0  501 -0.00000000000E+00  0.00000000000E+00  0.24702449324E+03  0.24702449324E+03  0.00000000000E+00 0. -1.
          1   -1    0    0  501    0  0.00000000000E+00 -0.00000000000E+00 -0.67055459080E+01  0.67055459080E+01  0.00000000000E+00 0.  1.
         23    2    1    2    0    0  0.00000000000E+00  0.00000000000E+00  0.24031894733E+03  0.25373003915E+03  0.81398626028E+02 0.  0.
        -13    1    3    3    0    0  0.29223520400E+02 -0.16335028108E+02  0.48020536181E+02  0.58539039819E+02  0.00000000000E+00 0.  1.
         13    1    3    3    0    0 -0.29223520400E+02  0.16335028108E+02  0.19229841115E+03  0.19519099933E+03  0.00000000000E+00 0. -1.
<mgrwt>
<rscale>  0 0.81398626E+02</rscale>
<asrwt>0</asrwt>
<pdfrwt beam="2">  1        1 0.10316226E-02 0.81398626E+02</pdfrwt>
<pdfrwt beam="1">  1       -1 0.38003761E-01 0.81398626E+02</pdfrwt>
<totfact> 0.87334835E+04</totfact>
</mgrwt>
</event>
<event>
 5    1  0.1265228E+001  0.9144366E+02  0.7546771E-02  0.1299393E+00
         -1   -1    0    0    0  501 -0.00000000000E+00  0.00000000000E+00  0.45050870115E+02  0.45050870115E+02  0.00000000000E+00 0.  1.
          1   -1    0    0  501    0  0.00000000000E+00 -0.00000000000E+00 -0.46402784544E+02  0.46402784544E+02  0.00000000000E+00 0. -1.
         23    2    1    2    0    0  0.00000000000E+00  0.00000000000E+00 -0.13519144290E+01  0.91453654659E+02  0.91443661770E+02 0.  0.
        -13    1    3    3    0    0 -0.24676158847E+02  0.16258414423E+02  0.34216778654E+02  0.45211025164E+02  0.00000000000E+00 0.  1.
         13    1    3    3    0    0  0.24676158847E+02 -0.16258414423E+02 -0.35568693083E+02  0.46242629495E+02  0.00000000000E+00 0. -1.
<mgrwt>
<rscale>  0 0.91443662E+02</rscale>
<asrwt>0</asrwt>
<pdfrwt beam="2">  1        1 0.71388899E-02 0.91443662E+02</pdfrwt>
<pdfrwt beam="1">  1       -1 0.69309031E-02 0.91443662E+02</pdfrwt>
<totfact> 0.91960994E+04</totfact>
</mgrwt>
</event>
<event>
 5    1  0.1265228E+001  0.9087674E+02  0.7546771E-02  0.1300742E+00
          1   -1    0    0  501    0  0.00000000000E+00  0.00000000000E+00  0.15127100135E+03  0.15127100135E+03  0.00000000000E+00 0. -1.
         -1   -1    0    0    0  501 -0.00000000000E+00 -0.00000000000E+00 -0.13648652213E+02  0.13648652213E+02  0.00000000000E+00 0.  1.
         23    2    1    2    0    0  0.00000000000E+00  0.00000000000E+00  0.13762234914E+03  0.16491965356E+03  0.90876736020E+02 0.  0.
        -13    1    3    3    0    0  0.39441046154E+01 -0.30225463201E+02  0.76585206887E+01  0.31429087261E+02  0.00000000000E+00 0.  1.
         13    1    3    3    0    0 -0.39441046154E+01  0.30225463201E+02  0.12996382845E+03  0.13349056630E+03  0.00000000000E+00 0. -1.
<mgrwt>
<rscale>  0 0.90876736E+02</rscale>
<asrwt>0</asrwt>
<pdfrwt beam="1">  1        1 0.23272461E-01 0.90876736E+02</pdfrwt>
<pdfrwt beam="2">  1       -1 0.20997928E-02 0.90876736E+02</pdfrwt>
<totfact> 0.11330987E+05</totfact>
</mgrwt>
</event>
<event>
 5    1  0.1265228E+001  0.9127034E+02  0.7546771E-02  0.1299804E+00
          1   -1    0    0  501    0  0.00000000000E+00  0.00000000000E+00  0.26742733810E+03  0.26742733810E+03  0.00000000000E+00 0. -1.
         -1   -1    0    0    0  501 -0.00000000000E+00 -0.00000000000E+00 -0.77874185616E+01  0.77874185616E+01  0.00000000000E+00 0.  1.
         23    2    1    2    0    0  0.00000000000E+00  0.00000000000E+00  0.25963991954E+03  0.27521475666E+03  0.91270337275E+02 0.  0.
        -11    1    3    3    0    0  0.14622089688E+02 -0.42108072521E+02  0.15931422118E+03  0.16543251297E+03  0.00000000000E+00 0. -1.
         11    1    3    3    0    0 -0.14622089688E+02  0.42108072521E+02  0.10032569836E+03  0.10978224369E+03  0.00000000000E+00 0.  1.
<mgrwt>
<rscale>  0 0.91270337E+02</rscale>
<asrwt>0</asrwt>
<pdfrwt beam="1">  1        1 0.41142660E-01 0.91270337E+02</pdfrwt>
<pdfrwt beam="2">  1       -1 0.11980646E-02 0.91270337E+02</pdfrwt>
<totfact> 0.12496549E+05</totfact>
</mgrwt>
</event>
<event>
 5    1  0.1265228E+001  0.9296544E+02  0.7546771E-02  0.1295825E+00
          4   -1    0    0  501    0  0.00000000000E+00  0.00000000000E+00  0.10105903814E+02  0.10105903814E+02  0.00000000000E+00 0. -1.
         -4   -1    0    0    0  501 -0.00000000000E+00 -0.00000000000E+00 -0.21380009628E+03  0.21380009628E+03  0.00000000000E+00 0.  1.
         23    2    1    2    0    0  0.00000000000E+00  0.00000000000E+00 -0.20369419247E+03  0.22390600010E+03  0.92965438921E+02 0.  0.
        -13    1    3    3    0    0 -0.21317997886E+02 -0.23169024473E+02 -0.18420826462E+03  0.18687949455E+03  0.00000000000E+00 0.  1.
         13    1    3    3    0    0  0.21317997886E+02  0.23169024473E+02 -0.19485927850E+02  0.37026505548E+02  0.00000000000E+00 0. -1.
<mgrwt>
<rscale>  0 0.92965439E+02</rscale>
<asrwt>0</asrwt>
<pdfrwt beam="1">  1        4 0.15547543E-02 0.92965439E+02</pdfrwt>
<pdfrwt beam="2">  1       -4 0.32892324E-01 0.92965439E+02</pdfrwt>
<totfact> 0.19391126E+04</totfact>
</mgrwt>
</event>
<event>
 5    1  0.1265228E+001  0.9210018E+02  0.7546771E-02  0.1297844E+00
          1   -1    0    0  501    0  0.00000000000E+00  0.00000000000E+00  0.13737032336E+03  0.13737032336E+03  0.00000000000E+00 0. -1.
         -1   -1    0    0    0  501 -0.00000000000E+00 -0.00000000000E+00 -0.15437183625E+02  0.15437183625E+02  0.00000000000E+00 0.  1.
         23    2    1    2    0    0  0.00000000000E+00  0.00000000000E+00  0.12193313973E+03  0.15280750698E+03  0.92100182547E+02 0.  0.
        -13    1    3    3    0    0 -0.34420286180E+02 -0.21227985288E+02  0.24419136878E+02  0.47240636172E+02  0.00000000000E+00 0.  1.
         13    1    3    3    0    0  0.34420286180E+02  0.21227985288E+02  0.97514002854E+02  0.10556687081E+03  0.00000000000E+00 0. -1.
<mgrwt>
<rscale>  0 0.92100183E+02</rscale>
<asrwt>0</asrwt>
<pdfrwt beam="1">  1        1 0.21133895E-01 0.92100183E+02</pdfrwt>
<pdfrwt beam="2">  1       -1 0.23749514E-02 0.92100183E+02</pdfrwt>
<totfact> 0.10738196E+05</totfact>
</mgrwt>
</event>
<event>
 5    1  0.1265228E+001  0.8864975E+02  0.7546771E-02  0.1306155E+00
          2   -1    0    0  501    0  0.00000000000E+00  0.00000000000E+00  0.46236820544E+02  0.46236820544E+02  0.00000000000E+00 0. -1.
         -2   -1    0    0    0  501 -0.00000000000E+00 -0.00000000000E+00 -0.42491987695E+02  0.42491987695E+02  0.00000000000E+00 0.  1.
         23    2    1    2    0    0  0.00000000000E+00  0.00000000000E+00  0.37448328490E+01  0.88728808239E+02  0.88649746973E+02 0.  0.
        -11    1    3    3    0    0 -0.29653292805E+01 -0.40700530581E+02 -0.15445269804E+02  0.43633504634E+02  0.00000000000E+00 0. -1.
         11    1    3    3    0    0  0.29653292805E+01  0.40700530581E+02  0.19190102653E+02  0.45095303604E+02  0.00000000000E+00 0.  1.
<mgrwt>
<rscale>  0 0.88649747E+02</rscale>
<asrwt>0</asrwt>
<pdfrwt beam="1">  1        2 0.71133571E-02 0.88649747E+02</pdfrwt>
<pdfrwt beam="2">  1       -2 0.65372288E-02 0.88649747E+02</pdfrwt>
<totfact> 0.10731684E+05</totfact>
</mgrwt>
</event>
<event>
 5    1  0.1265228E+001  0.9136606E+02  0.7546771E-02  0.1299577E+00
          2   -1    0    0  501    0  0.00000000000E+00  0.00000000000E+00  0.72454703052E+02  0.72454703052E+02  0.00000000000E+00 0. -1.
         -2   -1    0    0    0  501 -0.00000000000E+00 -0.00000000000E+00 -0.28803362047E+02  0.28803362047E+02  0.00000000000E+00 0.  1.
         23    2    1    2    0    0  0.00000000000E+00  0.00000000000E+00  0.43651341004E+02  0.10125806510E+03  0.91366055930E+02 0.  0.
        -11    1    3    3    0    0  0.21318048638E+02 -0.20872526614E+02 -0.16514912129E+02  0.34100790132E+02  0.00000000000E+00 0.  1.
         11    1    3    3    0    0 -0.21318048638E+02  0.20872526614E+02  0.60166253134E+02  0.67157274968E+02  0.00000000000E+00 0. -1.
<mgrwt>
<rscale>  0 0.91366056E+02</rscale>
<asrwt>0</asrwt>
<pdfrwt beam="1">  1        2 0.11146877E-01 0.91366056E+02</pdfrwt>
<pdfrwt beam="2">  1       -2 0.44312865E-02 0.91366056E+02</pdfrwt>
<totfact> 0.11103957E+05</totfact>
</mgrwt>
</event>
<event>
 5    1  0.1265228E+001  0.1221350E+03  0.7546771E-02  0.1239616E+00
          2   -1    0    0  501    0  0.00000000000E+00  0.00000000000E+00  0.41656005548E+02  0.41656005548E+02  0.00000000000E+00 0. -1.
         -2   -1    0    0    0  501 -0.00000000000E+00 -0.00000000000E+00 -0.89524617424E+02  0.89524617424E+02  0.00000000000E+00 0.  1.
         23    2    1    2    0    0  0.00000000000E+00  0.00000000000E+00 -0.47868611876E+02  0.13118062297E+03  0.12213497386E+03 0.  0.
        -13    1    3    3    0    0 -0.56559128344E+01 -0.20150797162E+02 -0.85552133922E+02  0.88075033891E+02  0.00000000000E+00 0.  1.
         13    1    3    3    0    0  0.56559128344E+01  0.20150797162E+02  0.37683522046E+02  0.43105589081E+02  0.00000000000E+00 0. -1.
<mgrwt>
<rscale>  0 0.12213497E+03</rscale>
<asrwt>0</asrwt>
<pdfrwt beam="1">  1        2 0.64086163E-02 0.12213497E+03</pdfrwt>
<pdfrwt beam="2">  1       -2 0.13773018E-01 0.12213497E+03</pdfrwt>
<totfact> 0.40209282E+04</totfact>
</mgrwt>
</event>
<event>
 5    1  0.1265228E+001  0.8990368E+02  0.7546771E-02  0.1303085E+00
         -4   -1    0    0    0  501 -0.00000000000E+00  0.00000000000E+00  0.18300525555E+02  0.18300525555E+02  0.00000000000E+00 0.  1.
          4   -1    0    0  501    0  0.00000000000E+00 -0.00000000000E+00 -0.11041583787E+03  0.11041583787E+03  0.00000000000E+00 0. -1.
         23    2    1    2    0    0  0.00000000000E+00  0.00000000000E+00 -0.92115312314E+02  0.12871636342E+03  0.89903678735E+02 0.  0.
        -13    1    3    3    0    0 -0.22327827101E+02 -0.11662003968E+02  0.72462276795E+01  0.26211486322E+02  0.00000000000E+00 0.  1.
         13    1    3    3    0    0  0.22327827101E+02  0.11662003968E+02 -0.99361539994E+02  0.10250487710E+03  0.00000000000E+00 0. -1.
<mgrwt>
<rscale>  0 0.89903679E+02</rscale>
<asrwt>0</asrwt>
<pdfrwt beam="2">  1        4 0.16987052E-01 0.89903679E+02</pdfrwt>
<pdfrwt beam="1">  1       -4 0.28154655E-02 0.89903679E+02</pdfrwt>
<totfact> 0.25743751E+04</totfact>
</mgrwt>
</event>
<event>
 5    1  0.1265228E+001  0.9097592E+02  0.7546771E-02  0.1300505E+00
         -1   -1    0    0    0  501 -0.00000000000E+00  0.00000000000E+00  0.51686094920E+01  0.51686094920E+01  0.00000000000E+00 0.  1.
          1   -1    0    0  501    0  0.00000000000E+00 -0.00000000000E+00 -0.40033100626E+03  0.40033100626E+03  0.00000000000E+00 0. -1.
         23    2    1    2    0    0  0.00000000000E+00  0.00000000000E+00 -0.39516239677E+03  0.40549961575E+03  0.90975922945E+02 0.  0.
        -13    1    3    3    0    0  0.30582548846E+02 -0.32013255496E+02 -0.15104351602E+03  0.15739848968E+03  0.00000000000E+00 0.  1.
         13    1    3    3    0    0 -0.30582548846E+02  0.32013255496E+02 -0.24411888075E+03  0.24810112608E+03  0.00000000000E+00 0. -1.
<mgrwt>
<rscale>  0 0.90975923E+02</rscale>
<asrwt>0</asrwt>
<pdfrwt beam="2">  1        1 0.61589408E-01 0.90975923E+02</pdfrwt>
<pdfrwt beam="1">  1       -1 0.79517041E-03 0.90975923E+02</pdfrwt>
<totfact> 0.13570249E+05</totfact>
</mgrwt>
</event>
<event>
 5    1  0.1265228E+001  0.8898166E+02  0.7546771E-02  0.1305337E+00
          2   -1    0    0  501    0  0.00000000000E+00  0.00000000000E+00  0.11348398494E+02  0.11348398494E+02  0.00000000000E+00 0. -1.
         -2   -1    0    0    0  501 -0.00000000000E+00 -0.00000000000E+00 -0.17442406148E+03  0.17442406148E+03  0.00000000000E+00 0.  1.
         23    2    1    2    0    0  0.00000000000E+00  0.00000000000E+00 -0.16307566299E+03  0.18577245998E+03  0.88981655563E+02 0.  0.
        -11    1    3    3    0    0 -0.25408504446E+02 -0.32265625814E+02 -0.11726058401E+03  0.12424454624E+03  0.00000000000E+00 0.  1.
         11    1    3    3    0    0  0.25408504446E+02  0.32265625814E+02 -0.45815078981E+02  0.61527913742E+02  0.00000000000E+00 0. -1.
<mgrwt>
<rscale>  0 0.88981656E+02</rscale>
<asrwt>0</asrwt>
<pdfrwt beam="1">  1        2 0.17459075E-02 0.88981656E+02</pdfrwt>
<pdfrwt beam="2">  1       -2 0.26834471E-01 0.88981656E+02</pdfrwt>
<totfact> 0.70176130E+04</totfact>
</mgrwt>
</event>
<event>
 5    1  0.1265228E+001  0.9129192E+02  0.7546771E-02  0.1299753E+00
         -2   -1    0    0    0  501 -0.00000000000E+00  0.00000000000E+00  0.30797733241E+02  0.30797733241E+02  0.00000000000E+00 0.  1.
          2   -1    0    0  501    0  0.00000000000E+00 -0.00000000000E+00 -0.67652831378E+02  0.67652831378E+02  0.00000000000E+00 0. -1.
         23    2    1    2    0    0  0.00000000000E+00  0.00000000000E+00 -0.36855098137E+02  0.98450564619E+02  0.91291924150E+02 0.  0.
        -11    1    3    3    0    0  0.32166110726E+02  0.65063012557E+01  0.15786650061E+02  0.36417151940E+02  0.00000000000E+00 0.  1.
         11    1    3    3    0    0 -0.32166110726E+02 -0.65063012557E+01 -0.52641748198E+02  0.62033412679E+02  0.00000000000E+00 0. -1.
<mgrwt>
<rscale>  0 0.91291924E+02</rscale>
<asrwt>0</asrwt>
<pdfrwt beam="2">  1        2 0.10408128E-01 0.91291924E+02</pdfrwt>
<pdfrwt beam="1">  1       -2 0.47381128E-02 0.91291924E+02</pdfrwt>
<totfact> 0.10919609E+05</totfact>
</mgrwt>
</event>
<event>
 4    1  0.1265228E+001  0.3085796E+02  0.7546771E-02  0.1588794E+00
         -1   -1    0    0    0  501 -0.00000000000E+00  0.00000000000E+00  0.30033327693E+01  0.30033327693E+01  0.00000000000E+00 0.  1.
          1   -1    0    0  501    0  0.00000000000E+00 -0.00000000000E+00 -0.79263111677E+02  0.79263111677E+02  0.00000000000E+00 0. -1.
        -13    1    1    2    0    0 -0.13674342443E+02 -0.36771212509E+01 -0.54465275809E+02  0.56275884097E+02  0.00000000000E+00 0. -1.
         13    1    1    2    0    0  0.13674342443E+02  0.36771212509E+01 -0.21794503099E+02  0.25990560349E+02  0.00000000000E+00 0.  1.
<mgrwt>
<rscale>  0 0.30857965E+02</rscale>
<asrwt>0</asrwt>
<pdfrwt beam="2">  1        1 0.12194326E-01 0.30857965E+02</pdfrwt>
<pdfrwt beam="1">  1       -1 0.46205116E-03 0.30857965E+02</pdfrwt>
<totfact> 0.16018158E+06</totfact>
</mgrwt>
</event>
<event>
 5    1  0.1265228E+001  0.9122785E+02  0.7546771E-02  0.1299905E+00
         -3   -1    0    0    0  501 -0.00000000000E+00  0.00000000000E+00  0.19194780709E+03  0.19194780709E+03  0.00000000000E+00 0.  1.
          3   -1    0    0  501    0  0.00000000000E+00 -0.00000000000E+00 -0.10839560914E+02  0.10839560914E+02  0.00000000000E+00 0. -1.
         23    2    1    2    0    0  0.00000000000E+00  0.00000000000E+00  0.18110824617E+03  0.20278736800E+03  0.91227845470E+02 0.  0.
        -13    1    3    3    0    0 -0.32016757752E+02  0.83689574168E+01  0.16033649056E+03  0.16371591990E+03  0.00000000000E+00 0.  1.
         13    1    3    3    0    0  0.32016757752E+02 -0.83689574168E+01  0.20771755615E+02  0.39071448099E+02  0.00000000000E+00 0. -1.
<mgrwt>
<rscale>  0 0.91227845E+02</rscale>
<asrwt>0</asrwt>
<pdfrwt beam="2">  1        3 0.16676249E-02 0.91227845E+02</pdfrwt>
<pdfrwt beam="1">  1       -3 0.29530429E-01 0.91227845E+02</pdfrwt>
<totfact> 0.28310867E+04</totfact>
</mgrwt>
</event>
<event>
 5    1  0.1265228E+001  0.9004537E+02  0.7546771E-02  0.1302742E+00
          3   -1    0    0  501    0  0.00000000000E+00  0.00000000000E+00  0.10568515088E+03  0.10568515088E+03  0.00000000000E+00 0. -1.
         -3   -1    0    0    0  501 -0.00000000000E+00 -0.00000000000E+00 -0.19180010040E+02  0.19180010040E+02  0.00000000000E+00 0.  1.
         23    2    1    2    0    0  0.00000000000E+00  0.00000000000E+00  0.86505140835E+02  0.12486516092E+03  0.90045372006E+02 0.  0.
        -13    1    3    3    0    0  0.34419481423E+01  0.44889338535E+02  0.42729043758E+02  0.62069887237E+02  0.00000000000E+00 0.  1.
         13    1    3    3    0    0 -0.34419481423E+01 -0.44889338535E+02  0.43776097078E+02  0.62795273679E+02  0.00000000000E+00 0. -1.
<mgrwt>
<rscale>  0 0.90045372E+02</rscale>
<asrwt>0</asrwt>
<pdfrwt beam="1">  1        3 0.16259254E-01 0.90045372E+02</pdfrwt>
<pdfrwt beam="2">  1       -3 0.29507708E-02 0.90045372E+02</pdfrwt>
<totfact> 0.34049423E+04</totfact>
</mgrwt>
</event>
<event>
 5    1  0.1265228E+001  0.8962050E+02  0.7546771E-02  0.1303773E+00
          3   -1    0    0  501    0  0.00000000000E+00  0.00000000000E+00  0.30106551043E+03  0.30106551043E+03  0.00000000000E+00 0. -1.
         -3   -1    0    0    0  501 -0.00000000000E+00 -0.00000000000E+00 -0.66695076086E+01  0.66695076086E+01  0.00000000000E+00 0.  1.
         23    2    1    2    0    0  0.00000000000E+00  0.00000000000E+00  0.29439600283E+03  0.30773501804E+03  0.89620504630E+02 0.  0.
        -11    1    3    3    0    0  0.41836724710E+02 -0.40214668547E+01  0.93839256562E+02  0.10282164073E+03  0.00000000000E+00 0.  1.
         11    1    3    3    0    0 -0.41836724710E+02  0.40214668547E+01  0.20055674626E+03  0.20491337731E+03  0.00000000000E+00 0. -1.
<mgrwt>
<rscale>  0 0.89620505E+02</rscale>
<asrwt>0</asrwt>
<pdfrwt beam="1">  1        3 0.46317760E-01 0.89620505E+02</pdfrwt>
<pdfrwt beam="2">  1       -3 0.10260783E-02 0.89620505E+02</pdfrwt>
<totfact> 0.24854710E+04</totfact>
</mgrwt>
</event>
<event>
 5    1  0.1265228E+001  0.9298317E+02  0.7546771E-02  0.1295784E+00
          2   -1    0    0  501    0  0.00000000000E+00  0.00000000000E+00  0.28792178224E+03  0.28792178224E+03  0.00000000000E+00 0. -1.
         -2   -1    0    0    0  501 -0.00000000000E+00 -0.00000000000E+00 -0.75071344638E+01  0.75071344638E+01  0.00000000000E+00 0.  1.
         23    2    1    2    0    0  0.00000000000E+00  0.00000000000E+00  0.28041464777E+03  0.29542891670E+03  0.92983171259E+02 0.  0.
        -11    1    3    3    0    0  0.75468205199E+01 -0.38019682706E+02  0.22177101630E+03  0.22513292616E+03  0.00000000000E+00 0. -1.
         11    1    3    3    0    0 -0.75468205199E+01  0.38019682706E+02  0.58643631476E+02  0.70295990538E+02  0.00000000000E+00 0.  1.
<mgrwt>
<rscale>  0 0.92983171E+02</rscale>
<asrwt>0</asrwt>
<pdfrwt beam="1">  1        2 0.44295650E-01 0.92983171E+02</pdfrwt>
<pdfrwt beam="2">  1       -2 0.11549440E-02 0.92983171E+02</pdfrwt>
<totfact> 0.16788424E+05</totfact>
</mgrwt>
</event>
<event>
 5    1  0.1265228E+001  0.9151664E+02  0.7546771E-02  0.1299220E+00
          2   -1    0    0  501    0  0.00000000000E+00  0.00000000000E+00  0.79275071364E+02  0.79275071364E+02  0.00000000000E+00 0. -1.
         -2   -1    0    0    0  501 -0.00000000000E+00 -0.00000000000E+00 -0.26412135919E+02  0.26412135919E+02  0.00000000000E+00 0.  1.
         23    2    1    2    0    0  0.00000000000E+00  0.00000000000E+00  0.52862935445E+02  0.10568720728E+03  0.91516642417E+02 0.  0.
        -13    1    3    3    0    0 -0.58715527690E+01 -0.44649773402E+02  0.35795413090E+02  0.57527289134E+02  0.00000000000E+00 0. -1.
         13    1    3    3    0    0  0.58715527690E+01  0.44649773402E+02  0.17067522355E+02  0.48159918149E+02  0.00000000000E+00 0.  1.
<mgrwt>
<rscale>  0 0.91516642E+02</rscale>
<asrwt>0</asrwt>
<pdfrwt beam="1">  1        2 0.12196165E-01 0.91516642E+02</pdfrwt>
<pdfrwt beam="2">  1       -2 0.40634056E-02 0.91516642E+02</pdfrwt>
<totfact> 0.11337716E+05</totfact>
</mgrwt>
</event>
<event>
 5    1  0.1265228E+001  0.9137456E+02  0.7546771E-02  0.1299557E+00
         -1   -1    0    0    0  501 -0.00000000000E+00  0.00000000000E+00  0.41765216479E+02  0.41765216479E+02  0.00000000000E+00 0.  1.
          1   -1    0    0  501    0  0.00000000000E+00 -0.00000000000E+00 -0.49977657482E+02  0.49977657482E+02  0.00000000000E+00 0. -1.
         23    2    1    2    0    0  0.00000000000E+00  0.00000000000E+00 -0.82124410028E+01  0.91742873962E+02  0.91374562847E+02 0.  0.
        -13    1    3    3    0    0 -0.17658489714E+01  0.31737882249E+02  0.28842458109E+02  0.42922008131E+02  0.00000000000E+00 0.  1.
         13    1    3    3    0    0  0.17658489714E+01 -0.31737882249E+02 -0.37054899112E+02  0.48820865831E+02  0.00000000000E+00 0. -1.
<mgrwt>
<rscale>  0 0.91374563E+02</rscale>
<asrwt>0</asrwt>
<pdfrwt beam="2">  1        1 0.76888704E-02 0.91374563E+02</pdfrwt>
<pdfrwt beam="1">  1       -1 0.64254179E-02 0.91374563E+02</pdfrwt>
<totfact> 0.93190933E+04</totfact>
</mgrwt>
</event>
<event>
 5    1  0.1265228E+001  0.9135796E+02  0.7546771E-02  0.1299596E+00
         -3   -1    0    0    0  501 -0.00000000000E+00  0.00000000000E+00  0.69671347304E+02  0.69671347304E+02  0.00000000000E+00 0.  1.
          3   -1    0    0  501    0  0.00000000000E+00 -0.00000000000E+00 -0.29948742315E+02  0.29948742315E+02  0.00000000000E+00 0. -1.
         23    2    1    2    0    0  0.00000000000E+00  0.00000000000E+00  0.39722604989E+02  0.99620089619E+02  0.91357960292E+02 0.  0.
        -13    1    3    3    0    0 -0.49579885219E+01  0.27404213394E+02 -0.19620895937E+02  0.34066877158E+02  0.00000000000E+00 0. -1.
         13    1    3    3    0    0  0.49579885219E+01 -0.27404213394E+02  0.59343500925E+02  0.65553212461E+02  0.00000000000E+00 0.  1.
<mgrwt>
<rscale>  0 0.91357960E+02</rscale>
<asrwt>0</asrwt>
<pdfrwt beam="2">  1        3 0.46074988E-02 0.91357960E+02</pdfrwt>
<pdfrwt beam="1">  1       -3 0.10718669E-01 0.91357960E+02</pdfrwt>
<totfact> 0.34513216E+04</totfact>
</mgrwt>
</event>
<event>
 5    1  0.1265228E+001  0.9112172E+02  0.7546771E-02  0.1300158E+00
         -1   -1    0    0    0  501 -0.00000000000E+00  0.00000000000E+00  0.55232018122E+02  0.55232018122E+02  0.00000000000E+00 0.  1.
          1   -1    0    0  501    0  0.00000000000E+00 -0.00000000000E+00 -0.37583128974E+02  0.37583128974E+02  0.00000000000E+00 0. -1.
         23    2    1    2    0    0  0.00000000000E+00  0.00000000000E+00  0.17648889148E+02  0.92815147096E+02  0.91121722121E+02 0.  0.
        -13    1    3    3    0    0 -0.36005743070E+02  0.10306219737E+02  0.35251952136E+02  0.51432789432E+02  0.00000000000E+00 0.  1.
         13    1    3    3    0    0  0.36005743070E+02 -0.10306219737E+02 -0.17603062988E+02  0.41382357665E+02  0.00000000000E+00 0. -1.
<mgrwt>
<rscale>  0 0.91121722E+02</rscale>
<asrwt>0</asrwt>
<pdfrwt beam="2">  1        1 0.57820198E-02 0.91121722E+02</pdfrwt>
<pdfrwt beam="1">  1       -1 0.84972336E-02 0.91121722E+02</pdfrwt>
<totfact> 0.89959505E+04</totfact>
</mgrwt>
</event>
<event>
 5    1  0.1265228E+001  0.9114932E+02  0.7546771E-02  0.1300092E+00
          1   -1    0    0  501    0  0.00000000000E+00  0.00000000000E+00  0.19193819490E+03  0.19193819490E+03  0.00000000000E+00 0. -1.
         -1   -1    0    0    0  501 -0.00000000000E+00 -0.00000000000E+00 -0.10821450360E+02  0.10821450360E+02  0.00000000000E+00 0.  1.
         23    2    1    2    0    0  0.00000000000E+00  0.00000000000E+00  0.18111674454E+03  0.20275964526E+03  0.91149320312E+02 0.  0.
        -11    1    3    3    0    0 -0.37731931393E+02  0.22860348466E+02  0.11599491136E+03  0.12410122337E+03  0.00000000000E+00 0.  1.
         11    1    3    3    0    0  0.37731931393E+02 -0.22860348466E+02  0.65121833179E+02  0.78658421897E+02  0.00000000000E+00 0. -1.
<mgrwt>
<rscale>  0 0.91149320E+02</rscale>
<asrwt>0</asrwt>
<pdfrwt beam="1">  1        1 0.29528951E-01 0.91149320E+02</pdfrwt>
<pdfrwt beam="2">  1       -1 0.16648387E-02 0.91149320E+02</pdfrwt>
<totfact> 0.11756233E+05</totfact>
</mgrwt>
</event>
<event>
 5    1  0.1265228E+001  0.9204694E+02  0.7546771E-02  0.1297969E+00
          1   -1    0    0  501    0  0.00000000000E+00  0.00000000000E+00  0.10884548057E+03  0.10884548057E+03  0.00000000000E+00 0. -1.
         -1   -1    0    0    0  501 -0.00000000000E+00 -0.00000000000E+00 -0.19460247676E+02  0.19460247676E+02  0.00000000000E+00 0.  1.
         23    2    1    2    0    0  0.00000000000E+00  0.00000000000E+00  0.89385232896E+02  0.12830572825E+03  0.92046944769E+02 0.  0.
        -13    1    3    3    0    0 -0.47629836711E+01 -0.35336670905E+02  0.85255187387E+02  0.92411110266E+02  0.00000000000E+00 0. -1.
         13    1    3    3    0    0  0.47629836711E+01  0.35336670905E+02  0.41300455082E+01  0.35894617981E+02  0.00000000000E+00 0.  1.
<mgrwt>
<rscale>  0 0.92046945E+02</rscale>
<asrwt>0</asrwt>
<pdfrwt beam="1">  1        1 0.16745458E-01 0.92046945E+02</pdfrwt>
<pdfrwt beam="2">  1       -1 0.29938843E-02 0.92046945E+02</pdfrwt>
<totfact> 0.10324395E+05</totfact>
</mgrwt>
</event>
<event>
 5    1  0.1265228E+001  0.9052733E+02  0.7546771E-02  0.1301580E+00
          1   -1    0    0  501    0  0.00000000000E+00  0.00000000000E+00  0.13067829959E+02  0.13067829959E+02  0.00000000000E+00 0. -1.
         -1   -1    0    0    0  501 -0.00000000000E+00 -0.00000000000E+00 -0.15678192824E+03  0.15678192824E+03  0.00000000000E+00 0.  1.
         23    2    1    2    0    0  0.00000000000E+00  0.00000000000E+00 -0.14371409828E+03  0.16984975820E+03  0.90527334633E+02 0.  0.
        -11    1    3    3    0    0  0.32884185659E+02  0.48298375460E+01 -0.14207649117E+02  0.36146290136E+02  0.00000000000E+00 0. -1.
         11    1    3    3    0    0 -0.32884185659E+02 -0.48298375460E+01 -0.12950644916E+03  0.13370346806E+03  0.00000000000E+00 0.  1.
<mgrwt>
<rscale>  0 0.90527335E+02</rscale>
<asrwt>0</asrwt>
<pdfrwt beam="1">  1        1 0.20104354E-02 0.90527335E+02</pdfrwt>
<pdfrwt beam="2">  1       -1 0.24120296E-01 0.90527335E+02</pdfrwt>
<totfact> 0.75393150E+04</totfact>
</mgrwt>
</event>
<event>
 5    1  0.1265228E+001  0.8655849E+02  0.7546771E-02  0.1311407E+00
         -2   -1    0    0    0  501 -0.00000000000E+00  0.00000000000E+00  0.52652696969E+01  0.52652696969E+01  0.00000000000E+00 0.  1.
          2   -1    0    0  501    0  0.00000000000E+00 -0.00000000000E+00 -0.35574494670E+03  0.35574494670E+03  0.00000000000E+00 0. -1.
         23    2    1    2    0    0  0.00000000000E+00  0.00000000000E+00 -0.35047967701E+03  0.36101021640E+03  0.86558490922E+02 0.  0.
        -11    1    3    3    0    0 -0.19860626310E+02  0.36255172281E+02 -0.12179434861E+03  0.12861860421E+03  0.00000000000E+00 0. -1.
         11    1    3    3    0    0  0.19860626310E+02 -0.36255172281E+02 -0.22868532839E+03  0.23239161219E+03  0.00000000000E+00 0.  1.
<mgrwt>
<rscale>  0 0.86558491E+02</rscale>
<asrwt>0</asrwt>
<pdfrwt beam="2">  1        2 0.54730012E-01 0.86558491E+02</pdfrwt>
<pdfrwt beam="1">  1       -2 0.81004120E-03 0.86558491E+02</pdfrwt>
<totfact> 0.21960223E+05</totfact>
</mgrwt>
</event>
<event>
 5    1  0.1265228E+001  0.9239120E+02  0.7546771E-02  0.1297162E+00
         -2   -1    0    0    0  501 -0.00000000000E+00  0.00000000000E+00  0.25828720790E+02  0.25828720790E+02  0.00000000000E+00 0.  1.
          2   -1    0    0  501    0  0.00000000000E+00 -0.00000000000E+00 -0.82622505496E+02  0.82622505496E+02  0.00000000000E+00 0. -1.
         23    2    1    2    0    0  0.00000000000E+00  0.00000000000E+00 -0.56793784706E+02  0.10845122629E+03  0.92391203596E+02 0.  0.
        -11    1    3    3    0    0 -0.40249800611E+02  0.50981629829E+01 -0.24663301092E+01  0.40646285184E+02  0.00000000000E+00 0.  1.
         11    1    3    3    0    0  0.40249800611E+02 -0.50981629829E+01 -0.54327454597E+02  0.67804941103E+02  0.00000000000E+00 0. -1.
<mgrwt>
<rscale>  0 0.92391204E+02</rscale>
<asrwt>0</asrwt>
<pdfrwt beam="2">  1        2 0.12711155E-01 0.92391204E+02</pdfrwt>
<pdfrwt beam="1">  1       -2 0.39736494E-02 0.92391204E+02</pdfrwt>
<totfact> 0.11173742E+05</totfact>
</mgrwt>
</event>
<event>
 5    1  0.1265228E+001  0.9120320E+02  0.7546771E-02  0.1299964E+00
          2   -1    0    0  501    0  0.00000000000E+00  0.00000000000E+00  0.10954347443E+03  0.10954347443E+03  0.00000000000E+00 0. -1.
         -2   -1    0    0    0  501 -0.00000000000E+00 -0.00000000000E+00 -0.18983385831E+02  0.18983385831E+02  0.00000000000E+00 0.  1.
         23    2    1    2    0    0  0.00000000000E+00  0.00000000000E+00  0.90560088597E+02  0.12852686026E+03  0.91203202583E+02 0.  0.
        -11    1    3    3    0    0  0.10654699643E+02 -0.37932340178E+02  0.12925226204E+02  0.41466209476E+02  0.00000000000E+00 0. -1.
         11    1    3    3    0    0 -0.10654699643E+02  0.37932340178E+02  0.77634862393E+02  0.87060650783E+02  0.00000000000E+00 0.  1.
<mgrwt>
<rscale>  0 0.91203203E+02</rscale>
<asrwt>0</asrwt>
<pdfrwt beam="1">  1        2 0.16852842E-01 0.91203203E+02</pdfrwt>
<pdfrwt beam="2">  1       -2 0.29205210E-02 0.91203203E+02</pdfrwt>
<totfact> 0.12607384E+05</totfact>
</mgrwt>
</event>
<event>
 5    1  0.1265228E+001  0.9196163E+02  0.7546771E-02  0.1298170E+00
         -2   -1    0    0    0  501 -0.00000000000E+00  0.00000000000E+00  0.29618049236E+03  0.29618049236E+03  0.00000000000E+00 0.  1.
          2   -1    0    0  501    0  0.00000000000E+00 -0.00000000000E+00 -0.71383338087E+01  0.71383338087E+01  0.00000000000E+00 0. -1.
         23    2    1    2    0    0  0.00000000000E+00  0.00000000000E+00  0.28904215856E+03  0.30331882617E+03  0.91961627261E+02 0.  0.
        -11    1    3    3    0    0 -0.16418964845E+02  0.42849270738E+02  0.15418960805E+03  0.16087286173E+03  0.00000000000E+00 0.  1.
         11    1    3    3    0    0  0.16418964845E+02 -0.42849270738E+02  0.13485255050E+03  0.14244596444E+03  0.00000000000E+00 0. -1.
<mgrwt>
<rscale>  0 0.91961627E+02</rscale>
<asrwt>0</asrwt>
<pdfrwt beam="2">  1        2 0.10982054E-02 0.91961627E+02</pdfrwt>
<pdfrwt beam="1">  1       -2 0.45566220E-01 0.91961627E+02</pdfrwt>
<totfact> 0.50246451E+04</totfact>
</mgrwt>
</event>
<event>
 5    1  0.1265228E+001  0.9133900E+02  0.7546771E-02  0.1299641E+00
         -2   -1    0    0    0  501 -0.00000000000E+00  0.00000000000E+00  0.10661329415E+03  0.10661329415E+03  0.00000000000E+00 0.  1.
          2   -1    0    0  501    0  0.00000000000E+00 -0.00000000000E+00 -0.19563257462E+02  0.19563257462E+02  0.00000000000E+00 0. -1.
         23    2    1    2    0    0  0.00000000000E+00  0.00000000000E+00  0.87050036685E+02  0.12617655161E+03  0.91339002016E+02 0.  0.
        -11    1    3    3    0    0 -0.63952595277E+00  0.38735274363E+02  0.76933221837E+02  0.86136816145E+02  0.00000000000E+00 0.  1.
         11    1    3    3    0    0  0.63952595277E+00 -0.38735274363E+02  0.10116814848E+02  0.40039735464E+02  0.00000000000E+00 0. -1.
<mgrwt>
<rscale>  0 0.91339002E+02</rscale>
<asrwt>0</asrwt>
<pdfrwt beam="2">  1        2 0.30097320E-02 0.91339002E+02</pdfrwt>
<pdfrwt beam="1">  1       -2 0.16402045E-01 0.91339002E+02</pdfrwt>
<totfact> 0.77929477E+04</totfact>
</mgrwt>
</event>
<event>
 5    1  0.1265228E+001  0.8796860E+02  0.7546771E-02  0.1307847E+00
          3   -1    0    0  501    0  0.00000000000E+00  0.00000000000E+00  0.11357295621E+03  0.11357295621E+03  0.00000000000E+00 0.  1.
         -3   -1    0    0    0  501 -0.00000000000E+00 -0.00000000000E+00 -0.17034149179E+02  0.17034149179E+02  0.00000000000E+00 0. -1.
         23    2    1    2    0    0  0.00000000000E+00  0.00000000000E+00  0.96538807032E+02  0.13060710539E+03  0.87968600735E+02 0.  0.
        -11    1    3    3    0    0 -0.26337046703E+02 -0.78238752542E+01 -0.27266994759E+01  0.27609562530E+02  0.00000000000E+00 0. -1.
         11    1    3    3    0    0  0.26337046703E+02  0.78238752542E+01  0.99265506508E+02  0.10299754286E+03  0.00000000000E+00 0.  1.
<mgrwt>
<rscale>  0 0.87968601E+02</rscale>
<asrwt>0</asrwt>
<pdfrwt beam="1">  1        3 0.17472762E-01 0.87968601E+02</pdfrwt>
<pdfrwt beam="2">  1       -3 0.26206384E-02 0.87968601E+02</pdfrwt>
<totfact> 0.35843656E+04</totfact>
</mgrwt>
</event>
<event>
 5    1  0.1265228E+001  0.8994073E+02  0.7546771E-02  0.1302995E+00
          3   -1    0    0  501    0  0.00000000000E+00  0.00000000000E+00  0.22656083239E+03  0.22656083239E+03  0.00000000000E+00 0. -1.
         -3   -1    0    0    0  501 -0.00000000000E+00 -0.00000000000E+00 -0.89262288929E+01  0.89262288929E+01  0.00000000000E+00 0.  1.
         23    2    1    2    0    0  0.00000000000E+00  0.00000000000E+00  0.21763460350E+03  0.23548706128E+03  0.89940732665E+02 0.  0.
        -13    1    3    3    0    0  0.30218545545E+02 -0.16058877163E+02  0.18520938050E+03  0.18834426632E+03  0.00000000000E+00 0. -1.
         13    1    3    3    0    0 -0.30218545545E+02  0.16058877163E+02  0.32425223002E+02  0.47142794967E+02  0.00000000000E+00 0.  1.
<mgrwt>
<rscale>  0 0.89940733E+02</rscale>
<asrwt>0</asrwt>
<pdfrwt beam="1">  1        3 0.34855508E-01 0.89940733E+02</pdfrwt>
<pdfrwt beam="2">  1       -3 0.13732662E-02 0.89940733E+02</pdfrwt>
<totfact> 0.27761925E+04</totfact>
</mgrwt>
</event>
<event>
 5    1  0.1265228E+001  0.9104779E+02  0.7546771E-02  0.1300334E+00
         -1   -1    0    0    0  501 -0.00000000000E+00  0.00000000000E+00  0.38832018627E+02  0.38832018627E+02  0.00000000000E+00 0.  1.
          1   -1    0    0  501    0  0.00000000000E+00 -0.00000000000E+00 -0.53368971805E+02  0.53368971805E+02  0.00000000000E+00 0. -1.
         23    2    1    2    0    0  0.00000000000E+00  0.00000000000E+00 -0.14536953179E+02  0.92200990432E+02  0.91047787611E+02 0.  0.
        -11    1    3    3    0    0 -0.36197577840E+02  0.20570665851E+02  0.11376899368E+02  0.43160755024E+02  0.00000000000E+00 0.  1.
         11    1    3    3    0    0  0.36197577840E+02 -0.20570665851E+02 -0.25913852547E+02  0.49040235408E+02  0.00000000000E+00 0. -1.
<mgrwt>
<rscale>  0 0.91047788E+02</rscale>
<asrwt>0</asrwt>
<pdfrwt beam="2">  1        1 0.82106111E-02 0.91047788E+02</pdfrwt>
<pdfrwt beam="1">  1       -1 0.59741567E-02 0.91047788E+02</pdfrwt>
<totfact> 0.95060927E+04</totfact>
</mgrwt>
</event>
<event>
 5    1  0.1265228E+001  0.9110570E+02  0.7546771E-02  0.1300196E+00
         -1   -1    0    0    0  501 -0.00000000000E+00  0.00000000000E+00  0.79604826984E+02  0.79604826984E+02  0.00000000000E+00 0.  1.
          1   -1    0    0  501    0  0.00000000000E+00 -0.00000000000E+00 -0.26067039887E+02  0.26067039887E+02  0.00000000000E+00 0. -1.
         23    2    1    2    0    0  0.00000000000E+00  0.00000000000E+00  0.53537787097E+02  0.10567186687E+03  0.91105701253E+02 0.  0.
        -13    1    3    3    0    0 -0.23150571945E+02 -0.28354251258E+02  0.58217521555E+02  0.68769123607E+02  0.00000000000E+00 0.  1.
         13    1    3    3    0    0  0.23150571945E+02  0.28354251258E+02 -0.46797344572E+01  0.36902743264E+02  0.00000000000E+00 0. -1.
<mgrwt>
<rscale>  0 0.91105701E+02</rscale>
<asrwt>0</asrwt>
<pdfrwt beam="2">  1        1 0.40103139E-02 0.91105701E+02</pdfrwt>
<pdfrwt beam="1">  1       -1 0.12246896E-01 0.91105701E+02</pdfrwt>
<totfact> 0.84891068E+04</totfact>
</mgrwt>
</event>
<event>
 5    1  0.1265228E+001  0.9844412E+02  0.7546771E-02  0.1283602E+00
          2   -1    0    0  501    0  0.00000000000E+00  0.00000000000E+00  0.39396936220E+02  0.39396936220E+02  0.00000000000E+00 0. -1.
         -2   -1    0    0    0  501 -0.00000000000E+00 -0.00000000000E+00 -0.61497451120E+02  0.61497451120E+02  0.00000000000E+00 0.  1.
         23    2    1    2    0    0  0.00000000000E+00  0.00000000000E+00 -0.22100514900E+02  0.10089438734E+03  0.98444119367E+02 0.  0.
        -11    1    3    3    0    0  0.34302391629E+02 -0.29838582636E+02 -0.30382846134E+02  0.54681920452E+02  0.00000000000E+00 0.  1.
         11    1    3    3    0    0 -0.34302391629E+02  0.29838582636E+02  0.82823312341E+01  0.46212466888E+02  0.00000000000E+00 0. -1.
<mgrwt>
<rscale>  0 0.98444119E+02</rscale>
<asrwt>0</asrwt>
<pdfrwt beam="1">  1        2 0.60610671E-02 0.98444119E+02</pdfrwt>
<pdfrwt beam="2">  1       -2 0.94611463E-02 0.98444119E+02</pdfrwt>
<totfact> 0.75908000E+04</totfact>
</mgrwt>
</event>
<event>
 5    1  0.1265228E+001  0.9109923E+02  0.7546771E-02  0.1300211E+00
          2   -1    0    0  501    0  0.00000000000E+00  0.00000000000E+00  0.63232783042E+02  0.63232783042E+02  0.00000000000E+00 0. -1.
         -2   -1    0    0    0  501 -0.00000000000E+00 -0.00000000000E+00 -0.32811575467E+02  0.32811575467E+02  0.00000000000E+00 0.  1.
         23    2    1    2    0    0  0.00000000000E+00  0.00000000000E+00  0.30421207575E+02  0.96044358509E+02  0.91099225744E+02 0.  0.
        -13    1    3    3    0    0  0.22614357268E+02 -0.27006362634E+02 -0.15236358080E+02  0.38378371317E+02  0.00000000000E+00 0.  1.
         13    1    3    3    0    0 -0.22614357268E+02  0.27006362634E+02  0.45657565654E+02  0.57665987192E+02  0.00000000000E+00 0. -1.
<mgrwt>
<rscale>  0 0.91099226E+02</rscale>
<asrwt>0</asrwt>
<pdfrwt beam="1">  1        2 0.97281205E-02 0.91099226E+02</pdfrwt>
<pdfrwt beam="2">  1       -2 0.50479347E-02 0.91099226E+02</pdfrwt>
<totfact> 0.10783913E+05</totfact>
</mgrwt>
</event>
<event>
 5    1  0.1265228E+001  0.8952628E+02  0.7546771E-02  0.1304003E+00
          1   -1    0    0  501    0  0.00000000000E+00  0.00000000000E+00  0.39877675633E+03  0.39877675633E+03  0.00000000000E+00 0. -1.
         -1   -1    0    0    0  501 -0.00000000000E+00 -0.00000000000E+00 -0.50247130738E+01  0.50247130738E+01  0.00000000000E+00 0.  1.
         23    2    1    2    0    0  0.00000000000E+00  0.00000000000E+00  0.39375204326E+03  0.40380146941E+03  0.89526281752E+02 0.  0.
        -11    1    3    3    0    0 -0.12109584456E+02  0.42450196495E+02  0.23034979758E+03  0.23454144722E+03  0.00000000000E+00 0. -1.
         11    1    3    3    0    0  0.12109584456E+02 -0.42450196495E+02  0.16340224568E+03  0.16926002219E+03  0.00000000000E+00 0.  1.
<mgrwt>
<rscale>  0 0.89526282E+02</rscale>
<asrwt>0</asrwt>
<pdfrwt beam="1">  1        1 0.61350245E-01 0.89526282E+02</pdfrwt>
<pdfrwt beam="2">  1       -1 0.77303310E-03 0.89526282E+02</pdfrwt>
<totfact> 0.14151634E+05</totfact>
</mgrwt>
</event>
<event>
 5    1  0.1265228E+001  0.6419197E+02  0.7546771E-02  0.1381037E+00
         -3   -1    0    0    0  501 -0.00000000000E+00  0.00000000000E+00  0.33024097347E+02  0.33024097347E+02  0.00000000000E+00 0.  1.
          3   -1    0    0  501    0  0.00000000000E+00 -0.00000000000E+00 -0.31193960680E+02  0.31193960680E+02  0.00000000000E+00 0. -1.
         23    2    1    2    0    0  0.00000000000E+00  0.00000000000E+00  0.18301366671E+01  0.64218058027E+02  0.64191974394E+02 0.  0.
        -11    1    3    3    0    0 -0.12573280516E+02  0.39345577944E+01 -0.28364285022E+02  0.31274603000E+02  0.00000000000E+00 0. -1.
         11    1    3    3    0    0  0.12573280516E+02 -0.39345577944E+01  0.30194421690E+02  0.32943455027E+02  0.00000000000E+00 0.  1.
<mgrwt>
<rscale>  0 0.64191974E+02</rscale>
<asrwt>0</asrwt>
<pdfrwt beam="2">  1        3 0.47990709E-02 0.64191974E+02</pdfrwt>
<pdfrwt beam="1">  1       -3 0.50806304E-02 0.64191974E+02</pdfrwt>
<totfact> 0.95923785E+04</totfact>
</mgrwt>
</event>
<event>
 5    1  0.1265228E+001  0.9025639E+02  0.7546771E-02  0.1302232E+00
          4   -1    0    0  501    0  0.00000000000E+00  0.00000000000E+00  0.87447105319E+02  0.87447105319E+02  0.00000000000E+00 0. -1.
         -4   -1    0    0    0  501 -0.00000000000E+00 -0.00000000000E+00 -0.23288978647E+02  0.23288978647E+02  0.00000000000E+00 0.  1.
         23    2    1    2    0    0  0.00000000000E+00  0.00000000000E+00  0.64158126672E+02  0.11073608397E+03  0.90256385225E+02 0.  0.
        -13    1    3    3    0    0 -0.42317045827E+02  0.11819340437E+02  0.19439873315E+02  0.48045164693E+02  0.00000000000E+00 0.  1.
         13    1    3    3    0    0  0.42317045827E+02 -0.11819340437E+02  0.44718253357E+02  0.62690919272E+02  0.00000000000E+00 0. -1.
<mgrwt>
<rscale>  0 0.90256385E+02</rscale>
<asrwt>0</asrwt>
<pdfrwt beam="1">  1        4 0.13453401E-01 0.90256385E+02</pdfrwt>
<pdfrwt beam="2">  1       -4 0.35829198E-02 0.90256385E+02</pdfrwt>
<totfact> 0.26525757E+04</totfact>
</mgrwt>
</event>
<event>
 5    1  0.1265228E+001  0.9147117E+02  0.7546771E-02  0.1299328E+00
          1   -1    0    0  501    0  0.00000000000E+00  0.00000000000E+00  0.16073044120E+02  0.16073044120E+02  0.00000000000E+00 0. -1.
         -1   -1    0    0    0  501 -0.00000000000E+00 -0.00000000000E+00 -0.13013987006E+03  0.13013987006E+03  0.00000000000E+00 0.  1.
         23    2    1    2    0    0  0.00000000000E+00  0.00000000000E+00 -0.11406682594E+03  0.14621291418E+03  0.91471173018E+02 0.  0.
        -13    1    3    3    0    0 -0.69764345692E+01 -0.43987169002E+02 -0.73660628433E+02  0.86078045152E+02  0.00000000000E+00 0. -1.
         13    1    3    3    0    0  0.69764345692E+01  0.43987169002E+02 -0.40406197508E+02  0.60134869029E+02  0.00000000000E+00 0.  1.
<mgrwt>
<rscale>  0 0.91471173E+02</rscale>
<asrwt>0</asrwt>
<pdfrwt beam="1">  1        1 0.24727761E-02 0.91471173E+02</pdfrwt>
<pdfrwt beam="2">  1       -1 0.20021518E-01 0.91471173E+02</pdfrwt>
<totfact> 0.76564706E+04</totfact>
</mgrwt>
</event>
<event>
 5    1  0.1265228E+001  0.9151610E+02  0.7546771E-02  0.1299221E+00
          2   -1    0    0  501    0  0.00000000000E+00  0.00000000000E+00  0.10733270310E+02  0.10733270310E+02  0.00000000000E+00 0. -1.
         -2   -1    0    0    0  501 -0.00000000000E+00 -0.00000000000E+00 -0.19507558828E+03  0.19507558828E+03  0.00000000000E+00 0.  1.
         23    2    1    2    0    0  0.00000000000E+00  0.00000000000E+00 -0.18434231797E+03  0.20580885859E+03  0.91516097380E+02 0.  0.
        -13    1    3    3    0    0  0.35517306948E+02 -0.11865283282E+02 -0.15131011433E+03  0.15587499716E+03  0.00000000000E+00 0.  1.
         13    1    3    3    0    0 -0.35517306948E+02  0.11865283282E+02 -0.33032203638E+02  0.49933861431E+02  0.00000000000E+00 0. -1.
<mgrwt>
<rscale>  0 0.91516097E+02</rscale>
<asrwt>0</asrwt>
<pdfrwt beam="1">  1        2 0.16512723E-02 0.91516097E+02</pdfrwt>
<pdfrwt beam="2">  1       -2 0.30011630E-01 0.91516097E+02</pdfrwt>
<totfact> 0.62395586E+04</totfact>
</mgrwt>
</event>
<event>
 5    1  0.1265228E+001  0.9097938E+02  0.7546771E-02  0.1300497E+00
          2   -1    0    0  501    0  0.00000000000E+00  0.00000000000E+00  0.92550992808E+02  0.92550992808E+02  0.00000000000E+00 0. -1.
         -2   -1    0    0    0  501 -0.00000000000E+00 -0.00000000000E+00 -0.22358613080E+02  0.22358613080E+02  0.00000000000E+00 0.  1.
         23    2    1    2    0    0  0.00000000000E+00  0.00000000000E+00  0.70192379728E+02  0.11490960589E+03  0.90979378727E+02 0.  0.
        -11    1    3    3    0    0  0.42899597564E+01  0.43312535013E+02  0.51801267125E+02  0.67659077142E+02  0.00000000000E+00 0. -1.
         11    1    3    3    0    0 -0.42899597564E+01 -0.43312535013E+02  0.18391112603E+02  0.47250528746E+02  0.00000000000E+00 0.  1.
<mgrwt>
<rscale>  0 0.90979379E+02</rscale>
<asrwt>0</asrwt>
<pdfrwt beam="1">  1        2 0.14238614E-01 0.90979379E+02</pdfrwt>
<pdfrwt beam="2">  1       -2 0.34397867E-02 0.90979379E+02</pdfrwt>
<totfact> 0.12056856E+05</totfact>
</mgrwt>
</event>
<event>
 5    1  0.1265228E+001  0.9079483E+02  0.7546771E-02  0.1300938E+00
          2   -1    0    0  501    0  0.00000000000E+00  0.00000000000E+00  0.20462369133E+02  0.20462369133E+02  0.00000000000E+00 0. -1.
         -2   -1    0    0    0  501 -0.00000000000E+00 -0.00000000000E+00 -0.10071781457E+03  0.10071781457E+03  0.00000000000E+00 0.  1.
         23    2    1    2    0    0  0.00000000000E+00  0.00000000000E+00 -0.80255445436E+02  0.12118018370E+03  0.90794825843E+02 0.  0.
        -13    1    3    3    0    0  0.16368629659E+02 -0.29920742137E+02 -0.80117256381E+02  0.87074437219E+02  0.00000000000E+00 0.  1.
         13    1    3    3    0    0 -0.16368629659E+02  0.29920742137E+02 -0.13818905517E+00  0.34105746483E+02  0.00000000000E+00 0. -1.
<mgrwt>
<rscale>  0 0.90794826E+02</rscale>
<asrwt>0</asrwt>
<pdfrwt beam="1">  1        2 0.31480568E-02 0.90794826E+02</pdfrwt>
<pdfrwt beam="2">  1       -2 0.15495048E-01 0.90794826E+02</pdfrwt>
<totfact> 0.80472357E+04</totfact>
</mgrwt>
</event>
<event>
 5    1  0.1265228E+001  0.8727525E+02  0.7546771E-02  0.1309588E+00
          2   -1    0    0  501    0  0.00000000000E+00  0.00000000000E+00  0.24014409050E+03  0.24014409050E+03  0.00000000000E+00 0. -1.
         -2   -1    0    0    0  501 -0.00000000000E+00 -0.00000000000E+00 -0.79295823617E+01  0.79295823617E+01  0.00000000000E+00 0.  1.
         23    2    1    2    0    0  0.00000000000E+00  0.00000000000E+00  0.23221450813E+03  0.24807367286E+03  0.87275250656E+02 0.  0.
        -11    1    3    3    0    0 -0.40015586442E+02  0.14946441318E+02  0.90747584509E+02  0.10029839162E+03  0.00000000000E+00 0. -1.
         11    1    3    3    0    0  0.40015586442E+02 -0.14946441318E+02  0.14146692363E+03  0.14777528124E+03  0.00000000000E+00 0.  1.
<mgrwt>
<rscale>  0 0.87275251E+02</rscale>
<asrwt>0</asrwt>
<pdfrwt beam="1">  1        2 0.36945239E-01 0.87275251E+02</pdfrwt>
<pdfrwt beam="2">  1       -2 0.12199359E-02 0.87275251E+02</pdfrwt>
<totfact> 0.18588492E+05</totfact>
</mgrwt>
</event>
<event>
 5    1  0.1265228E+001  0.9559979E+02  0.7546771E-02  0.1289831E+00
         -4   -1    0    0    0  501 -0.00000000000E+00  0.00000000000E+00  0.20850029633E+03  0.20850029633E+03  0.00000000000E+00 0.  1.
          4   -1    0    0  501    0  0.00000000000E+00 -0.00000000000E+00 -0.10958401268E+02  0.10958401268E+02  0.00000000000E+00 0. -1.
         23    2    1    2    0    0  0.00000000000E+00  0.00000000000E+00  0.19754189506E+03  0.21945869759E+03  0.95599788944E+02 0.  0.
        -13    1    3    3    0    0  0.15937483986E+02 -0.28974147782E+02  0.17800484919E+03  0.18105035479E+03  0.00000000000E+00 0.  1.
         13    1    3    3    0    0 -0.15937483986E+02  0.28974147782E+02  0.19537045871E+02  0.38408342803E+02  0.00000000000E+00 0. -1.
<mgrwt>
<rscale>  0 0.95599789E+02</rscale>
<asrwt>0</asrwt>
<pdfrwt beam="2">  1        4 0.16859080E-02 0.95599789E+02</pdfrwt>
<pdfrwt beam="1">  1       -4 0.32076966E-01 0.95599789E+02</pdfrwt>
<totfact> 0.18139327E+04</totfact>
</mgrwt>
</event>
<event>
 5    1  0.1265228E+001  0.9037117E+02  0.7546771E-02  0.1301955E+00
         -4   -1    0    0    0  501 -0.00000000000E+00  0.00000000000E+00  0.53400774621E+01  0.53400774621E+01  0.00000000000E+00 0.  1.
          4   -1    0    0  501    0  0.00000000000E+00 -0.00000000000E+00 -0.38234226276E+03  0.38234226276E+03  0.00000000000E+00 0. -1.
         23    2    1    2    0    0  0.00000000000E+00  0.00000000000E+00 -0.37700218530E+03  0.38768234022E+03  0.90371174612E+02 0.  0.
        -13    1    3    3    0    0  0.16358757650E+02 -0.41175881446E+02 -0.15045020074E+03  0.15683853184E+03  0.00000000000E+00 0.  1.
         13    1    3    3    0    0 -0.16358757650E+02  0.41175881446E+02 -0.22655198455E+03  0.23084380839E+03  0.00000000000E+00 0. -1.
<mgrwt>
<rscale>  0 0.90371175E+02</rscale>
<asrwt>0</asrwt>
<pdfrwt beam="2">  1        4 0.58821888E-01 0.90371175E+02</pdfrwt>
<pdfrwt beam="1">  1       -4 0.82155035E-03 0.90371175E+02</pdfrwt>
<totfact> 0.15808913E+04</totfact>
</mgrwt>
</event>
<event>
 5    1  0.1265228E+001  0.8773670E+02  0.7546771E-02  0.1308427E+00
         -2   -1    0    0    0  501 -0.00000000000E+00  0.00000000000E+00  0.20735877711E+03  0.20735877711E+03  0.00000000000E+00 0.  1.
          2   -1    0    0  501    0  0.00000000000E+00 -0.00000000000E+00 -0.92806889364E+01  0.92806889364E+01  0.00000000000E+00 0. -1.
         23    2    1    2    0    0  0.00000000000E+00  0.00000000000E+00  0.19807808817E+03  0.21663946605E+03  0.87736704032E+02 0.  0.
        -13    1    3    3    0    0  0.12543218162E+02 -0.29166784156E+02  0.24291231034E+02  0.39976211989E+02  0.00000000000E+00 0. -1.
         13    1    3    3    0    0 -0.12543218162E+02  0.29166784156E+02  0.17378685714E+03  0.17666325406E+03  0.00000000000E+00 0.  1.
<mgrwt>
<rscale>  0 0.87736704E+02</rscale>
<asrwt>0</asrwt>
<pdfrwt beam="2">  1        2 0.14277985E-02 0.87736704E+02</pdfrwt>
<pdfrwt beam="1">  1       -2 0.31901347E-01 0.87736704E+02</pdfrwt>
<totfact> 0.67668487E+04</totfact>
</mgrwt>
</event>
<event>
 5    1  0.1265228E+001  0.8735967E+02  0.7546771E-02  0.1309375E+00
          3   -1    0    0  501    0  0.00000000000E+00  0.00000000000E+00  0.24095196730E+03  0.24095196730E+03  0.00000000000E+00 0. -1.
         -3   -1    0    0    0  501 -0.00000000000E+00 -0.00000000000E+00 -0.79182913738E+01  0.79182913738E+01  0.00000000000E+00 0.  1.
         23    2    1    2    0    0  0.00000000000E+00  0.00000000000E+00  0.23303367592E+03  0.24887025867E+03  0.87359667677E+02 0.  0.
        -13    1    3    3    0    0  0.27611992021E+02  0.33028553919E+02  0.13757107417E+03  0.14414960258E+03  0.00000000000E+00 0. -1.
         13    1    3    3    0    0 -0.27611992021E+02 -0.33028553919E+02  0.95462601755E+02  0.10472065609E+03  0.00000000000E+00 0.  1.
<mgrwt>
<rscale>  0 0.87359668E+02</rscale>
<asrwt>0</asrwt>
<pdfrwt beam="1">  1        3 0.37069528E-01 0.87359668E+02</pdfrwt>
<pdfrwt beam="2">  1       -3 0.12181989E-02 0.87359668E+02</pdfrwt>
<totfact> 0.29330263E+04</totfact>
</mgrwt>
</event>
<event>
 5    1  0.1265228E+001  0.8869768E+02  0.7546771E-02  0.1306036E+00
          1   -1    0    0  501    0  0.00000000000E+00  0.00000000000E+00  0.42230708516E+03  0.42230708516E+03  0.00000000000E+00 0. -1.
         -1   -1    0    0    0  501 -0.00000000000E+00 -0.00000000000E+00 -0.46573211896E+01  0.46573211896E+01  0.00000000000E+00 0.  1.
         23    2    1    2    0    0  0.00000000000E+00  0.00000000000E+00  0.41764976397E+03  0.42696440635E+03  0.88697682861E+02 0.  0.
        -11    1    3    3    0    0 -0.19130791200E+02  0.39168134377E+02  0.16951432932E+03  0.17502924832E+03  0.00000000000E+00 0.  1.
         11    1    3    3    0    0  0.19130791200E+02 -0.39168134377E+02  0.24813543465E+03  0.25193515803E+03  0.00000000000E+00 0. -1.
<mgrwt>
<rscale>  0 0.88697683E+02</rscale>
<asrwt>0</asrwt>
<pdfrwt beam="1">  1        1 0.64970291E-01 0.88697683E+02</pdfrwt>
<pdfrwt beam="2">  1       -1 0.71651128E-03 0.88697683E+02</pdfrwt>
<totfact> 0.14637246E+05</totfact>
</mgrwt>
</event>
<event>
 5    1  0.1265228E+001  0.7171271E+02  0.7546771E-02  0.1354364E+00
          2   -1    0    0  501    0  0.00000000000E+00  0.00000000000E+00  0.72062565794E+01  0.72062565794E+01  0.00000000000E+00 0. -1.
         -2   -1    0    0    0  501 -0.00000000000E+00 -0.00000000000E+00 -0.17841139035E+03  0.17841139035E+03  0.00000000000E+00 0.  1.
         23    2    1    2    0    0  0.00000000000E+00  0.00000000000E+00 -0.17120513377E+03  0.18561764693E+03  0.71712711721E+02 0.  0.
        -11    1    3    3    0    0  0.25495699987E+02  0.43704064061E+01 -0.21332871377E+02  0.33529428435E+02  0.00000000000E+00 0. -1.
         11    1    3    3    0    0 -0.25495699987E+02 -0.43704064061E+01 -0.14987226240E+03  0.15208821850E+03  0.00000000000E+00 0.  1.
<mgrwt>
<rscale>  0 0.71712712E+02</rscale>
<asrwt>0</asrwt>
<pdfrwt beam="1">  1        2 0.11086548E-02 0.71712712E+02</pdfrwt>
<pdfrwt beam="2">  1       -2 0.27447907E-01 0.71712712E+02</pdfrwt>
<totfact> 0.12013475E+05</totfact>
</mgrwt>
</event>
<event>
 5    1  0.1265228E+001  0.8762261E+02  0.7546771E-02  0.1308713E+00
         -2   -1    0    0    0  501 -0.00000000000E+00  0.00000000000E+00  0.94265855039E+02  0.94265855039E+02  0.00000000000E+00 0.  1.
          2   -1    0    0  501    0  0.00000000000E+00 -0.00000000000E+00 -0.20361883389E+02  0.20361883389E+02  0.00000000000E+00 0. -1.
         23    2    1    2    0    0  0.00000000000E+00  0.00000000000E+00  0.73903971650E+02  0.11462773843E+03  0.87622607765E+02 0.  0.
        -13    1    3    3    0    0  0.14120165570E+02 -0.41357307657E+02  0.41010432366E+02  0.59930472509E+02  0.00000000000E+00 0.  1.
         13    1    3    3    0    0 -0.14120165570E+02  0.41357307657E+02  0.32893539284E+02  0.54697265919E+02  0.00000000000E+00 0. -1.
<mgrwt>
<rscale>  0 0.87622608E+02</rscale>
<asrwt>0</asrwt>
<pdfrwt beam="2">  1        2 0.31325975E-02 0.87622608E+02</pdfrwt>
<pdfrwt beam="1">  1       -2 0.14502439E-01 0.87622608E+02</pdfrwt>
<totfact> 0.89623138E+04</totfact>
</mgrwt>
</event>
<event>
 5    1  0.1265228E+001  0.9181941E+02  0.7546771E-02  0.1298505E+00
         -2   -1    0    0    0  501 -0.00000000000E+00  0.00000000000E+00  0.15742278402E+02  0.15742278402E+02  0.00000000000E+00 0.  1.
          2   -1    0    0  501    0  0.00000000000E+00 -0.00000000000E+00 -0.13388792642E+03  0.13388792642E+03  0.00000000000E+00 0. -1.
         23    2    1    2    0    0  0.00000000000E+00  0.00000000000E+00 -0.11814564802E+03  0.14963020483E+03  0.91819409982E+02 0.  0.
        -13    1    3    3    0    0 -0.35330070962E+02  0.28154880917E+02 -0.72390847459E+02  0.85330803521E+02  0.00000000000E+00 0.  1.
         13    1    3    3    0    0  0.35330070962E+02 -0.28154880917E+02 -0.45754800563E+02  0.64299401305E+02  0.00000000000E+00 0. -1.
<mgrwt>
<rscale>  0 0.91819410E+02</rscale>
<asrwt>0</asrwt>
<pdfrwt beam="2">  1        2 0.20598142E-01 0.91819410E+02</pdfrwt>
<pdfrwt beam="1">  1       -2 0.24218890E-02 0.91819410E+02</pdfrwt>
<totfact> 0.13202723E+05</totfact>
</mgrwt>
</event>
<event>
 5    1  0.1265228E+001  0.9199108E+02  0.7546771E-02  0.1298100E+00
          3   -1    0    0  501    0  0.00000000000E+00  0.00000000000E+00  0.79607783928E+01  0.79607783928E+01  0.00000000000E+00 0. -1.
         -3   -1    0    0    0  501 -0.00000000000E+00 -0.00000000000E+00 -0.26575163527E+03  0.26575163527E+03  0.00000000000E+00 0.  1.
         23    2    1    2    0    0  0.00000000000E+00  0.00000000000E+00 -0.25779085687E+03  0.27371241366E+03  0.91991083826E+02 0.  0.
        -11    1    3    3    0    0  0.42683563589E+01 -0.45638720096E+02 -0.11757385958E+03  0.12619320146E+03  0.00000000000E+00 0.  1.
         11    1    3    3    0    0 -0.42683563589E+01  0.45638720096E+02 -0.14021699729E+03  0.14751921220E+03  0.00000000000E+00 0. -1.
<mgrwt>
<rscale>  0 0.91991084E+02</rscale>
<asrwt>0</asrwt>
<pdfrwt beam="1">  1        3 0.12247353E-02 0.91991084E+02</pdfrwt>
<pdfrwt beam="2">  1       -3 0.40884862E-01 0.91991084E+02</pdfrwt>
<totfact> 0.24486176E+04</totfact>
</mgrwt>
</event>
<event>
 5    1  0.1265228E+001  0.9156149E+02  0.7546771E-02  0.1299114E+00
         -2   -1    0    0    0  501 -0.00000000000E+00  0.00000000000E+00  0.60100231428E+01  0.60100231428E+01  0.00000000000E+00 0.  1.
          2   -1    0    0  501    0  0.00000000000E+00 -0.00000000000E+00 -0.34873017832E+03  0.34873017832E+03  0.00000000000E+00 0. -1.
         23    2    1    2    0    0  0.00000000000E+00  0.00000000000E+00 -0.34272015517E+03  0.35474020146E+03  0.91561486276E+02 0.  0.
        -11    1    3    3    0    0  0.99604701806E+01 -0.42052241489E+02 -0.11282364677E+03  0.12081712317E+03  0.00000000000E+00 0.  1.
         11    1    3    3    0    0 -0.99604701806E+01  0.42052241489E+02 -0.22989650840E+03  0.23392307829E+03  0.00000000000E+00 0. -1.
<mgrwt>
<rscale>  0 0.91561486E+02</rscale>
<asrwt>0</asrwt>
<pdfrwt beam="2">  1        2 0.53650787E-01 0.91561486E+02</pdfrwt>
<pdfrwt beam="1">  1       -2 0.92461910E-03 0.91561486E+02</pdfrwt>
<totfact> 0.18782648E+05</totfact>
</mgrwt>
</event>
<event>
 5    1  0.1265228E+001  0.9197384E+02  0.7546771E-02  0.1298141E+00
         -2   -1    0    0    0  501 -0.00000000000E+00  0.00000000000E+00  0.13372438630E+03  0.13372438630E+03  0.00000000000E+00 0.  1.
          2   -1    0    0  501    0  0.00000000000E+00 -0.00000000000E+00 -0.15814594568E+02  0.15814594568E+02  0.00000000000E+00 0. -1.
         23    2    1    2    0    0  0.00000000000E+00  0.00000000000E+00  0.11790979173E+03  0.14953898087E+03  0.91973843090E+02 0.  0.
        -11    1    3    3    0    0 -0.27510573527E+02 -0.30204287818E+02  0.93278665455E+02  0.10183339377E+03  0.00000000000E+00 0.  1.
         11    1    3    3    0    0  0.27510573527E+02  0.30204287818E+02  0.24631126279E+02  0.47705587096E+02  0.00000000000E+00 0. -1.
<mgrwt>
<rscale>  0 0.91973843E+02</rscale>
<asrwt>0</asrwt>
<pdfrwt beam="2">  1        2 0.24330146E-02 0.91973843E+02</pdfrwt>
<pdfrwt beam="1">  1       -2 0.20572982E-01 0.91973843E+02</pdfrwt>
<totfact> 0.71166132E+04</totfact>
</mgrwt>
</event>
<event>
 5    1  0.1265228E+001  0.9445515E+02  0.7546771E-02  0.1292408E+00
         -1   -1    0    0    0  501 -0.00000000000E+00  0.00000000000E+00  0.13836462725E+03  0.13836462725E+03  0.00000000000E+00 0.  1.
          1   -1    0    0  501    0  0.00000000000E+00 -0.00000000000E+00 -0.16120042132E+02  0.16120042132E+02  0.00000000000E+00 0. -1.
         23    2    1    2    0    0  0.00000000000E+00  0.00000000000E+00  0.12224458512E+03  0.15448466938E+03  0.94455145352E+02 0.  0.
        -13    1    3    3    0    0 -0.18750176529E+02  0.41898568123E+02  0.42955006583E+02  0.62866459429E+02  0.00000000000E+00 0. -1.
         13    1    3    3    0    0  0.18750176529E+02 -0.41898568123E+02  0.79289578537E+02  0.91618209954E+02  0.00000000000E+00 0.  1.
<mgrwt>
<rscale>  0 0.94455145E+02</rscale>
<asrwt>0</asrwt>
<pdfrwt beam="2">  1        1 0.24800066E-02 0.94455145E+02</pdfrwt>
<pdfrwt beam="1">  1       -1 0.21286865E-01 0.94455145E+02</pdfrwt>
<totfact> 0.69503977E+04</totfact>
</mgrwt>
</event>
<event>
 5    1  0.1265228E+001  0.9190190E+02  0.7546771E-02  0.1298310E+00
         -1   -1    0    0    0  501 -0.00000000000E+00  0.00000000000E+00  0.25356176923E+02  0.25356176923E+02  0.00000000000E+00 0.  1.
          1   -1    0    0  501    0  0.00000000000E+00 -0.00000000000E+00 -0.83273184769E+02  0.83273184769E+02  0.00000000000E+00 0. -1.
         23    2    1    2    0    0  0.00000000000E+00  0.00000000000E+00 -0.57917007846E+02  0.10862936169E+03  0.91901895648E+02 0.  0.
        -11    1    3    3    0    0  0.22491493849E+02  0.85423570387E+01  0.17316271106E+02  0.29642746235E+02  0.00000000000E+00 0.  1.
         11    1    3    3    0    0 -0.22491493849E+02 -0.85423570387E+01 -0.75233278952E+02  0.78986615457E+02  0.00000000000E+00 0. -1.
<mgrwt>
<rscale>  0 0.91901896E+02</rscale>
<asrwt>0</asrwt>
<pdfrwt beam="2">  1        1 0.12811259E-01 0.91901896E+02</pdfrwt>
<pdfrwt beam="1">  1       -1 0.39009503E-02 0.91901896E+02</pdfrwt>
<totfact> 0.99205626E+04</totfact>
</mgrwt>
</event>
<event>
 5    1  0.1265228E+001  0.9154443E+02  0.7546771E-02  0.1299154E+00
         -4   -1    0    0    0  501 -0.00000000000E+00  0.00000000000E+00  0.55651076235E+02  0.55651076235E+02  0.00000000000E+00 0.  1.
          4   -1    0    0  501    0  0.00000000000E+00 -0.00000000000E+00 -0.37646996473E+02  0.37646996473E+02  0.00000000000E+00 0. -1.
         23    2    1    2    0    0  0.00000000000E+00  0.00000000000E+00  0.18004079762E+02  0.93298072707E+02  0.91544434472E+02 0.  0.
        -13    1    3    3    0    0 -0.41540294063E+02 -0.11993751206E+02  0.24311440071E+02  0.49603348851E+02  0.00000000000E+00 0.  1.
         13    1    3    3    0    0  0.41540294063E+02  0.11993751206E+02 -0.63073603091E+01  0.43694723857E+02  0.00000000000E+00 0. -1.
<mgrwt>
<rscale>  0 0.91544434E+02</rscale>
<asrwt>0</asrwt>
<pdfrwt beam="2">  1        4 0.57918456E-02 0.91544434E+02</pdfrwt>
<pdfrwt beam="1">  1       -4 0.85617040E-02 0.91544434E+02</pdfrwt>
<totfact> 0.26587886E+04</totfact>
</mgrwt>
</event>
<event>
 5    1  0.1265228E+001  0.9938411E+02  0.7546771E-02  0.1281596E+00
          1   -1    0    0  501    0  0.00000000000E+00  0.00000000000E+00  0.40577759197E+02  0.40577759197E+02  0.00000000000E+00 0. -1.
         -1   -1    0    0    0  501 -0.00000000000E+00 -0.00000000000E+00 -0.60853543420E+02  0.60853543420E+02  0.00000000000E+00 0.  1.
         23    2    1    2    0    0  0.00000000000E+00  0.00000000000E+00 -0.20275784223E+02  0.10143130262E+03  0.99384112034E+02 0.  0.
        -13    1    3    3    0    0 -0.24669258163E+00  0.49689707251E+02 -0.97139229499E+01  0.50630901266E+02  0.00000000000E+00 0.  1.
         13    1    3    3    0    0  0.24669258163E+00 -0.49689707251E+02 -0.10561861273E+02  0.50800401352E+02  0.00000000000E+00 0. -1.
<mgrwt>
<rscale>  0 0.99384112E+02</rscale>
<asrwt>0</asrwt>
<pdfrwt beam="1">  1        1 0.62427322E-02 0.99384112E+02</pdfrwt>
<pdfrwt beam="2">  1       -1 0.93620836E-02 0.99384112E+02</pdfrwt>
<totfact> 0.71095280E+04</totfact>
</mgrwt>
</event>
<event>
 5    1  0.1265228E+001  0.9119899E+02  0.7546771E-02  0.1299974E+00
          2   -1    0    0  501    0  0.00000000000E+00  0.00000000000E+00  0.18243849530E+03  0.18243849530E+03  0.00000000000E+00 0.  1.
         -2   -1    0    0    0  501 -0.00000000000E+00 -0.00000000000E+00 -0.11397341831E+02  0.11397341831E+02  0.00000000000E+00 0. -1.
         23    2    1    2    0    0  0.00000000000E+00  0.00000000000E+00  0.17104115347E+03  0.19383583713E+03  0.91198988899E+02 0.  0.
        -11    1    3    3    0    0  0.28119283858E+02 -0.84176464509E+01  0.15969009147E+03  0.16236525555E+03  0.00000000000E+00 0.  1.
         11    1    3    3    0    0 -0.28119283858E+02  0.84176464509E+01  0.11351062000E+02  0.31470581580E+02  0.00000000000E+00 0. -1.
<mgrwt>
<rscale>  0 0.91198989E+02</rscale>
<asrwt>0</asrwt>
<pdfrwt beam="1">  1        2 0.28067459E-01 0.91198989E+02</pdfrwt>
<pdfrwt beam="2">  1       -2 0.17534373E-02 0.91198989E+02</pdfrwt>
<totfact> 0.14956267E+05</totfact>
</mgrwt>
</event>
<event>
 5    1  0.1265228E+001  0.9281193E+02  0.7546771E-02  0.1296182E+00
         -1   -1    0    0    0  501 -0.00000000000E+00  0.00000000000E+00  0.50305061939E+02  0.50305061939E+02  0.00000000000E+00 0.  1.
          1   -1    0    0  501    0  0.00000000000E+00 -0.00000000000E+00 -0.42809085333E+02  0.42809085333E+02  0.00000000000E+00 0. -1.
         23    2    1    2    0    0  0.00000000000E+00  0.00000000000E+00  0.74959766065E+01  0.93114147272E+02  0.92811932190E+02 0.  0.
        -13    1    3    3    0    0 -0.38172528262E+02  0.23175264988E+02  0.16409656736E+02  0.47576377073E+02  0.00000000000E+00 0.  1.
         13    1    3    3    0    0  0.38172528262E+02 -0.23175264988E+02 -0.89136801295E+01  0.45537770199E+02  0.00000000000E+00 0. -1.
<mgrwt>
<rscale>  0 0.92811932E+02</rscale>
<asrwt>0</asrwt>
<pdfrwt beam="2">  1        1 0.65860131E-02 0.92811932E+02</pdfrwt>
<pdfrwt beam="1">  1       -1 0.77392403E-02 0.92811932E+02</pdfrwt>
<totfact> 0.87118692E+04</totfact>
</mgrwt>
</event>
<event>
 5    1  0.1265228E+001  0.9031736E+02  0.7546771E-02  0.1302085E+00
          2   -1    0    0  501    0  0.00000000000E+00  0.00000000000E+00  0.22332507669E+03  0.22332507669E+03  0.00000000000E+00 0. -1.
         -2   -1    0    0    0  501 -0.00000000000E+00 -0.00000000000E+00 -0.91315598349E+01  0.91315598349E+01  0.00000000000E+00 0.  1.
         23    2    1    2    0    0  0.00000000000E+00  0.00000000000E+00  0.21419351685E+03  0.23245663652E+03  0.90317358252E+02 0.  0.
        -11    1    3    3    0    0 -0.71276329510E+01  0.42957788932E+02  0.13788879143E+03  0.14460115347E+03  0.00000000000E+00 0. -1.
         11    1    3    3    0    0  0.71276329510E+01 -0.42957788932E+02  0.76304725421E+02  0.87855483056E+02  0.00000000000E+00 0.  1.
<mgrwt>
<rscale>  0 0.90317358E+02</rscale>
<asrwt>0</asrwt>
<pdfrwt beam="1">  1        2 0.34357700E-01 0.90317358E+02</pdfrwt>
<pdfrwt beam="2">  1       -2 0.14048555E-02 0.90317358E+02</pdfrwt>
<totfact> 0.16516622E+05</totfact>
</mgrwt>
</event>
<event>
 5    1  0.1265228E+001  0.9144560E+02  0.7546771E-02  0.1299388E+00
         -2   -1    0    0    0  501 -0.00000000000E+00  0.00000000000E+00  0.49352716639E+02  0.49352716639E+02  0.00000000000E+00 0.  1.
          2   -1    0    0  501    0  0.00000000000E+00 -0.00000000000E+00 -0.42359861856E+02  0.42359861856E+02  0.00000000000E+00 0. -1.
         23    2    1    2    0    0  0.00000000000E+00  0.00000000000E+00  0.69928547832E+01  0.91712578495E+02  0.91445596046E+02 0.  0.
        -11    1    3    3    0    0 -0.16959034590E+02 -0.42415592746E+02  0.54726871883E+01  0.46006974116E+02  0.00000000000E+00 0.  1.
         11    1    3    3    0    0  0.16959034590E+02  0.42415592746E+02  0.15201675949E+01  0.45705604380E+02  0.00000000000E+00 0. -1.
<mgrwt>
<rscale>  0 0.91445596E+02</rscale>
<asrwt>0</asrwt>
<pdfrwt beam="2">  1        2 0.65169018E-02 0.91445596E+02</pdfrwt>
<pdfrwt beam="1">  1       -2 0.75927257E-02 0.91445596E+02</pdfrwt>
<totfact> 0.95994559E+04</totfact>
</mgrwt>
</event>
<event>
 5    1  0.1265228E+001  0.9708231E+02  0.7546771E-02  0.1286554E+00
          1   -1    0    0  501    0  0.00000000000E+00  0.00000000000E+00  0.19047844149E+03  0.19047844149E+03  0.00000000000E+00 0. -1.
         -1   -1    0    0    0  501 -0.00000000000E+00 -0.00000000000E+00 -0.12370132296E+02  0.12370132296E+02  0.00000000000E+00 0.  1.
         23    2    1    2    0    0  0.00000000000E+00  0.00000000000E+00  0.17810830920E+03  0.20284857379E+03  0.97082305716E+02 0.  0.
        -13    1    3    3    0    0  0.15281787145E+02  0.41373842234E+02  0.13140950059E+03  0.13861379688E+03  0.00000000000E+00 0. -1.
         13    1    3    3    0    0 -0.15281787145E+02 -0.41373842234E+02  0.46698808607E+02  0.64234776911E+02  0.00000000000E+00 0.  1.
<mgrwt>
<rscale>  0 0.97082306E+02</rscale>
<asrwt>0</asrwt>
<pdfrwt beam="1">  1        1 0.29304374E-01 0.97082306E+02</pdfrwt>
<pdfrwt beam="2">  1       -1 0.19030974E-02 0.97082306E+02</pdfrwt>
<totfact> 0.99040229E+04</totfact>
</mgrwt>
</event>
<event>
 5    1  0.1265228E+001  0.9019537E+02  0.7546771E-02  0.1302379E+00
         -3   -1    0    0    0  501 -0.00000000000E+00  0.00000000000E+00  0.58232655411E+02  0.58232655411E+02  0.00000000000E+00 0.  1.
          3   -1    0    0  501    0  0.00000000000E+00 -0.00000000000E+00 -0.34925438329E+02  0.34925438329E+02  0.00000000000E+00 0. -1.
         23    2    1    2    0    0  0.00000000000E+00  0.00000000000E+00  0.23307217083E+02  0.93158093740E+02  0.90195366074E+02 0.  0.
        -13    1    3    3    0    0 -0.12077385005E+02 -0.38897909924E+02  0.31651698683E+02  0.51582367671E+02  0.00000000000E+00 0.  1.
         13    1    3    3    0    0  0.12077385005E+02  0.38897909924E+02 -0.83444815999E+01  0.41575726069E+02  0.00000000000E+00 0. -1.
<mgrwt>
<rscale>  0 0.90195366E+02</rscale>
<asrwt>0</asrwt>
<pdfrwt beam="2">  1        3 0.53731444E-02 0.90195366E+02</pdfrwt>
<pdfrwt beam="1">  1       -3 0.89588700E-02 0.90195366E+02</pdfrwt>
<totfact> 0.36238489E+04</totfact>
</mgrwt>
</event>
<event>
 5    1  0.1265228E+001  0.9118871E+02  0.7546771E-02  0.1299998E+00
         -4   -1    0    0    0  501 -0.00000000000E+00  0.00000000000E+00  0.19533326722E+02  0.19533326722E+02  0.00000000000E+00 0.  1.
          4   -1    0    0  501    0  0.00000000000E+00 -0.00000000000E+00 -0.10642556889E+03  0.10642556889E+03  0.00000000000E+00 0. -1.
         23    2    1    2    0    0  0.00000000000E+00  0.00000000000E+00 -0.86892242164E+02  0.12595889561E+03  0.91188714403E+02 0.  0.
        -11    1    3    3    0    0 -0.27537704436E+02  0.80304242351E+01  0.55078801868E+01  0.29208725120E+02  0.00000000000E+00 0.  1.
         11    1    3    3    0    0  0.27537704436E+02 -0.80304242351E+01 -0.92400122351E+02  0.96750170488E+02  0.00000000000E+00 0. -1.
<mgrwt>
<rscale>  0 0.91188714E+02</rscale>
<asrwt>0</asrwt>
<pdfrwt beam="2">  1        4 0.16373164E-01 0.91188714E+02</pdfrwt>
<pdfrwt beam="1">  1       -4 0.30051272E-02 0.91188714E+02</pdfrwt>
<totfact> 0.24930457E+04</totfact>
</mgrwt>
</event>
<event>
 5    1  0.1265228E+001  0.9384466E+02  0.7546771E-02  0.1293800E+00
          1   -1    0    0  501    0  0.00000000000E+00  0.00000000000E+00  0.17934751594E+02  0.17934751594E+02  0.00000000000E+00 0. -1.
         -1   -1    0    0    0  501 -0.00000000000E+00 -0.00000000000E+00 -0.12276194023E+03  0.12276194023E+03  0.00000000000E+00 0.  1.
         23    2    1    2    0    0  0.00000000000E+00  0.00000000000E+00 -0.10482718863E+03  0.14069669182E+03  0.93844656816E+02 0.  0.
        -11    1    3    3    0    0 -0.19217206126E+02  0.16321202400E+02  0.69162623161E+01  0.26144164616E+02  0.00000000000E+00 0. -1.
         11    1    3    3    0    0  0.19217206126E+02 -0.16321202400E+02 -0.11174345095E+03  0.11455252721E+03  0.00000000000E+00 0.  1.
<mgrwt>
<rscale>  0 0.93844657E+02</rscale>
<asrwt>0</asrwt>
<pdfrwt beam="1">  1        1 0.27591925E-02 0.93844657E+02</pdfrwt>
<pdfrwt beam="2">  1       -1 0.18886453E-01 0.93844657E+02</pdfrwt>
<totfact> 0.72537507E+04</totfact>
</mgrwt>
</event>
<event>
 5    1  0.1265228E+001  0.8915134E+02  0.7546771E-02  0.1304920E+00
          2   -1    0    0  501    0  0.00000000000E+00  0.00000000000E+00  0.11987640138E+02  0.11987640138E+02  0.00000000000E+00 0. -1.
         -2   -1    0    0    0  501 -0.00000000000E+00 -0.00000000000E+00 -0.16575323904E+03  0.16575323904E+03  0.00000000000E+00 0.  1.
         23    2    1    2    0    0  0.00000000000E+00  0.00000000000E+00 -0.15376559890E+03  0.17774087918E+03  0.89151336081E+02 0.  0.
        -11    1    3    3    0    0 -0.17247173527E+02  0.21821401902E+02 -0.74359093415E+01  0.28791167454E+02  0.00000000000E+00 0. -1.
         11    1    3    3    0    0  0.17247173527E+02 -0.21821401902E+02 -0.14632968956E+03  0.14894971172E+03  0.00000000000E+00 0.  1.
<mgrwt>
<rscale>  0 0.89151336E+02</rscale>
<asrwt>0</asrwt>
<pdfrwt beam="1">  1        2 0.18442524E-02 0.89151336E+02</pdfrwt>
<pdfrwt beam="2">  1       -2 0.25500498E-01 0.89151336E+02</pdfrwt>
<totfact> 0.71238667E+04</totfact>
</mgrwt>
</event>
<event>
 5    1  0.1265228E+001  0.9143347E+02  0.7546771E-02  0.1299417E+00
         -1   -1    0    0    0  501 -0.00000000000E+00  0.00000000000E+00  0.10300729512E+02  0.10300729512E+02  0.00000000000E+00 0.  1.
          1   -1    0    0  501    0  0.00000000000E+00 -0.00000000000E+00 -0.20290018954E+03  0.20290018954E+03  0.00000000000E+00 0. -1.
         23    2    1    2    0    0  0.00000000000E+00  0.00000000000E+00 -0.19259946003E+03  0.21320091906E+03  0.91433472437E+02 0.  0.
        -11    1    3    3    0    0 -0.35802939611E+02  0.27793623697E+02 -0.11022874567E+03  0.11918352392E+03  0.00000000000E+00 0.  1.
         11    1    3    3    0    0  0.35802939611E+02 -0.27793623697E+02 -0.82370714362E+02  0.94017395132E+02  0.00000000000E+00 0. -1.
<mgrwt>
<rscale>  0 0.91433472E+02</rscale>
<asrwt>0</asrwt>
<pdfrwt beam="2">  1        1 0.31215413E-01 0.91433472E+02</pdfrwt>
<pdfrwt beam="1">  1       -1 0.15847277E-02 0.91433472E+02</pdfrwt>
<totfact> 0.11784503E+05</totfact>
</mgrwt>
</event>
<event>
 5    1  0.1265228E+001  0.9113724E+02  0.7546771E-02  0.1300121E+00
          3   -1    0    0  501    0  0.00000000000E+00  0.00000000000E+00  0.18004413768E+03  0.18004413768E+03  0.00000000000E+00 0. -1.
         -3   -1    0    0    0  501 -0.00000000000E+00 -0.00000000000E+00 -0.11533278999E+02  0.11533278999E+02  0.00000000000E+00 0.  1.
         23    2    1    2    0    0  0.00000000000E+00  0.00000000000E+00  0.16851085868E+03  0.19157741668E+03  0.91137243144E+02 0.  0.
        -11    1    3    3    0    0 -0.10307026600E+02  0.27591688195E+02  0.15734492570E+03  0.16007798630E+03  0.00000000000E+00 0. -1.
         11    1    3    3    0    0  0.10307026600E+02 -0.27591688195E+02  0.11165932981E+02  0.31499430377E+02  0.00000000000E+00 0.  1.
<mgrwt>
<rscale>  0 0.91137243E+02</rscale>
<asrwt>0</asrwt>
<pdfrwt beam="1">  1        3 0.27699096E-01 0.91137243E+02</pdfrwt>
<pdfrwt beam="2">  1       -3 0.17743507E-02 0.91137243E+02</pdfrwt>
<totfact> 0.28973964E+04</totfact>
</mgrwt>
</event>
<event>
 4    1  0.1265228E+001  0.1338668E+03  0.7546771E-02  0.1221828E+00
          2   -1    0    0  501    0  0.00000000000E+00  0.00000000000E+00  0.14699305651E+03  0.14699305651E+03  0.00000000000E+00 0. -1.
         -2   -1    0    0    0  501 -0.00000000000E+00 -0.00000000000E+00 -0.30478194690E+02  0.30478194690E+02  0.00000000000E+00 0.  1.
        -13    1    1    2    0    0  0.95747797302E+01 -0.51645999264E+02  0.32580623537E+01  0.52626995137E+02  0.00000000000E+00 0.  1.
         13    1    1    2    0    0 -0.95747797302E+01  0.51645999264E+02  0.11325679947E+03  0.12484425607E+03  0.00000000000E+00 0. -1.
<mgrwt>
<rscale>  0 0.13386684E+03</rscale>
<asrwt>0</asrwt>
<pdfrwt beam="1">  1        2 0.22614316E-01 0.13386684E+03</pdfrwt>
<pdfrwt beam="2">  1       -2 0.46889531E-02 0.13386684E+03</pdfrwt>
<totfact> 0.47532456E+04</totfact>
</mgrwt>
</event>
<event>
 5    1  0.1265228E+001  0.9238043E+02  0.7546771E-02  0.1297187E+00
         -1   -1    0    0    0  501 -0.00000000000E+00  0.00000000000E+00  0.24043601451E+02  0.24043601451E+02  0.00000000000E+00 0.  1.
          1   -1    0    0  501    0  0.00000000000E+00 -0.00000000000E+00 -0.88736113263E+02  0.88736113263E+02  0.00000000000E+00 0. -1.
         23    2    1    2    0    0  0.00000000000E+00  0.00000000000E+00 -0.64692511812E+02  0.11277971471E+03  0.92380425233E+02 0.  0.
        -13    1    3    3    0    0  0.30517641230E+02  0.87822155947E+01  0.86027274363E+01  0.32900769844E+02  0.00000000000E+00 0.  1.
         13    1    3    3    0    0 -0.30517641230E+02 -0.87822155947E+01 -0.73295239248E+02  0.79878944869E+02  0.00000000000E+00 0. -1.
<mgrwt>
<rscale>  0 0.92380425E+02</rscale>
<asrwt>0</asrwt>
<pdfrwt beam="2">  1        1 0.13651710E-01 0.92380425E+02</pdfrwt>
<pdfrwt beam="1">  1       -1 0.36990156E-02 0.92380425E+02</pdfrwt>
<totfact> 0.98809530E+04</totfact>
</mgrwt>
</event>
<event>
 5    1  0.1265228E+001  0.9173080E+02  0.7546771E-02  0.1298714E+00
         -2   -1    0    0    0  501 -0.00000000000E+00  0.00000000000E+00  0.11236102434E+03  0.11236102434E+03  0.00000000000E+00 0.  1.
          2   -1    0    0  501    0  0.00000000000E+00 -0.00000000000E+00 -0.18722104419E+02  0.18722104419E+02  0.00000000000E+00 0. -1.
         23    2    1    2    0    0  0.00000000000E+00  0.00000000000E+00  0.93638919917E+02  0.13108312876E+03  0.91730798106E+02 0.  0.
        -11    1    3    3    0    0 -0.18292576207E+02  0.17318461177E+02  0.10159106174E+03  0.10466752728E+03  0.00000000000E+00 0.  1.
         11    1    3    3    0    0  0.18292576207E+02 -0.17318461177E+02 -0.79521418198E+01  0.26415601477E+02  0.00000000000E+00 0. -1.
<mgrwt>
<rscale>  0 0.91730798E+02</rscale>
<asrwt>0</asrwt>
<pdfrwt beam="2">  1        2 0.28803238E-02 0.91730798E+02</pdfrwt>
<pdfrwt beam="1">  1       -2 0.17286311E-01 0.91730798E+02</pdfrwt>
<totfact> 0.75853254E+04</totfact>
</mgrwt>
</event>
<event>
 5    1  0.1265228E+001  0.9067401E+02  0.7546771E-02  0.1301228E+00
          1   -1    0    0  501    0  0.00000000000E+00  0.00000000000E+00  0.18138791089E+03  0.18138791089E+03  0.00000000000E+00 0. -1.
         -1   -1    0    0    0  501 -0.00000000000E+00 -0.00000000000E+00 -0.11331758082E+02  0.11331758082E+02  0.00000000000E+00 0.  1.
         23    2    1    2    0    0  0.00000000000E+00  0.00000000000E+00  0.17005615281E+03  0.19271966897E+03  0.90674007855E+02 0.  0.
        -11    1    3    3    0    0 -0.36791848618E+02  0.23858293807E+02  0.10950131452E+03  0.11795506004E+03  0.00000000000E+00 0. -1.
         11    1    3    3    0    0  0.36791848618E+02 -0.23858293807E+02  0.60554838289E+02  0.74764608930E+02  0.00000000000E+00 0.  1.
<mgrwt>
<rscale>  0 0.90674008E+02</rscale>
<asrwt>0</asrwt>
<pdfrwt beam="1">  1        1 0.27905830E-01 0.90674008E+02</pdfrwt>
<pdfrwt beam="2">  1       -1 0.17433475E-02 0.90674008E+02</pdfrwt>
<totfact> 0.11793506E+05</totfact>
</mgrwt>
</event>
<event>
 5    1  0.1265228E+001  0.8439370E+02  0.7546771E-02  0.1317026E+00
          3   -1    0    0  501    0  0.00000000000E+00  0.00000000000E+00  0.63464991794E+02  0.63464991794E+02  0.00000000000E+00 0. -1.
         -3   -1    0    0    0  501 -0.00000000000E+00 -0.00000000000E+00 -0.28056004882E+02  0.28056004882E+02  0.00000000000E+00 0.  1.
         23    2    1    2    0    0  0.00000000000E+00  0.00000000000E+00  0.35408986913E+02  0.91520996676E+02  0.84393699281E+02 0.  0.
        -13    1    3    3    0    0  0.35599686388E+01 -0.23041159565E+02 -0.20436901182E+02  0.31003795585E+02  0.00000000000E+00 0.  1.
         13    1    3    3    0    0 -0.35599686388E+01  0.23041159565E+02  0.55845888095E+02  0.60517201091E+02  0.00000000000E+00 0. -1.
<mgrwt>
<rscale>  0 0.84393699E+02</rscale>
<asrwt>0</asrwt>
<pdfrwt beam="1">  1        3 0.97638449E-02 0.84393699E+02</pdfrwt>
<pdfrwt beam="2">  1       -3 0.43163084E-02 0.84393699E+02</pdfrwt>
<totfact> 0.43536006E+04</totfact>
</mgrwt>
</event>
<event>
 5    1  0.1265228E+001  0.8628422E+02  0.7546771E-02  0.1312108E+00
          1   -1    0    0  501    0  0.00000000000E+00  0.00000000000E+00  0.14121815405E+02  0.14121815405E+02  0.00000000000E+00 0. -1.
         -1   -1    0    0    0  501 -0.00000000000E+00 -0.00000000000E+00 -0.13179902628E+03  0.13179902628E+03  0.00000000000E+00 0.  1.
         23    2    1    2    0    0  0.00000000000E+00  0.00000000000E+00 -0.11767721088E+03  0.14592084169E+03  0.86284216859E+02 0.  0.
        -11    1    3    3    0    0 -0.42606860580E+02  0.89620356748E+00 -0.47482112401E+02  0.63802027769E+02  0.00000000000E+00 0.  1.
         11    1    3    3    0    0  0.42606860580E+02 -0.89620356748E+00 -0.70195098476E+02  0.82118813918E+02  0.00000000000E+00 0. -1.
<mgrwt>
<rscale>  0 0.86284217E+02</rscale>
<asrwt>0</asrwt>
<pdfrwt beam="1">  1        1 0.21725869E-02 0.86284217E+02</pdfrwt>
<pdfrwt beam="2">  1       -1 0.20276774E-01 0.86284217E+02</pdfrwt>
<totfact> 0.88793108E+04</totfact>
</mgrwt>
</event>
<event>
 5    1  0.1265228E+001  0.9579814E+02  0.7546771E-02  0.1289389E+00
         -1   -1    0    0    0  501 -0.00000000000E+00  0.00000000000E+00  0.11018532423E+02  0.11018532423E+02  0.00000000000E+00 0.  1.
          1   -1    0    0  501    0  0.00000000000E+00 -0.00000000000E+00 -0.20822382480E+03  0.20822382480E+03  0.00000000000E+00 0. -1.
         23    2    1    2    0    0  0.00000000000E+00  0.00000000000E+00 -0.19720529238E+03  0.21924235723E+03  0.95798141211E+02 0.  0.
        -13    1    3    3    0    0  0.28812518535E+02 -0.95721806727E+01 -0.13815739049E+02  0.33356596238E+02  0.00000000000E+00 0.  1.
         13    1    3    3    0    0 -0.28812518535E+02  0.95721806727E+01 -0.18338955333E+03  0.18588576099E+03  0.00000000000E+00 0. -1.
<mgrwt>
<rscale>  0 0.95798141E+02</rscale>
<asrwt>0</asrwt>
<pdfrwt beam="2">  1        1 0.32034433E-01 0.95798141E+02</pdfrwt>
<pdfrwt beam="1">  1       -1 0.16951589E-02 0.95798141E+02</pdfrwt>
<totfact> 0.10448052E+05</totfact>
</mgrwt>
</event>
<event>
 4    1  0.1265228E+001  0.2908979E+03  0.7546771E-02  0.1089881E+00
         -1   -1    0    0    0  501 -0.00000000000E+00  0.00000000000E+00  0.11903702969E+03  0.11903702969E+03  0.00000000000E+00 0.  1.
          1   -1    0    0  501    0  0.00000000000E+00 -0.00000000000E+00 -0.17772113426E+03  0.17772113426E+03  0.00000000000E+00 0. -1.
        -11    1    1    2    0    0 -0.95018614767E+02  0.85041288025E+02  0.42030506561E+02  0.13426511573E+03  0.00000000000E+00 0.  1.
         11    1    1    2    0    0  0.95018614767E+02 -0.85041288025E+02 -0.10071461114E+03  0.16249304821E+03  0.00000000000E+00 0. -1.
<mgrwt>
<rscale>  0 0.29089789E+03</rscale>
<asrwt>0</asrwt>
<pdfrwt beam="2">  1        1 0.27341713E-01 0.29089789E+03</pdfrwt>
<pdfrwt beam="1">  1       -1 0.18313389E-01 0.29089789E+03</pdfrwt>
<totfact> 0.39573669E+03</totfact>
</mgrwt>
</event>
<event>
 5    1  0.1265228E+001  0.9182407E+02  0.7546771E-02  0.1298494E+00
          2   -1    0    0  501    0  0.00000000000E+00  0.00000000000E+00  0.38852945584E+02  0.38852945584E+02  0.00000000000E+00 0. -1.
         -2   -1    0    0    0  501 -0.00000000000E+00 -0.00000000000E+00 -0.54253674288E+02  0.54253674288E+02  0.00000000000E+00 0.  1.
         23    2    1    2    0    0  0.00000000000E+00  0.00000000000E+00 -0.15400728704E+02  0.93106619872E+02  0.91824072113E+02 0.  0.
        -11    1    3    3    0    0  0.31000366016E+02 -0.33089747579E+02 -0.15009442809E+02  0.47762301676E+02  0.00000000000E+00 0.  1.
         11    1    3    3    0    0 -0.31000366016E+02  0.33089747579E+02 -0.39128589480E+00  0.45344318196E+02  0.00000000000E+00 0. -1.
<mgrwt>
<rscale>  0 0.91824072E+02</rscale>
<asrwt>0</asrwt>
<pdfrwt beam="1">  1        2 0.59773763E-02 0.91824072E+02</pdfrwt>
<pdfrwt beam="2">  1       -2 0.83467191E-02 0.91824072E+02</pdfrwt>
<totfact> 0.92744923E+04</totfact>
</mgrwt>
</event>
<event>
 5    1  0.1265228E+001  0.9227515E+02  0.7546771E-02  0.1297434E+00
         -1   -1    0    0    0  501 -0.00000000000E+00  0.00000000000E+00  0.27496101111E+02  0.27496101111E+02  0.00000000000E+00 0.  1.
          1   -1    0    0  501    0  0.00000000000E+00 -0.00000000000E+00 -0.77417363511E+02  0.77417363511E+02  0.00000000000E+00 0. -1.
         23    2    1    2    0    0  0.00000000000E+00  0.00000000000E+00 -0.49921262400E+02  0.10491346462E+03  0.92275146272E+02 0.  0.
        -11    1    3    3    0    0 -0.12536351696E+02 -0.23441875181E+02 -0.67834766420E+02  0.72857649984E+02  0.00000000000E+00 0. -1.
         11    1    3    3    0    0  0.12536351696E+02  0.23441875181E+02  0.17913504020E+02  0.32055814639E+02  0.00000000000E+00 0.  1.
<mgrwt>
<rscale>  0 0.92275146E+02</rscale>
<asrwt>0</asrwt>
<pdfrwt beam="2">  1        1 0.11910363E-01 0.92275146E+02</pdfrwt>
<pdfrwt beam="1">  1       -1 0.42301695E-02 0.92275146E+02</pdfrwt>
<totfact> 0.96975733E+04</totfact>
</mgrwt>
</event>
<event>
 5    1  0.1265228E+001  0.9266181E+02  0.7546771E-02  0.1296531E+00
          1   -1    0    0  501    0  0.00000000000E+00  0.00000000000E+00  0.20136931172E+03  0.20136931172E+03  0.00000000000E+00 0. -1.
         -1   -1    0    0    0  501 -0.00000000000E+00 -0.00000000000E+00 -0.10659780379E+02  0.10659780379E+02  0.00000000000E+00 0.  1.
         23    2    1    2    0    0  0.00000000000E+00  0.00000000000E+00  0.19070953134E+03  0.21202909209E+03  0.92661807406E+02 0.  0.
        -11    1    3    3    0    0  0.12983015337E+02  0.41382759206E+02  0.58073108706E+02  0.72481565943E+02  0.00000000000E+00 0.  1.
         11    1    3    3    0    0 -0.12983015337E+02 -0.41382759206E+02  0.13263642263E+03  0.13954752615E+03  0.00000000000E+00 0. -1.
<mgrwt>
<rscale>  0 0.92661807E+02</rscale>
<asrwt>0</asrwt>
<pdfrwt beam="1">  1        1 0.30979891E-01 0.92661807E+02</pdfrwt>
<pdfrwt beam="2">  1       -1 0.16399664E-02 0.92661807E+02</pdfrwt>
<totfact> 0.11352814E+05</totfact>
</mgrwt>
</event>
<event>
 5    1  0.1265228E+001  0.9137988E+02  0.7546771E-02  0.1299544E+00
         -4   -1    0    0    0  501 -0.00000000000E+00  0.00000000000E+00  0.37038332490E+02  0.37038332490E+02  0.00000000000E+00 0.  1.
          4   -1    0    0  501    0  0.00000000000E+00 -0.00000000000E+00 -0.56362430675E+02  0.56362430675E+02  0.00000000000E+00 0. -1.
         23    2    1    2    0    0  0.00000000000E+00  0.00000000000E+00 -0.19324098185E+02  0.93400763166E+02  0.91379876282E+02 0.  0.
        -11    1    3    3    0    0  0.89907067401E+00 -0.29748686934E+02  0.25771278360E+02  0.39369423296E+02  0.00000000000E+00 0.  1.
         11    1    3    3    0    0 -0.89907067401E+00  0.29748686934E+02 -0.45095376545E+02  0.54031339870E+02  0.00000000000E+00 0. -1.
<mgrwt>
<rscale>  0 0.91379876E+02</rscale>
<asrwt>0</asrwt>
<pdfrwt beam="2">  1        4 0.86711432E-02 0.91379876E+02</pdfrwt>
<pdfrwt beam="1">  1       -4 0.56982050E-02 0.91379876E+02</pdfrwt>
<totfact> 0.26711805E+04</totfact>
</mgrwt>
</event>
<event>
 5    1  0.1265228E+001  0.8883507E+02  0.7546771E-02  0.1305698E+00
         -1   -1    0    0    0  501 -0.00000000000E+00  0.00000000000E+00  0.86454868567E+01  0.86454868567E+01  0.00000000000E+00 0.  1.
          1   -1    0    0  501    0  0.00000000000E+00 -0.00000000000E+00 -0.22820201826E+03  0.22820201826E+03  0.00000000000E+00 0. -1.
         23    2    1    2    0    0  0.00000000000E+00  0.00000000000E+00 -0.21955653141E+03  0.23684750512E+03  0.88835073019E+02 0.  0.
        -11    1    3    3    0    0 -0.16198203075E+02  0.37019766565E+02 -0.60611662655E+02  0.72846541092E+02  0.00000000000E+00 0.  1.
         11    1    3    3    0    0  0.16198203075E+02 -0.37019766565E+02 -0.15894486875E+03  0.16400096403E+03  0.00000000000E+00 0. -1.
<mgrwt>
<rscale>  0 0.88835073E+02</rscale>
<asrwt>0</asrwt>
<pdfrwt beam="2">  1        1 0.35108003E-01 0.88835073E+02</pdfrwt>
<pdfrwt beam="1">  1       -1 0.13300749E-02 0.88835073E+02</pdfrwt>
<totfact> 0.13022891E+05</totfact>
</mgrwt>
</event>
<event>
 5    1  0.1265228E+001  0.8968199E+02  0.7546771E-02  0.1303624E+00
          3   -1    0    0  501    0  0.00000000000E+00  0.00000000000E+00  0.11759975138E+02  0.11759975138E+02  0.00000000000E+00 0. -1.
         -3   -1    0    0    0  501 -0.00000000000E+00 -0.00000000000E+00 -0.17097952351E+03  0.17097952351E+03  0.00000000000E+00 0.  1.
         23    2    1    2    0    0  0.00000000000E+00  0.00000000000E+00 -0.15921954837E+03  0.18273949865E+03  0.89681992518E+02 0.  0.
        -11    1    3    3    0    0 -0.16796748744E+02  0.40824701031E+02 -0.63574714628E+02  0.77398522742E+02  0.00000000000E+00 0.  1.
         11    1    3    3    0    0  0.16796748744E+02 -0.40824701031E+02 -0.95644833743E+02  0.10534097590E+03  0.00000000000E+00 0. -1.
<mgrwt>
<rscale>  0 0.89681993E+02</rscale>
<asrwt>0</asrwt>
<pdfrwt beam="1">  1        3 0.18092270E-02 0.89681993E+02</pdfrwt>
<pdfrwt beam="2">  1       -3 0.26304541E-01 0.89681993E+02</pdfrwt>
<totfact> 0.30755556E+04</totfact>
</mgrwt>
</event>
<event>
 5    1  0.1265228E+001  0.8829796E+02  0.7546771E-02  0.1307027E+00
         -1   -1    0    0    0  501 -0.00000000000E+00  0.00000000000E+00  0.41030067778E+02  0.41030067778E+02  0.00000000000E+00 0.  1.
          1   -1    0    0  501    0  0.00000000000E+00 -0.00000000000E+00 -0.47504973100E+02  0.47504973100E+02  0.00000000000E+00 0. -1.
         23    2    1    2    0    0  0.00000000000E+00  0.00000000000E+00 -0.64749053222E+01  0.88535040878E+02  0.88297956173E+02 0.  0.
        -13    1    3    3    0    0  0.14068049694E+02 -0.39230609980E+02 -0.17843015002E+02  0.45335680937E+02  0.00000000000E+00 0.  1.
         13    1    3    3    0    0 -0.14068049694E+02  0.39230609980E+02  0.11368109680E+02  0.43199359941E+02  0.00000000000E+00 0. -1.
<mgrwt>
<rscale>  0 0.88297956E+02</rscale>
<asrwt>0</asrwt>
<pdfrwt beam="2">  1        1 0.73084574E-02 0.88297956E+02</pdfrwt>
<pdfrwt beam="1">  1       -1 0.63123181E-02 0.88297956E+02</pdfrwt>
<totfact> 0.10176582E+05</totfact>
</mgrwt>
</event>
<event>
 5    1  0.1265228E+001  0.9198370E+02  0.7546771E-02  0.1298118E+00
         -2   -1    0    0    0  501 -0.00000000000E+00  0.00000000000E+00  0.10920518689E+02  0.10920518689E+02  0.00000000000E+00 0. -1.
          2   -1    0    0  501    0  0.00000000000E+00 -0.00000000000E+00 -0.19369502162E+03  0.19369502162E+03  0.00000000000E+00 0.  1.
         23    2    1    2    0    0  0.00000000000E+00  0.00000000000E+00 -0.18277450293E+03  0.20461554031E+03  0.91983696459E+02 0.  0.
        -11    1    3    3    0    0 -0.22642567461E+02 -0.26746833051E+02 -0.15764420530E+03  0.16149233544E+03  0.00000000000E+00 0.  1.
         11    1    3    3    0    0  0.22642567461E+02  0.26746833051E+02 -0.25130297626E+02  0.43123204870E+02  0.00000000000E+00 0. -1.
<mgrwt>
<rscale>  0 0.91983696E+02</rscale>
<asrwt>0</asrwt>
<pdfrwt beam="2">  1        2 0.29799237E-01 0.91983696E+02</pdfrwt>
<pdfrwt beam="1">  1       -2 0.16800796E-02 0.91983696E+02</pdfrwt>
<totfact> 0.14931082E+05</totfact>
</mgrwt>
</event>
<event>
 5    1  0.1265228E+001  0.8702005E+02  0.7546771E-02  0.1310233E+00
          2   -1    0    0  501    0  0.00000000000E+00  0.00000000000E+00  0.45732585813E+02  0.45732585813E+02  0.00000000000E+00 0. -1.
         -2   -1    0    0    0  501 -0.00000000000E+00 -0.00000000000E+00 -0.41395478972E+02  0.41395478972E+02  0.00000000000E+00 0.  1.
         23    2    1    2    0    0  0.00000000000E+00  0.00000000000E+00  0.43371068412E+01  0.87128064785E+02  0.87020050434E+02 0.  0.
        -13    1    3    3    0    0  0.23650166954E+02  0.32505624885E+02  0.18837829647E+02  0.44393804432E+02  0.00000000000E+00 0. -1.
         13    1    3    3    0    0 -0.23650166954E+02 -0.32505624885E+02 -0.14500722806E+02  0.42734260354E+02  0.00000000000E+00 0.  1.
<mgrwt>
<rscale>  0 0.87020050E+02</rscale>
<asrwt>0</asrwt>
<pdfrwt beam="1">  1        2 0.70357824E-02 0.87020050E+02</pdfrwt>
<pdfrwt beam="2">  1       -2 0.63685352E-02 0.87020050E+02</pdfrwt>
<totfact> 0.11281974E+05</totfact>
</mgrwt>
</event>
<event>
 5    1  0.1265228E+001  0.9112580E+02  0.7546771E-02  0.1300148E+00
         -2   -1    0    0    0  501 -0.00000000000E+00  0.00000000000E+00  0.91432944924E+01  0.91432944924E+01  0.00000000000E+00 0.  1.
          2   -1    0    0  501    0  0.00000000000E+00 -0.00000000000E+00 -0.22704924107E+03  0.22704924107E+03  0.00000000000E+00 0. -1.
         23    2    1    2    0    0  0.00000000000E+00  0.00000000000E+00 -0.21790594658E+03  0.23619253556E+03  0.91125804806E+02 0.  0.
        -11    1    3    3    0    0  0.25391043777E+02 -0.35121367366E+02 -0.72503035506E+02  0.84468371047E+02  0.00000000000E+00 0.  1.
         11    1    3    3    0    0 -0.25391043777E+02  0.35121367366E+02 -0.14540291107E+03  0.15172416452E+03  0.00000000000E+00 0. -1.
<mgrwt>
<rscale>  0 0.91125805E+02</rscale>
<asrwt>0</asrwt>
<pdfrwt beam="2">  1        2 0.34930649E-01 0.91125805E+02</pdfrwt>
<pdfrwt beam="1">  1       -2 0.14066608E-02 0.91125805E+02</pdfrwt>
<totfact> 0.16224747E+05</totfact>
</mgrwt>
</event>
<event>
 5    1  0.1265228E+001  0.9107138E+02  0.7546771E-02  0.1300278E+00
          3   -1    0    0  501    0  0.00000000000E+00  0.00000000000E+00  0.30710692601E+02  0.30710692601E+02  0.00000000000E+00 0. -1.
         -3   -1    0    0    0  501 -0.00000000000E+00 -0.00000000000E+00 -0.67517176676E+02  0.67517176676E+02  0.00000000000E+00 0.  1.
         23    2    1    2    0    0  0.00000000000E+00  0.00000000000E+00 -0.36806484075E+02  0.98227869277E+02  0.91071384270E+02 0.  0.
        -11    1    3    3    0    0 -0.65775254002E+01  0.44567249110E+02 -0.25557391732E+02  0.51794631051E+02  0.00000000000E+00 0. -1.
         11    1    3    3    0    0  0.65775254002E+01 -0.44567249110E+02 -0.11249092343E+02  0.46433238226E+02  0.00000000000E+00 0.  1.
<mgrwt>
<rscale>  0 0.91071384E+02</rscale>
<asrwt>0</asrwt>
<pdfrwt beam="1">  1        3 0.47247220E-02 0.91071384E+02</pdfrwt>
<pdfrwt beam="2">  1       -3 0.10387258E-01 0.91071384E+02</pdfrwt>
<totfact> 0.34914162E+04</totfact>
</mgrwt>
</event>
<event>
 5    1  0.1265228E+001  0.9005666E+02  0.7546771E-02  0.1302715E+00
         -4   -1    0    0    0  501 -0.00000000000E+00  0.00000000000E+00  0.44728916482E+02  0.44728916482E+02  0.00000000000E+00 0. -1.
          4   -1    0    0  501    0  0.00000000000E+00 -0.00000000000E+00 -0.45329745599E+02  0.45329745599E+02  0.00000000000E+00 0.  1.
         23    2    1    2    0    0  0.00000000000E+00  0.00000000000E+00 -0.60082911639E+00  0.90058662081E+02  0.90056657834E+02 0.  0.
        -11    1    3    3    0    0  0.40328435765E+02 -0.42116944594E+01  0.19281372146E+02  0.44898690552E+02  0.00000000000E+00 0. -1.
         11    1    3    3    0    0 -0.40328435765E+02  0.42116944594E+01 -0.19882201262E+02  0.45159971529E+02  0.00000000000E+00 0.  1.
<mgrwt>
<rscale>  0 0.90056658E+02</rscale>
<asrwt>0</asrwt>
<pdfrwt beam="2">  1        4 0.69738070E-02 0.90056658E+02</pdfrwt>
<pdfrwt beam="1">  1       -4 0.68813718E-02 0.90056658E+02</pdfrwt>
<totfact> 0.28010904E+04</totfact>
</mgrwt>
</event>
<event>
 5    1  0.1265228E+001  0.9064640E+02  0.7546771E-02  0.1301294E+00
          2   -1    0    0  501    0  0.00000000000E+00  0.00000000000E+00  0.12396348796E+02  0.12396348796E+02  0.00000000000E+00 0.  1.
         -2   -1    0    0    0  501 -0.00000000000E+00 -0.00000000000E+00 -0.16570949373E+03  0.16570949373E+03  0.00000000000E+00 0. -1.
         23    2    1    2    0    0  0.00000000000E+00  0.00000000000E+00 -0.15331314494E+03  0.17810584253E+03  0.90646404960E+02 0.  0.
        -13    1    3    3    0    0  0.31550422266E+02 -0.46048921210E+00 -0.12729682748E+02  0.34024785354E+02  0.00000000000E+00 0.  1.
         13    1    3    3    0    0 -0.31550422266E+02  0.46048921210E+00 -0.14058346219E+03  0.14408105717E+03  0.00000000000E+00 0. -1.
<mgrwt>
<rscale>  0 0.90646405E+02</rscale>
<asrwt>0</asrwt>
<pdfrwt beam="1">  1        2 0.19071306E-02 0.90646405E+02</pdfrwt>
<pdfrwt beam="2">  1       -2 0.25493768E-01 0.90646405E+02</pdfrwt>
<totfact> 0.68302638E+04</totfact>
</mgrwt>
</event>
<event>
 5    1  0.1265228E+001  0.9121681E+02  0.7546771E-02  0.1299931E+00
         -2   -1    0    0    0  501 -0.00000000000E+00  0.00000000000E+00  0.68996880350E+02  0.68996880350E+02  0.00000000000E+00 0.  1.
          2   -1    0    0  501    0  0.00000000000E+00 -0.00000000000E+00 -0.30148123411E+02  0.30148123411E+02  0.00000000000E+00 0. -1.
         23    2    1    2    0    0  0.00000000000E+00  0.00000000000E+00  0.38848756939E+02  0.99145003761E+02  0.91216806868E+02 0.  0.
        -13    1    3    3    0    0  0.41273168451E+02  0.10592105262E+02  0.37100029545E+02  0.56498489538E+02  0.00000000000E+00 0.  1.
         13    1    3    3    0    0 -0.41273168451E+02 -0.10592105262E+02  0.17487273938E+01  0.42646514223E+02  0.00000000000E+00 0. -1.
<mgrwt>
<rscale>  0 0.91216807E+02</rscale>
<asrwt>0</asrwt>
<pdfrwt beam="2">  1        2 0.46381728E-02 0.91216807E+02</pdfrwt>
<pdfrwt beam="1">  1       -2 0.10614905E-01 0.91216807E+02</pdfrwt>
<totfact> 0.88467192E+04</totfact>
</mgrwt>
</event>
<event>
 5    1  0.1265228E+001  0.9180523E+02  0.7546771E-02  0.1298538E+00
          1   -1    0    0  501    0  0.00000000000E+00  0.00000000000E+00  0.14155010620E+02  0.14155010620E+02  0.00000000000E+00 0. -1.
         -1   -1    0    0    0  501 -0.00000000000E+00 -0.00000000000E+00 -0.14885541376E+03  0.14885541376E+03  0.00000000000E+00 0.  1.
         23    2    1    2    0    0  0.00000000000E+00  0.00000000000E+00 -0.13470040314E+03  0.16301042438E+03  0.91805227795E+02 0.  0.
        -13    1    3    3    0    0  0.19429924839E+02 -0.31135610679E+02 -0.11630371043E+03  0.12195696491E+03  0.00000000000E+00 0.  1.
         13    1    3    3    0    0 -0.19429924839E+02  0.31135610679E+02 -0.18396692717E+02  0.41053459471E+02  0.00000000000E+00 0. -1.
<mgrwt>
<rscale>  0 0.91805228E+02</rscale>
<asrwt>0</asrwt>
<pdfrwt beam="1">  1        1 0.21776940E-02 0.91805228E+02</pdfrwt>
<pdfrwt beam="2">  1       -1 0.22900832E-01 0.91805228E+02</pdfrwt>
<totfact> 0.73597334E+04</totfact>
</mgrwt>
</event>
<event>
 5    1  0.1265228E+001  0.9288272E+02  0.7546771E-02  0.1296017E+00
         -2   -1    0    0    0  501 -0.00000000000E+00  0.00000000000E+00  0.14653635104E+02  0.14653635104E+02  0.00000000000E+00 0. -1.
          2   -1    0    0  501    0  0.00000000000E+00 -0.00000000000E+00 -0.14718531360E+03  0.14718531360E+03  0.00000000000E+00 0.  1.
         23    2    1    2    0    0  0.00000000000E+00  0.00000000000E+00 -0.13253167850E+03  0.16183894871E+03  0.92882719130E+02 0.  0.
        -11    1    3    3    0    0 -0.21414616946E+02 -0.41083210591E+02 -0.60651124692E+02  0.76321523424E+02  0.00000000000E+00 0.  1.
         11    1    3    3    0    0  0.21414616946E+02  0.41083210591E+02 -0.71880553806E+02  0.85517425282E+02  0.00000000000E+00 0. -1.
<mgrwt>
<rscale>  0 0.92882719E+02</rscale>
<asrwt>0</asrwt>
<pdfrwt beam="2">  1        2 0.22643894E-01 0.92882719E+02</pdfrwt>
<pdfrwt beam="1">  1       -2 0.22544055E-02 0.92882719E+02</pdfrwt>
<totfact> 0.13208022E+05</totfact>
</mgrwt>
</event>
<event>
 5    1  0.1265228E+001  0.9199211E+02  0.7546771E-02  0.1298098E+00
          4   -1    0    0  501    0  0.00000000000E+00  0.00000000000E+00  0.30803125151E+02  0.30803125151E+02  0.00000000000E+00 0. -1.
         -4   -1    0    0    0  501 -0.00000000000E+00 -0.00000000000E+00 -0.68682552337E+02  0.68682552337E+02  0.00000000000E+00 0.  1.
         23    2    1    2    0    0  0.00000000000E+00  0.00000000000E+00 -0.37879427187E+02  0.99485677488E+02  0.91992113908E+02 0.  0.
        -11    1    3    3    0    0 -0.40692232806E+01 -0.37819857658E+02 -0.46906183694E+02  0.60391144054E+02  0.00000000000E+00 0.  1.
         11    1    3    3    0    0  0.40692232806E+01  0.37819857658E+02  0.90267565073E+01  0.39094533434E+02  0.00000000000E+00 0. -1.
<mgrwt>
<rscale>  0 0.91992114E+02</rscale>
<asrwt>0</asrwt>
<pdfrwt beam="1">  1        4 0.47389424E-02 0.91992114E+02</pdfrwt>
<pdfrwt beam="2">  1       -4 0.10566546E-01 0.91992114E+02</pdfrwt>
<totfact> 0.25856902E+04</totfact>
</mgrwt>
</event>
<event>
 5    1  0.1265228E+001  0.8829997E+02  0.7546771E-02  0.1307022E+00
         -3   -1    0    0    0  501 -0.00000000000E+00  0.00000000000E+00  0.26551088511E+02  0.26551088511E+02  0.00000000000E+00 0.  1.
          3   -1    0    0  501    0  0.00000000000E+00 -0.00000000000E+00 -0.73413982443E+02  0.73413982443E+02  0.00000000000E+00 0. -1.
         23    2    1    2    0    0  0.00000000000E+00  0.00000000000E+00 -0.46862893933E+02  0.99965070954E+02  0.88299969326E+02 0.  0.
        -13    1    3    3    0    0  0.15369044345E+02 -0.35626965573E+02 -0.47279260282E+02  0.61162215892E+02  0.00000000000E+00 0. -1.
         13    1    3    3    0    0 -0.15369044345E+02  0.35626965573E+02  0.41636634922E+00  0.38802855062E+02  0.00000000000E+00 0.  1.
<mgrwt>
<rscale>  0 0.88299969E+02</rscale>
<asrwt>0</asrwt>
<pdfrwt beam="2">  1        3 0.11294459E-01 0.88299969E+02</pdfrwt>
<pdfrwt beam="1">  1       -3 0.40847828E-02 0.88299969E+02</pdfrwt>
<totfact> 0.37824043E+04</totfact>
</mgrwt>
</event>
<event>
 5    1  0.1265228E+001  0.9052465E+02  0.7546771E-02  0.1301586E+00
          1   -1    0    0  501    0  0.00000000000E+00  0.00000000000E+00  0.37773124498E+02  0.37773124498E+02  0.00000000000E+00 0. -1.
         -1   -1    0    0    0  501 -0.00000000000E+00 -0.00000000000E+00 -0.54236396092E+02  0.54236396092E+02  0.00000000000E+00 0.  1.
         23    2    1    2    0    0  0.00000000000E+00  0.00000000000E+00 -0.16463271594E+02  0.92009520590E+02  0.90524651712E+02 0.  0.
        -13    1    3    3    0    0  0.35376634449E+02  0.27044660852E+02 -0.16473792205E+02  0.47479530065E+02  0.00000000000E+00 0.  1.
         13    1    3    3    0    0 -0.35376634449E+02 -0.27044660852E+02  0.10520611215E-01  0.44529990526E+02  0.00000000000E+00 0. -1.
<mgrwt>
<rscale>  0 0.90524652E+02</rscale>
<asrwt>0</asrwt>
<pdfrwt beam="1">  1        1 0.58112499E-02 0.90524652E+02</pdfrwt>
<pdfrwt beam="2">  1       -1 0.83440610E-02 0.90524652E+02</pdfrwt>
<totfact> 0.91719127E+04</totfact>
</mgrwt>
</event>
<event>
 5    1  0.1265228E+001  0.8648126E+02  0.7546771E-02  0.1311604E+00
         -2   -1    0    0    0  501 -0.00000000000E+00  0.00000000000E+00  0.21494693210E+02  0.21494693210E+02  0.00000000000E+00 0.  1.
          2   -1    0    0  501    0  0.00000000000E+00 -0.00000000000E+00 -0.86986676226E+02  0.86986676226E+02  0.00000000000E+00 0. -1.
         23    2    1    2    0    0  0.00000000000E+00  0.00000000000E+00 -0.65491983016E+02  0.10848136944E+03  0.86481256209E+02 0.  0.
        -11    1    3    3    0    0 -0.17671266470E+02  0.11308740759E+02  0.14682467899E+02  0.25607345427E+02  0.00000000000E+00 0.  1.
         11    1    3    3    0    0  0.17671266470E+02 -0.11308740759E+02 -0.80174450914E+02  0.82874024010E+02  0.00000000000E+00 0. -1.
<mgrwt>
<rscale>  0 0.86481256E+02</rscale>
<asrwt>0</asrwt>
<pdfrwt beam="2">  1        2 0.13382566E-01 0.86481256E+02</pdfrwt>
<pdfrwt beam="1">  1       -2 0.33068758E-02 0.86481256E+02</pdfrwt>
<totfact> 0.13612920E+05</totfact>
</mgrwt>
</event>
<event>
 5    1  0.1265228E+001  0.9293588E+02  0.7546771E-02  0.1295894E+00
         -2   -1    0    0    0  501 -0.00000000000E+00  0.00000000000E+00  0.20855890975E+02  0.20855890975E+02  0.00000000000E+00 0.  1.
          2   -1    0    0  501    0  0.00000000000E+00 -0.00000000000E+00 -0.10353282880E+03  0.10353282880E+03  0.00000000000E+00 0. -1.
         23    2    1    2    0    0  0.00000000000E+00  0.00000000000E+00 -0.82676937821E+02  0.12438871977E+03  0.92935878748E+02 0.  0.
        -11    1    3    3    0    0 -0.27836457060E+02  0.34876801872E+02 -0.23989853597E+02  0.50663327231E+02  0.00000000000E+00 0.  1.
         11    1    3    3    0    0  0.27836457060E+02 -0.34876801872E+02 -0.58687084223E+02  0.73725392539E+02  0.00000000000E+00 0. -1.
<mgrwt>
<rscale>  0 0.92935879E+02</rscale>
<asrwt>0</asrwt>
<pdfrwt beam="2">  1        2 0.15928128E-01 0.92935879E+02</pdfrwt>
<pdfrwt beam="1">  1       -2 0.32085986E-02 0.92935879E+02</pdfrwt>
<totfact> 0.11762679E+05</totfact>
</mgrwt>
</event>
<event>
 5    1  0.1265228E+001  0.9203980E+02  0.7546771E-02  0.1297986E+00
         -2   -1    0    0    0  501 -0.00000000000E+00  0.00000000000E+00  0.15167791567E+02  0.15167791567E+02  0.00000000000E+00 0.  1.
          2   -1    0    0  501    0  0.00000000000E+00 -0.00000000000E+00 -0.13962686305E+03  0.13962686305E+03  0.00000000000E+00 0. -1.
         23    2    1    2    0    0  0.00000000000E+00  0.00000000000E+00 -0.12445907148E+03  0.15479465462E+03  0.92039799129E+02 0.  0.
        -13    1    3    3    0    0  0.37930965554E+01 -0.29710271872E+02 -0.12099098190E+03  0.12464311267E+03  0.00000000000E+00 0. -1.
         13    1    3    3    0    0 -0.37930965554E+01  0.29710271872E+02 -0.34680895837E+01  0.30151541943E+02  0.00000000000E+00 0.  1.
<mgrwt>
<rscale>  0 0.92039799E+02</rscale>
<asrwt>0</asrwt>
<pdfrwt beam="2">  1        2 0.21481056E-01 0.92039799E+02</pdfrwt>
<pdfrwt beam="1">  1       -2 0.23335064E-02 0.92039799E+02</pdfrwt>
<totfact> 0.13301388E+05</totfact>
</mgrwt>
</event>
<event>
 5    1  0.1265228E+001  0.9173247E+02  0.7546771E-02  0.1298710E+00
          2   -1    0    0  501    0  0.00000000000E+00  0.00000000000E+00  0.85211063788E+02  0.85211063788E+02  0.00000000000E+00 0. -1.
         -2   -1    0    0    0  501 -0.00000000000E+00 -0.00000000000E+00 -0.24688245216E+02  0.24688245216E+02  0.00000000000E+00 0.  1.
         23    2    1    2    0    0  0.00000000000E+00  0.00000000000E+00  0.60522818572E+02  0.10989930900E+03  0.91732472722E+02 0.  0.
        -11    1    3    3    0    0  0.24687557056E+01 -0.35977911173E+02 -0.36921687573E+01  0.36251026982E+02  0.00000000000E+00 0.  1.
         11    1    3    3    0    0 -0.24687557056E+01  0.35977911173E+02  0.64214987330E+02  0.73648282022E+02  0.00000000000E+00 0. -1.
<mgrwt>
<rscale>  0 0.91732473E+02</rscale>
<asrwt>0</asrwt>
<pdfrwt beam="1">  1        2 0.13109394E-01 0.91732473E+02</pdfrwt>
<pdfrwt beam="2">  1       -2 0.37981916E-02 0.91732473E+02</pdfrwt>
<totfact> 0.11501048E+05</totfact>
</mgrwt>
</event>
<event>
 5    1  0.1265228E+001  0.9542813E+02  0.7546771E-02  0.1290215E+00
         -1   -1    0    0    0  501 -0.00000000000E+00  0.00000000000E+00  0.14063183759E+02  0.14063183759E+02  0.00000000000E+00 0.  1.
          1   -1    0    0  501    0  0.00000000000E+00 -0.00000000000E+00 -0.16188595767E+03  0.16188595767E+03  0.00000000000E+00 0. -1.
         23    2    1    2    0    0  0.00000000000E+00  0.00000000000E+00 -0.14782277391E+03  0.17594914142E+03  0.95428129410E+02 0.  0.
        -11    1    3    3    0    0  0.40140961355E+02 -0.13807929012E+02 -0.33740676736E+02  0.54225353375E+02  0.00000000000E+00 0. -1.
         11    1    3    3    0    0 -0.40140961355E+02  0.13807929012E+02 -0.11408209717E+03  0.12172378805E+03  0.00000000000E+00 0.  1.
<mgrwt>
<rscale>  0 0.95428129E+02</rscale>
<asrwt>0</asrwt>
<pdfrwt beam="2">  1        1 0.24905533E-01 0.95428129E+02</pdfrwt>
<pdfrwt beam="1">  1       -1 0.21635666E-02 0.95428129E+02</pdfrwt>
<totfact> 0.10055041E+05</totfact>
</mgrwt>
</event>
<event>
 5    1  0.1265228E+001  0.9089605E+02  0.7546771E-02  0.1300696E+00
         -2   -1    0    0    0  501 -0.00000000000E+00  0.00000000000E+00  0.33971710289E+02  0.33971710289E+02  0.00000000000E+00 0. -1.
          2   -1    0    0  501    0  0.00000000000E+00 -0.00000000000E+00 -0.60801259045E+02  0.60801259045E+02  0.00000000000E+00 0.  1.
         23    2    1    2    0    0  0.00000000000E+00  0.00000000000E+00 -0.26829548756E+02  0.94772969334E+02  0.90896045183E+02 0.  0.
        -11    1    3    3    0    0  0.38430861299E+02 -0.23510985861E+02 -0.19655481746E+02  0.49153184220E+02  0.00000000000E+00 0. -1.
         11    1    3    3    0    0 -0.38430861299E+02  0.23510985861E+02 -0.71740670103E+01  0.45619785113E+02  0.00000000000E+00 0.  1.
<mgrwt>
<rscale>  0 0.90896045E+02</rscale>
<asrwt>0</asrwt>
<pdfrwt beam="2">  1        2 0.93540398E-02 0.90896045E+02</pdfrwt>
<pdfrwt beam="1">  1       -2 0.52264170E-02 0.90896045E+02</pdfrwt>
<totfact> 0.10737723E+05</totfact>
</mgrwt>
</event>
<event>
 5    1  0.1265228E+001  0.9377852E+02  0.7546771E-02  0.1293951E+00
          1   -1    0    0  501    0  0.00000000000E+00  0.00000000000E+00  0.16290310431E+02  0.16290310431E+02  0.00000000000E+00 0. -1.
         -1   -1    0    0    0  501 -0.00000000000E+00 -0.00000000000E+00 -0.13496383481E+03  0.13496383481E+03  0.00000000000E+00 0.  1.
         23    2    1    2    0    0  0.00000000000E+00  0.00000000000E+00 -0.11867352438E+03  0.15125414524E+03  0.93778521337E+02 0.  0.
        -11    1    3    3    0    0  0.32924205649E+02 -0.27849688112E+02 -0.29640614389E+02  0.52327568899E+02  0.00000000000E+00 0. -1.
         11    1    3    3    0    0 -0.32924205649E+02  0.27849688112E+02 -0.89032909989E+02  0.98926576342E+02  0.00000000000E+00 0.  1.
<mgrwt>
<rscale>  0 0.93778521E+02</rscale>
<asrwt>0</asrwt>
<pdfrwt beam="1">  1        1 0.25062015E-02 0.93778521E+02</pdfrwt>
<pdfrwt beam="2">  1       -1 0.20763668E-01 0.93778521E+02</pdfrwt>
<totfact> 0.71206901E+04</totfact>
</mgrwt>
</event>
<event>
 5    1  0.1265228E+001  0.9279601E+02  0.7546771E-02  0.1296219E+00
          3   -1    0    0  501    0  0.00000000000E+00  0.00000000000E+00  0.19868632566E+02  0.19868632566E+02  0.00000000000E+00 0. -1.
         -3   -1    0    0    0  501 -0.00000000000E+00 -0.00000000000E+00 -0.10835042946E+03  0.10835042946E+03  0.00000000000E+00 0.  1.
         23    2    1    2    0    0  0.00000000000E+00  0.00000000000E+00 -0.88481796892E+02  0.12821906202E+03  0.92796010070E+02 0.  0.
        -13    1    3    3    0    0 -0.41208079186E+02 -0.43736122637E+01 -0.15404726063E+02  0.44210178235E+02  0.00000000000E+00 0. -1.
         13    1    3    3    0    0  0.41208079186E+02  0.43736122637E+01 -0.73077070829E+02  0.84008883788E+02  0.00000000000E+00 0.  1.
<mgrwt>
<rscale>  0 0.92796010E+02</rscale>
<asrwt>0</asrwt>
<pdfrwt beam="1">  1        3 0.30567127E-02 0.92796010E+02</pdfrwt>
<pdfrwt beam="2">  1       -3 0.16669297E-01 0.92796010E+02</pdfrwt>
<totfact> 0.31165992E+04</totfact>
</mgrwt>
</event>
<event>
 5    1  0.1265228E+001  0.7197570E+02  0.7546771E-02  0.1353501E+00
         -1   -1    0    0    0  501 -0.00000000000E+00  0.00000000000E+00  0.54934841910E+02  0.54934841910E+02  0.00000000000E+00 0.  1.
          1   -1    0    0  501    0  0.00000000000E+00 -0.00000000000E+00 -0.23575661995E+02  0.23575661995E+02  0.00000000000E+00 0. -1.
         23    2    1    2    0    0  0.00000000000E+00  0.00000000000E+00  0.31359179916E+02  0.78510503905E+02  0.71975697693E+02 0.  0.
        -11    1    3    3    0    0  0.35630682978E+02 -0.49072273343E+01  0.17015003892E+02  0.39788651737E+02  0.00000000000E+00 0. -1.
         11    1    3    3    0    0 -0.35630682978E+02  0.49072273343E+01  0.14344176023E+02  0.38721852168E+02  0.00000000000E+00 0.  1.
<mgrwt>
<rscale>  0 0.71975698E+02</rscale>
<asrwt>0</asrwt>
<pdfrwt beam="2">  1        1 0.36270249E-02 0.71975698E+02</pdfrwt>
<pdfrwt beam="1">  1       -1 0.84515141E-02 0.71975698E+02</pdfrwt>
<totfact> 0.16320193E+05</totfact>
</mgrwt>
</event>
<event>
 5    1  0.1265228E+001  0.9054810E+02  0.7546771E-02  0.1301530E+00
          2   -1    0    0  501    0  0.00000000000E+00  0.00000000000E+00  0.96960458243E+02  0.96960458243E+02  0.00000000000E+00 0. -1.
         -2   -1    0    0    0  501 -0.00000000000E+00 -0.00000000000E+00 -0.21139952965E+02  0.21139952965E+02  0.00000000000E+00 0.  1.
         23    2    1    2    0    0  0.00000000000E+00  0.00000000000E+00  0.75820505278E+02  0.11810041121E+03  0.90548098306E+02 0.  0.
        -13    1    3    3    0    0 -0.15063804767E+02 -0.38603243624E+02  0.14123217666E+02  0.43778920836E+02  0.00000000000E+00 0.  1.
         13    1    3    3    0    0  0.15063804767E+02  0.38603243624E+02  0.61697287612E+02  0.74321490372E+02  0.00000000000E+00 0. -1.
<mgrwt>
<rscale>  0 0.90548098E+02</rscale>
<asrwt>0</asrwt>
<pdfrwt beam="1">  1        2 0.14916993E-01 0.90548098E+02</pdfrwt>
<pdfrwt beam="2">  1       -2 0.32523005E-02 0.90548098E+02</pdfrwt>
<totfact> 0.12387132E+05</totfact>
</mgrwt>
</event>
<event>
 5    1  0.1265228E+001  0.9014042E+02  0.7546771E-02  0.1302512E+00
          3   -1    0    0  501    0  0.00000000000E+00  0.00000000000E+00  0.63270499853E+02  0.63270499853E+02  0.00000000000E+00 0. -1.
         -3   -1    0    0    0  501 -0.00000000000E+00 -0.00000000000E+00 -0.32105383874E+02  0.32105383874E+02  0.00000000000E+00 0.  1.
         23    2    1    2    0    0  0.00000000000E+00  0.00000000000E+00  0.31165115979E+02  0.95375883727E+02  0.90140416810E+02 0.  0.
        -11    1    3    3    0    0  0.27969694212E+02 -0.29274008407E+02 -0.53677797665E+01  0.40842189243E+02  0.00000000000E+00 0.  1.
         11    1    3    3    0    0 -0.27969694212E+02  0.29274008407E+02  0.36532895746E+02  0.54533694484E+02  0.00000000000E+00 0. -1.
<mgrwt>
<rscale>  0 0.90140417E+02</rscale>
<asrwt>0</asrwt>
<pdfrwt beam="1">  1        3 0.97339231E-02 0.90140417E+02</pdfrwt>
<pdfrwt beam="2">  1       -3 0.49392898E-02 0.90140417E+02</pdfrwt>
<totfact> 0.36122689E+04</totfact>
</mgrwt>
</event>
<event>
 5    1  0.1265228E+001  0.9028278E+02  0.7546771E-02  0.1302168E+00
          1   -1    0    0  501    0  0.00000000000E+00  0.00000000000E+00  0.44046513990E+02  0.44046513990E+02  0.00000000000E+00 0. -1.
         -1   -1    0    0    0  501 -0.00000000000E+00 -0.00000000000E+00 -0.46263484756E+02  0.46263484756E+02  0.00000000000E+00 0.  1.
         23    2    1    2    0    0  0.00000000000E+00  0.00000000000E+00 -0.22169707667E+01  0.90309998746E+02  0.90282783044E+02 0.  0.
        -13    1    3    3    0    0 -0.21865776330E+01  0.41396182348E+02  0.16766433935E+02  0.44716197755E+02  0.00000000000E+00 0. -1.
         13    1    3    3    0    0  0.21865776330E+01 -0.41396182348E+02 -0.18983404702E+02  0.45593800991E+02  0.00000000000E+00 0.  1.
<mgrwt>
<rscale>  0 0.90282783E+02</rscale>
<asrwt>0</asrwt>
<pdfrwt beam="1">  1        1 0.67763868E-02 0.90282783E+02</pdfrwt>
<pdfrwt beam="2">  1       -1 0.71174592E-02 0.90282783E+02</pdfrwt>
<totfact> 0.94575048E+04</totfact>
</mgrwt>
</event>
<event>
 5    1  0.1265228E+001  0.9147528E+02  0.7546771E-02  0.1299318E+00
         -2   -1    0    0    0  501 -0.00000000000E+00  0.00000000000E+00  0.33564838748E+02  0.33564838748E+02  0.00000000000E+00 0.  1.
          2   -1    0    0  501    0  0.00000000000E+00 -0.00000000000E+00 -0.62325094813E+02  0.62325094813E+02  0.00000000000E+00 0. -1.
         23    2    1    2    0    0  0.00000000000E+00  0.00000000000E+00 -0.28760256065E+02  0.95889933561E+02  0.91475280975E+02 0.  0.
        -11    1    3    3    0    0 -0.11798882429E+02  0.10117155909E+02  0.30711667849E+02  0.34420589947E+02  0.00000000000E+00 0.  1.
         11    1    3    3    0    0  0.11798882429E+02 -0.10117155909E+02 -0.59471923914E+02  0.61469343613E+02  0.00000000000E+00 0. -1.
<mgrwt>
<rscale>  0 0.91475281E+02</rscale>
<asrwt>0</asrwt>
<pdfrwt beam="2">  1        2 0.95884759E-02 0.91475281E+02</pdfrwt>
<pdfrwt beam="1">  1       -2 0.51638214E-02 0.91475281E+02</pdfrwt>
<totfact> 0.10617835E+05</totfact>
</mgrwt>
</event>
<event>
 5    1  0.1265228E+001  0.9121044E+02  0.7546771E-02  0.1299947E+00
          2   -1    0    0  501    0  0.00000000000E+00  0.00000000000E+00  0.87686357756E+02  0.87686357756E+02  0.00000000000E+00 0.  1.
         -2   -1    0    0    0  501 -0.00000000000E+00 -0.00000000000E+00 -0.23719040841E+02  0.23719040841E+02  0.00000000000E+00 0. -1.
         23    2    1    2    0    0  0.00000000000E+00  0.00000000000E+00  0.63967316915E+02  0.11140539860E+03  0.91210444595E+02 0.  0.
        -11    1    3    3    0    0 -0.39015544788E+02 -0.19752667825E+02  0.16178035956E+02  0.46627346791E+02  0.00000000000E+00 0.  1.
         11    1    3    3    0    0  0.39015544788E+02  0.19752667825E+02  0.47789280958E+02  0.64778051807E+02  0.00000000000E+00 0. -1.
<mgrwt>
<rscale>  0 0.91210445E+02</rscale>
<asrwt>0</asrwt>
<pdfrwt beam="1">  1        2 0.13490209E-01 0.91210445E+02</pdfrwt>
<pdfrwt beam="2">  1       -2 0.36490833E-02 0.91210445E+02</pdfrwt>
<totfact> 0.11782942E+05</totfact>
</mgrwt>
</event>
<event>
 5    1  0.1265228E+001  0.9222300E+02  0.7546771E-02  0.1297556E+00
         -1   -1    0    0    0  501 -0.00000000000E+00  0.00000000000E+00  0.55988548222E+02  0.55988548222E+02  0.00000000000E+00 0.  1.
          1   -1    0    0  501    0  0.00000000000E+00 -0.00000000000E+00 -0.37976878628E+02  0.37976878628E+02  0.00000000000E+00 0. -1.
         23    2    1    2    0    0  0.00000000000E+00  0.00000000000E+00  0.18011669594E+02  0.93965426850E+02  0.92222997140E+02 0.  0.
        -11    1    3    3    0    0 -0.32297273465E+02  0.32232536843E+02  0.15781285771E+02  0.48281459021E+02  0.00000000000E+00 0. -1.
         11    1    3    3    0    0  0.32297273465E+02 -0.32232536843E+02  0.22303838227E+01  0.45683967829E+02  0.00000000000E+00 0.  1.
<mgrwt>
<rscale>  0 0.92222997E+02</rscale>
<asrwt>0</asrwt>
<pdfrwt beam="2">  1        1 0.58425967E-02 0.92222997E+02</pdfrwt>
<pdfrwt beam="1">  1       -1 0.86136228E-02 0.92222997E+02</pdfrwt>
<totfact> 0.87083219E+04</totfact>
</mgrwt>
</event>
<event>
 5    1  0.1265228E+001  0.9239463E+02  0.7546771E-02  0.1297154E+00
         -4   -1    0    0    0  501 -0.00000000000E+00  0.00000000000E+00  0.11760359081E+02  0.11760359081E+02  0.00000000000E+00 0.  1.
          4   -1    0    0  501    0  0.00000000000E+00 -0.00000000000E+00 -0.18147335279E+03  0.18147335279E+03  0.00000000000E+00 0. -1.
         23    2    1    2    0    0  0.00000000000E+00  0.00000000000E+00 -0.16971299371E+03  0.19323371187E+03  0.92394627386E+02 0.  0.
        -13    1    3    3    0    0  0.82814970865E+01 -0.33672078030E+02 -0.21015821141E+02  0.40546969937E+02  0.00000000000E+00 0.  1.
         13    1    3    3    0    0 -0.82814970865E+01  0.33672078030E+02 -0.14869717257E+03  0.15268674193E+03  0.00000000000E+00 0. -1.
<mgrwt>
<rscale>  0 0.92394627E+02</rscale>
<asrwt>0</asrwt>
<pdfrwt beam="2">  1        4 0.27918978E-01 0.92394627E+02</pdfrwt>
<pdfrwt beam="1">  1       -4 0.18092860E-02 0.92394627E+02</pdfrwt>
<totfact> 0.20913507E+04</totfact>
</mgrwt>
</event>
<event>
 5    1  0.1265228E+001  0.8853962E+02  0.7546771E-02  0.1306427E+00
          2   -1    0    0  501    0  0.00000000000E+00  0.00000000000E+00  0.31196640484E+03  0.31196640484E+03  0.00000000000E+00 0. -1.
         -2   -1    0    0    0  501 -0.00000000000E+00 -0.00000000000E+00 -0.62821375694E+01  0.62821375694E+01  0.00000000000E+00 0.  1.
         23    2    1    2    0    0  0.00000000000E+00  0.00000000000E+00  0.30568426727E+03  0.31824854241E+03  0.88539615364E+02 0.  0.
        -11    1    3    3    0    0 -0.39939478940E+02 -0.73844892439E+01  0.89543267661E+02  0.98324409191E+02  0.00000000000E+00 0.  1.
         11    1    3    3    0    0  0.39939478940E+02  0.73844892439E+01  0.21614099961E+03  0.21992413322E+03  0.00000000000E+00 0. -1.
<mgrwt>
<rscale>  0 0.88539615E+02</rscale>
<asrwt>0</asrwt>
<pdfrwt beam="1">  1        2 0.47994819E-01 0.88539615E+02</pdfrwt>
<pdfrwt beam="2">  1       -2 0.96648295E-03 0.88539615E+02</pdfrwt>
<totfact> 0.19709794E+05</totfact>
</mgrwt>
</event>
<event>
 5    1  0.1265228E+001  0.9064520E+02  0.7546771E-02  0.1301297E+00
          1   -1    0    0  501    0  0.00000000000E+00  0.00000000000E+00  0.12774998868E+03  0.12774998868E+03  0.00000000000E+00 0. -1.
         -1   -1    0    0    0  501 -0.00000000000E+00 -0.00000000000E+00 -0.16079360846E+02  0.16079360846E+02  0.00000000000E+00 0.  1.
         23    2    1    2    0    0  0.00000000000E+00  0.00000000000E+00  0.11167062783E+03  0.14382934952E+03  0.90645202101E+02 0.  0.
        -11    1    3    3    0    0  0.20428372121E+02  0.40183803281E+02  0.48379084438E+02  0.66125579352E+02  0.00000000000E+00 0.  1.
         11    1    3    3    0    0 -0.20428372121E+02 -0.40183803281E+02  0.63291543391E+02  0.77703770169E+02  0.00000000000E+00 0. -1.
<mgrwt>
<rscale>  0 0.90645202E+02</rscale>
<asrwt>0</asrwt>
<pdfrwt beam="1">  1        1 0.19653844E-01 0.90645202E+02</pdfrwt>
<pdfrwt beam="2">  1       -1 0.24737479E-02 0.90645202E+02</pdfrwt>
<totfact> 0.11066641E+05</totfact>
</mgrwt>
</event>
<event>
 5    1  0.1265228E+001  0.9137227E+02  0.7546771E-02  0.1299562E+00
         -2   -1    0    0    0  501 -0.00000000000E+00  0.00000000000E+00  0.10325751831E+03  0.10325751831E+03  0.00000000000E+00 0.  1.
          2   -1    0    0  501    0  0.00000000000E+00 -0.00000000000E+00 -0.20213761308E+02  0.20213761308E+02  0.00000000000E+00 0. -1.
         23    2    1    2    0    0  0.00000000000E+00  0.00000000000E+00  0.83043757003E+02  0.12347127962E+03  0.91372267750E+02 0.  0.
        -13    1    3    3    0    0 -0.41727529637E+02  0.17452269872E+02  0.32821528333E+02  0.55883997489E+02  0.00000000000E+00 0.  1.
         13    1    3    3    0    0  0.41727529637E+02 -0.17452269872E+02  0.50222228670E+02  0.67587282131E+02  0.00000000000E+00 0. -1.
<mgrwt>
<rscale>  0 0.91372268E+02</rscale>
<asrwt>0</asrwt>
<pdfrwt beam="2">  1        2 0.31098095E-02 0.91372268E+02</pdfrwt>
<pdfrwt beam="1">  1       -2 0.15885772E-01 0.91372268E+02</pdfrwt>
<totfact> 0.78620587E+04</totfact>
</mgrwt>
</event>
<event>
 5    1  0.1265228E+001  0.1003362E+03  0.7546771E-02  0.1279591E+00
         -1   -1    0    0    0  501 -0.00000000000E+00  0.00000000000E+00  0.13546295224E+03  0.13546295224E+03  0.00000000000E+00 0.  1.
          1   -1    0    0  501    0  0.00000000000E+00 -0.00000000000E+00 -0.18579516136E+02  0.18579516136E+02  0.00000000000E+00 0. -1.
         23    2    1    2    0    0  0.00000000000E+00  0.00000000000E+00  0.11688343610E+03  0.15404246837E+03  0.10033615713E+03 0.  0.
        -13    1    3    3    0    0 -0.36264223781E+02  0.24320972491E+02  0.96367161232E+02  0.10579807840E+03  0.00000000000E+00 0.  1.
         13    1    3    3    0    0  0.36264223781E+02 -0.24320972491E+02  0.20516274868E+02  0.48244389972E+02  0.00000000000E+00 0. -1.
<mgrwt>
<rscale>  0 0.10033616E+03</rscale>
<asrwt>0</asrwt>
<pdfrwt beam="2">  1        1 0.28583872E-02 0.10033616E+03</pdfrwt>
<pdfrwt beam="1">  1       -1 0.20840454E-01 0.10033616E+03</pdfrwt>
<totfact> 0.59686093E+04</totfact>
</mgrwt>
</event>
<event>
 5    1  0.1265228E+001  0.8831329E+02  0.7546771E-02  0.1306988E+00
          2   -1    0    0  501    0  0.00000000000E+00  0.00000000000E+00  0.53170512917E+02  0.53170512917E+02  0.00000000000E+00 0. -1.
         -2   -1    0    0    0  501 -0.00000000000E+00 -0.00000000000E+00 -0.36670879241E+02  0.36670879241E+02  0.00000000000E+00 0.  1.
         23    2    1    2    0    0  0.00000000000E+00  0.00000000000E+00  0.16499633676E+02  0.89841392158E+02  0.88313293639E+02 0.  0.
        -13    1    3    3    0    0  0.41714092032E+02  0.13030092987E+02  0.18189913701E+01  0.43739656227E+02  0.00000000000E+00 0.  1.
         13    1    3    3    0    0 -0.41714092032E+02 -0.13030092987E+02  0.14680642306E+02  0.46101735930E+02  0.00000000000E+00 0. -1.
<mgrwt>
<rscale>  0 0.88313294E+02</rscale>
<asrwt>0</asrwt>
<pdfrwt beam="1">  1        2 0.81800789E-02 0.88313294E+02</pdfrwt>
<pdfrwt beam="2">  1       -2 0.56416737E-02 0.88313294E+02</pdfrwt>
<totfact> 0.11242749E+05</totfact>
</mgrwt>
</event>
<event>
 5    1  0.1265228E+001  0.9127656E+02  0.7546771E-02  0.1299789E+00
          1   -1    0    0  501    0  0.00000000000E+00  0.00000000000E+00  0.21244802072E+03  0.21244802072E+03  0.00000000000E+00 0. -1.
         -1   -1    0    0    0  501 -0.00000000000E+00 -0.00000000000E+00 -0.98040574843E+01  0.98040574843E+01  0.00000000000E+00 0.  1.
         23    2    1    2    0    0  0.00000000000E+00  0.00000000000E+00  0.20264396323E+03  0.22225207820E+03  0.91276560135E+02 0.  0.
        -13    1    3    3    0    0  0.30553030296E+02 -0.19555298987E+02  0.33889122782E+02  0.49642421593E+02  0.00000000000E+00 0.  1.
         13    1    3    3    0    0 -0.30553030296E+02  0.19555298987E+02  0.16875484045E+03  0.17260965661E+03  0.00000000000E+00 0. -1.
<mgrwt>
<rscale>  0 0.91276560E+02</rscale>
<asrwt>0</asrwt>
<pdfrwt beam="1">  1        1 0.32684307E-01 0.91276560E+02</pdfrwt>
<pdfrwt beam="2">  1       -1 0.15083167E-02 0.91276560E+02</pdfrwt>
<totfact> 0.11945370E+05</totfact>
</mgrwt>
</event>
<event>
 5    1  0.1265228E+001  0.9161477E+02  0.7546771E-02  0.1298988E+00
         -2   -1    0    0    0  501 -0.00000000000E+00  0.00000000000E+00  0.93132080385E+02  0.93132080385E+02  0.00000000000E+00 0.  1.
          2   -1    0    0  501    0  0.00000000000E+00 -0.00000000000E+00 -0.22530544880E+02  0.22530544880E+02  0.00000000000E+00 0. -1.
         23    2    1    2    0    0  0.00000000000E+00  0.00000000000E+00  0.70601535505E+02  0.11566262527E+03  0.91614769921E+02 0.  0.
        -13    1    3    3    0    0 -0.41239826230E+02 -0.19545504185E+02  0.40281844753E+02  0.60871808073E+02  0.00000000000E+00 0.  1.
         13    1    3    3    0    0  0.41239826230E+02  0.19545504185E+02  0.30319690752E+02  0.54790817193E+02  0.00000000000E+00 0. -1.
<mgrwt>
<rscale>  0 0.91614770E+02</rscale>
<asrwt>0</asrwt>
<pdfrwt beam="2">  1        2 0.34662377E-02 0.91614770E+02</pdfrwt>
<pdfrwt beam="1">  1       -2 0.14328012E-01 0.91614770E+02</pdfrwt>
<totfact> 0.80532151E+04</totfact>
</mgrwt>
</event>
<event>
 5    1  0.1265228E+001  0.9016978E+02  0.7546771E-02  0.1302441E+00
         -2   -1    0    0    0  501 -0.00000000000E+00  0.00000000000E+00  0.56159224116E+02  0.56159224116E+02  0.00000000000E+00 0.  1.
          2   -1    0    0  501    0  0.00000000000E+00 -0.00000000000E+00 -0.36194361959E+02  0.36194361959E+02  0.00000000000E+00 0. -1.
         23    2    1    2    0    0  0.00000000000E+00  0.00000000000E+00  0.19964862156E+02  0.92353586075E+02  0.90169779527E+02 0.  0.
        -11    1    3    3    0    0 -0.26891161962E+02  0.18529754852E+02 -0.21853494440E+02  0.39294549569E+02  0.00000000000E+00 0. -1.
         11    1    3    3    0    0  0.26891161962E+02 -0.18529754852E+02  0.41818356596E+02  0.53059036506E+02  0.00000000000E+00 0.  1.
<mgrwt>
<rscale>  0 0.90169780E+02</rscale>
<asrwt>0</asrwt>
<pdfrwt beam="2">  1        2 0.55683634E-02 0.90169780E+02</pdfrwt>
<pdfrwt beam="1">  1       -2 0.86398806E-02 0.90169780E+02</pdfrwt>
<totfact> 0.96004243E+04</totfact>
</mgrwt>
</event>
<event>
 5    1  0.1265228E+001  0.9271303E+02  0.7546771E-02  0.1296412E+00
          4   -1    0    0  501    0  0.00000000000E+00  0.00000000000E+00  0.62072249398E+02  0.62072249398E+02  0.00000000000E+00 0. -1.
         -4   -1    0    0    0  501 -0.00000000000E+00 -0.00000000000E+00 -0.34619760498E+02  0.34619760498E+02  0.00000000000E+00 0.  1.
         23    2    1    2    0    0  0.00000000000E+00  0.00000000000E+00  0.27452488900E+02  0.96692009897E+02  0.92713028378E+02 0.  0.
        -11    1    3    3    0    0 -0.22190345636E+02 -0.38093073317E+02 -0.12218090414E+01  0.44102000992E+02  0.00000000000E+00 0.  1.
         11    1    3    3    0    0  0.22190345636E+02  0.38093073317E+02  0.28674297941E+02  0.52590008905E+02  0.00000000000E+00 0. -1.
<mgrwt>
<rscale>  0 0.92713028E+02</rscale>
<asrwt>0</asrwt>
<pdfrwt beam="1">  1        4 0.95495768E-02 0.92713028E+02</pdfrwt>
<pdfrwt beam="2">  1       -4 0.53261170E-02 0.92713028E+02</pdfrwt>
<totfact> 0.25480127E+04</totfact>
</mgrwt>
</event>
<event>
 5    1  0.1265228E+001  0.8808573E+02  0.7546771E-02  0.1307555E+00
          1   -1    0    0  501    0  0.00000000000E+00  0.00000000000E+00  0.22123950003E+02  0.22123950003E+02  0.00000000000E+00 0. -1.
         -1   -1    0    0    0  501 -0.00000000000E+00 -0.00000000000E+00 -0.87677566540E+02  0.87677566540E+02  0.00000000000E+00 0.  1.
         23    2    1    2    0    0  0.00000000000E+00  0.00000000000E+00 -0.65553616537E+02  0.10980151654E+03  0.88085733204E+02 0.  0.
        -13    1    3    3    0    0 -0.16228756314E+02  0.25041780379E+02  0.76021245558E+01  0.30793759007E+02  0.00000000000E+00 0. -1.
         13    1    3    3    0    0  0.16228756314E+02 -0.25041780379E+02 -0.73155741093E+02  0.79007757536E+02  0.00000000000E+00 0.  1.
<mgrwt>
<rscale>  0 0.88085733E+02</rscale>
<asrwt>0</asrwt>
<pdfrwt beam="1">  1        1 0.34036846E-02 0.88085733E+02</pdfrwt>
<pdfrwt beam="2">  1       -1 0.13488856E-01 0.88085733E+02</pdfrwt>
<totfact> 0.91026790E+04</totfact>
</mgrwt>
</event>
<event>
 5    1  0.1265228E+001  0.9055363E+02  0.7546771E-02  0.1301517E+00
          2   -1    0    0  501    0  0.00000000000E+00  0.00000000000E+00  0.20600092229E+03  0.20600092229E+03  0.00000000000E+00 0. -1.
         -2   -1    0    0    0  501 -0.00000000000E+00 -0.00000000000E+00 -0.99513628326E+01  0.99513628326E+01  0.00000000000E+00 0.  1.
         23    2    1    2    0    0  0.00000000000E+00  0.00000000000E+00  0.19604955945E+03  0.21595228512E+03  0.90553628785E+02 0.  0.
        -11    1    3    3    0    0 -0.53542675346E+01 -0.34887176017E+02  0.16565421893E+03  0.16937267631E+03  0.00000000000E+00 0. -1.
         11    1    3    3    0    0  0.53542675346E+01  0.34887176017E+02  0.30395340526E+02  0.46579608811E+02  0.00000000000E+00 0.  1.
<mgrwt>
<rscale>  0 0.90553629E+02</rscale>
<asrwt>0</asrwt>
<pdfrwt beam="1">  1        2 0.31692446E-01 0.90553629E+02</pdfrwt>
<pdfrwt beam="2">  1       -2 0.15309791E-02 0.90553629E+02</pdfrwt>
<totfact> 0.15925503E+05</totfact>
</mgrwt>
</event>
<event>
 5    1  0.1265228E+001  0.9235214E+02  0.7546771E-02  0.1297254E+00
          4   -1    0    0  501    0  0.00000000000E+00  0.00000000000E+00  0.25834750249E+02  0.25834750249E+02  0.00000000000E+00 0. -1.
         -4   -1    0    0    0  501 -0.00000000000E+00 -0.00000000000E+00 -0.82533388935E+02  0.82533388935E+02  0.00000000000E+00 0.  1.
         23    2    1    2    0    0  0.00000000000E+00  0.00000000000E+00 -0.56698638686E+02  0.10836813918E+03  0.92352141076E+02 0.  0.
        -13    1    3    3    0    0 -0.15411798990E+02  0.39417336267E+02 -0.50017318512E+02  0.65520852388E+02  0.00000000000E+00 0.  1.
         13    1    3    3    0    0  0.15411798990E+02 -0.39417336267E+02 -0.66813201742E+01  0.42847286796E+02  0.00000000000E+00 0. -1.
<mgrwt>
<rscale>  0 0.92352141E+02</rscale>
<asrwt>0</asrwt>
<pdfrwt beam="1">  1        4 0.39745770E-02 0.92352141E+02</pdfrwt>
<pdfrwt beam="2">  1       -4 0.12697444E-01 0.92352141E+02</pdfrwt>
<totfact> 0.25063381E+04</totfact>
</mgrwt>
</event>
<event>
 5    1  0.1265228E+001  0.1065525E+03  0.7546771E-02  0.1267091E+00
          1   -1    0    0  501    0  0.00000000000E+00  0.00000000000E+00  0.40450197309E+02  0.40450197309E+02  0.00000000000E+00 0. -1.
         -1   -1    0    0    0  501 -0.00000000000E+00 -0.00000000000E+00 -0.70169183156E+02  0.70169183156E+02  0.00000000000E+00 0.  1.
         23    2    1    2    0    0  0.00000000000E+00  0.00000000000E+00 -0.29718985847E+02  0.11061938046E+03  0.10655247165E+03 0.  0.
        -13    1    3    3    0    0 -0.46744773868E+01 -0.44425346808E+02 -0.45000271377E+02  0.63407307164E+02  0.00000000000E+00 0.  1.
         13    1    3    3    0    0  0.46744773868E+01  0.44425346808E+02  0.15281285530E+02  0.47212073300E+02  0.00000000000E+00 0. -1.
<mgrwt>
<rscale>  0 0.10655247E+03</rscale>
<asrwt>0</asrwt>
<pdfrwt beam="1">  1        1 0.62231073E-02 0.10655247E+03</pdfrwt>
<pdfrwt beam="2">  1       -1 0.10795259E-01 0.10655247E+03</pdfrwt>
<totfact> 0.58120854E+04</totfact>
</mgrwt>
</event>
<event>
 5    1  0.1265228E+001  0.9231714E+02  0.7546771E-02  0.1297335E+00
          2   -1    0    0  501    0  0.00000000000E+00  0.00000000000E+00  0.39502138858E+03  0.39502138858E+03  0.00000000000E+00 0. -1.
         -2   -1    0    0    0  501 -0.00000000000E+00 -0.00000000000E+00 -0.53936666118E+01  0.53936666118E+01  0.00000000000E+00 0.  1.
         23    2    1    2    0    0  0.00000000000E+00  0.00000000000E+00  0.38962772197E+03  0.40041505519E+03  0.92317141951E+02 0.  0.
        -13    1    3    3    0    0 -0.22021689158E+02  0.40528962005E+02  0.18722390695E+03  0.19282204980E+03  0.00000000000E+00 0. -1.
         13    1    3    3    0    0  0.22021689158E+02 -0.40528962005E+02  0.20240381502E+03  0.20759300539E+03  0.00000000000E+00 0.  1.
<mgrwt>
<rscale>  0 0.92317142E+02</rscale>
<asrwt>0</asrwt>
<pdfrwt beam="1">  1        2 0.60772499E-01 0.92317142E+02</pdfrwt>
<pdfrwt beam="2">  1       -2 0.82979517E-03 0.92317142E+02</pdfrwt>
<totfact> 0.19227216E+05</totfact>
</mgrwt>
</event>
<event>
 5    1  0.1265228E+001  0.9141578E+02  0.7546771E-02  0.1299459E+00
         -1   -1    0    0    0  501 -0.00000000000E+00  0.00000000000E+00  0.33739054825E+02  0.33739054825E+02  0.00000000000E+00 0.  1.
          1   -1    0    0  501    0  0.00000000000E+00 -0.00000000000E+00 -0.61922635706E+02  0.61922635706E+02  0.00000000000E+00 0. -1.
         23    2    1    2    0    0  0.00000000000E+00  0.00000000000E+00 -0.28183580881E+02  0.95661690532E+02  0.91415779842E+02 0.  0.
        -13    1    3    3    0    0 -0.20194029246E+02 -0.33623068246E+01  0.28673267731E+02  0.35231522912E+02  0.00000000000E+00 0.  1.
         13    1    3    3    0    0  0.20194029246E+02  0.33623068246E+01 -0.56856848612E+02  0.60430167619E+02  0.00000000000E+00 0. -1.
<mgrwt>
<rscale>  0 0.91415780E+02</rscale>
<asrwt>0</asrwt>
<pdfrwt beam="2">  1        1 0.95265591E-02 0.91415780E+02</pdfrwt>
<pdfrwt beam="1">  1       -1 0.51906239E-02 0.91415780E+02</pdfrwt>
<totfact> 0.96132726E+04</totfact>
</mgrwt>
</event>
<event>
 5    1  0.1265228E+001  0.9339509E+02  0.7546771E-02  0.1294832E+00
          1   -1    0    0  501    0  0.00000000000E+00  0.00000000000E+00  0.34910981214E+02  0.34910981214E+02  0.00000000000E+00 0. -1.
         -1   -1    0    0    0  501 -0.00000000000E+00 -0.00000000000E+00 -0.62463458618E+02  0.62463458618E+02  0.00000000000E+00 0.  1.
         23    2    1    2    0    0  0.00000000000E+00  0.00000000000E+00 -0.27552477403E+02  0.97374439832E+02  0.93395088316E+02 0.  0.
        -13    1    3    3    0    0  0.17022833305E+01  0.33902409835E+02 -0.47211116913E+02  0.58147749065E+02  0.00000000000E+00 0.  1.
         13    1    3    3    0    0 -0.17022833305E+01 -0.33902409835E+02  0.19658639510E+02  0.39226690767E+02  0.00000000000E+00 0. -1.
<mgrwt>
<rscale>  0 0.93395088E+02</rscale>
<asrwt>0</asrwt>
<pdfrwt beam="1">  1        1 0.53709202E-02 0.93395088E+02</pdfrwt>
<pdfrwt beam="2">  1       -1 0.96097628E-02 0.93395088E+02</pdfrwt>
<totfact> 0.82900776E+04</totfact>
</mgrwt>
</event>
<event>
 5    1  0.1265228E+001  0.9188379E+02  0.7546771E-02  0.1298353E+00
          1   -1    0    0  501    0  0.00000000000E+00  0.00000000000E+00  0.20628794567E+02  0.20628794567E+02  0.00000000000E+00 0. -1.
         -1   -1    0    0    0  501 -0.00000000000E+00 -0.00000000000E+00 -0.10231609280E+03  0.10231609280E+03  0.00000000000E+00 0.  1.
         23    2    1    2    0    0  0.00000000000E+00  0.00000000000E+00 -0.81687298232E+02  0.12294488737E+03  0.91883788760E+02 0.  0.
        -11    1    3    3    0    0  0.17939740077E+02 -0.12392153983E+02  0.13264752802E+02  0.25521626540E+02  0.00000000000E+00 0. -1.
         11    1    3    3    0    0 -0.17939740077E+02  0.12392153983E+02 -0.94952051033E+02  0.97423260825E+02  0.00000000000E+00 0.  1.
<mgrwt>
<rscale>  0 0.91883789E+02</rscale>
<asrwt>0</asrwt>
<pdfrwt beam="1">  1        1 0.31736607E-02 0.91883789E+02</pdfrwt>
<pdfrwt beam="2">  1       -1 0.15740937E-01 0.91883789E+02</pdfrwt>
<totfact> 0.79424655E+04</totfact>
</mgrwt>
</event>
<event>
 5    1  0.1265228E+001  0.9072077E+02  0.7546771E-02  0.1301116E+00
         -1   -1    0    0    0  501 -0.00000000000E+00  0.00000000000E+00  0.47547311271E+02  0.47547311271E+02  0.00000000000E+00 0.  1.
          1   -1    0    0  501    0  0.00000000000E+00 -0.00000000000E+00 -0.43274046644E+02  0.43274046644E+02  0.00000000000E+00 0. -1.
         23    2    1    2    0    0  0.00000000000E+00  0.00000000000E+00  0.42732646271E+01  0.90821357915E+02  0.90720770847E+02 0.  0.
        -13    1    3    3    0    0  0.37923797609E+02 -0.51505308325E+01 -0.22238303382E+02  0.44263806098E+02  0.00000000000E+00 0. -1.
         13    1    3    3    0    0 -0.37923797609E+02  0.51505308325E+01  0.26511568009E+02  0.46557551818E+02  0.00000000000E+00 0.  1.
<mgrwt>
<rscale>  0 0.90720771E+02</rscale>
<asrwt>0</asrwt>
<pdfrwt beam="2">  1        1 0.66575457E-02 0.90720771E+02</pdfrwt>
<pdfrwt beam="1">  1       -1 0.73149709E-02 0.90720771E+02</pdfrwt>
<totfact> 0.93052431E+04</totfact>
</mgrwt>
</event>
<event>
 5    1  0.1265228E+001  0.8888637E+02  0.7546771E-02  0.1305571E+00
         -2   -1    0    0    0  501 -0.00000000000E+00  0.00000000000E+00  0.10463589164E+02  0.10463589164E+02  0.00000000000E+00 0. -1.
          2   -1    0    0  501    0  0.00000000000E+00 -0.00000000000E+00 -0.18876854289E+03  0.18876854289E+03  0.00000000000E+00 0.  1.
         23    2    1    2    0    0  0.00000000000E+00  0.00000000000E+00 -0.17830495372E+03  0.19923213205E+03  0.88886365207E+02 0.  0.
        -13    1    3    3    0    0  0.38609941399E+02 -0.17245243500E+02 -0.11980928018E+03  0.12705270409E+03  0.00000000000E+00 0.  1.
         13    1    3    3    0    0 -0.38609941399E+02  0.17245243500E+02 -0.58495673541E+02  0.72179427965E+02  0.00000000000E+00 0. -1.
<mgrwt>
<rscale>  0 0.88886365E+02</rscale>
<asrwt>0</asrwt>
<pdfrwt beam="2">  1        2 0.29041315E-01 0.88886365E+02</pdfrwt>
<pdfrwt beam="1">  1       -2 0.16097829E-02 0.88886365E+02</pdfrwt>
<totfact> 0.16222775E+05</totfact>
</mgrwt>
</event>
<event>
 5    1  0.1265228E+001  0.8526380E+02  0.7546771E-02  0.1314744E+00
          1   -1    0    0  501    0  0.00000000000E+00  0.00000000000E+00  0.24632571441E+03  0.24632571441E+03  0.00000000000E+00 0. -1.
         -1   -1    0    0    0  501 -0.00000000000E+00 -0.00000000000E+00 -0.73783555255E+01  0.73783555255E+01  0.00000000000E+00 0.  1.
         23    2    1    2    0    0  0.00000000000E+00  0.00000000000E+00  0.23894735888E+03  0.25370406993E+03  0.85263795270E+02 0.  0.
        -13    1    3    3    0    0 -0.17700238734E+02 -0.38022154385E+02  0.96716106901E+02  0.10541815787E+03  0.00000000000E+00 0.  1.
         13    1    3    3    0    0  0.17700238734E+02  0.38022154385E+02  0.14223125198E+03  0.14828591206E+03  0.00000000000E+00 0. -1.
<mgrwt>
<rscale>  0 0.85263795E+02</rscale>
<asrwt>0</asrwt>
<pdfrwt beam="1">  1        1 0.37896257E-01 0.85263795E+02</pdfrwt>
<pdfrwt beam="2">  1       -1 0.11351318E-02 0.85263795E+02</pdfrwt>
<totfact> 0.14740268E+05</totfact>
</mgrwt>
</event>
<event>
 5    1  0.1265228E+001  0.9016331E+02  0.7546771E-02  0.1302457E+00
          2   -1    0    0  501    0  0.00000000000E+00  0.00000000000E+00  0.28498790172E+02  0.28498790172E+02  0.00000000000E+00 0.  1.
         -2   -1    0    0    0  501 -0.00000000000E+00 -0.00000000000E+00 -0.71313758250E+02  0.71313758250E+02  0.00000000000E+00 0. -1.
         23    2    1    2    0    0  0.00000000000E+00  0.00000000000E+00 -0.42814968078E+02  0.99812548422E+02  0.90163314774E+02 0.  0.
        -11    1    3    3    0    0  0.31679360069E+02 -0.22884757621E+02  0.34712086569E+01  0.39234465401E+02  0.00000000000E+00 0.  1.
         11    1    3    3    0    0 -0.31679360069E+02  0.22884757621E+02 -0.46286176735E+02  0.60578083021E+02  0.00000000000E+00 0. -1.
<mgrwt>
<rscale>  0 0.90163315E+02</rscale>
<asrwt>0</asrwt>
<pdfrwt beam="1">  1        2 0.43844293E-02 0.90163315E+02</pdfrwt>
<pdfrwt beam="2">  1       -2 0.10971347E-01 0.90163315E+02</pdfrwt>
<totfact> 0.90206806E+04</totfact>
</mgrwt>
</event>
<event>
 5    1  0.1265228E+001  0.9185851E+02  0.7546771E-02  0.1298412E+00
          2   -1    0    0  501    0  0.00000000000E+00  0.00000000000E+00  0.11705305994E+03  0.11705305994E+03  0.00000000000E+00 0. -1.
         -2   -1    0    0    0  501 -0.00000000000E+00 -0.00000000000E+00 -0.18021709858E+02  0.18021709858E+02  0.00000000000E+00 0.  1.
         23    2    1    2    0    0  0.00000000000E+00  0.00000000000E+00  0.99031350083E+02  0.13507476980E+03  0.91858506069E+02 0.  0.
        -13    1    3    3    0    0  0.21699727366E+02 -0.29160297425E+02  0.90801340679E+02  0.97806362690E+02  0.00000000000E+00 0. -1.
         13    1    3    3    0    0 -0.21699727366E+02  0.29160297425E+02  0.82300094049E+01  0.37268407110E+02  0.00000000000E+00 0.  1.
<mgrwt>
<rscale>  0 0.91858506E+02</rscale>
<asrwt>0</asrwt>
<pdfrwt beam="1">  1        2 0.18008163E-01 0.91858506E+02</pdfrwt>
<pdfrwt beam="2">  1       -2 0.27725708E-02 0.91858506E+02</pdfrwt>
<totfact> 0.12623477E+05</totfact>
</mgrwt>
</event>
<event>
 5    1  0.1265228E+001  0.9088862E+02  0.7546771E-02  0.1300714E+00
         -1   -1    0    0    0  501 -0.00000000000E+00  0.00000000000E+00  0.20608813850E+02  0.20608813850E+02  0.00000000000E+00 0.  1.
          1   -1    0    0  501    0  0.00000000000E+00 -0.00000000000E+00 -0.10020884203E+03  0.10020884203E+03  0.00000000000E+00 0. -1.
         23    2    1    2    0    0  0.00000000000E+00  0.00000000000E+00 -0.79600028179E+02  0.12081765588E+03  0.90888621324E+02 0.  0.
        -11    1    3    3    0    0 -0.41923811525E+02  0.15681878756E+02 -0.50237980115E+02  0.67285822728E+02  0.00000000000E+00 0.  1.
         11    1    3    3    0    0  0.41923811525E+02 -0.15681878756E+02 -0.29362048064E+02  0.53531833152E+02  0.00000000000E+00 0. -1.
<mgrwt>
<rscale>  0 0.90888621E+02</rscale>
<asrwt>0</asrwt>
<pdfrwt beam="2">  1        1 0.15416745E-01 0.90888621E+02</pdfrwt>
<pdfrwt beam="1">  1       -1 0.31705867E-02 0.90888621E+02</pdfrwt>
<totfact> 0.10539348E+05</totfact>
</mgrwt>
</event>
<event>
 5    1  0.1265228E+001  0.9299492E+02  0.7546771E-02  0.1295757E+00
          2   -1    0    0  501    0  0.00000000000E+00  0.00000000000E+00  0.11935853913E+03  0.11935853913E+03  0.00000000000E+00 0. -1.
         -2   -1    0    0    0  501 -0.00000000000E+00 -0.00000000000E+00 -0.18113609420E+02  0.18113609420E+02  0.00000000000E+00 0.  1.
         23    2    1    2    0    0  0.00000000000E+00  0.00000000000E+00  0.10124492971E+03  0.13747214855E+03  0.92994923707E+02 0.  0.
        -11    1    3    3    0    0  0.87048933351E+00  0.40461558138E+02  0.16779357552E+02  0.43811440041E+02  0.00000000000E+00 0.  1.
         11    1    3    3    0    0 -0.87048933351E+00 -0.40461558138E+02  0.84465572159E+02  0.93660708511E+02  0.00000000000E+00 0. -1.
<mgrwt>
<rscale>  0 0.92994924E+02</rscale>
<asrwt>0</asrwt>
<pdfrwt beam="1">  1        2 0.18362852E-01 0.92994924E+02</pdfrwt>
<pdfrwt beam="2">  1       -2 0.27867092E-02 0.92994924E+02</pdfrwt>
<totfact> 0.12281312E+05</totfact>
</mgrwt>
</event>
<event>
 5    1  0.1265228E+001  0.7909022E+02  0.7546771E-02  0.1331653E+00
          4   -1    0    0  501    0  0.00000000000E+00  0.00000000000E+00  0.24845355790E+03  0.24845355790E+03  0.00000000000E+00 0. -1.
         -4   -1    0    0    0  501 -0.00000000000E+00 -0.00000000000E+00 -0.62941974243E+01  0.62941974243E+01  0.00000000000E+00 0.  1.
         23    2    1    2    0    0  0.00000000000E+00  0.00000000000E+00  0.24215936047E+03  0.25474775532E+03  0.79090220487E+02 0.  0.
        -11    1    3    3    0    0 -0.26317466399E+02  0.29311717282E+02  0.13225137976E+03  0.13799352614E+03  0.00000000000E+00 0. -1.
         11    1    3    3    0    0  0.26317466399E+02 -0.29311717282E+02  0.10990798072E+03  0.11675422919E+03  0.00000000000E+00 0.  1.
<mgrwt>
<rscale>  0 0.79090220E+02</rscale>
<asrwt>0</asrwt>
<pdfrwt beam="1">  1        4 0.38223617E-01 0.79090220E+02</pdfrwt>
<pdfrwt beam="2">  1       -4 0.96833826E-03 0.79090220E+02</pdfrwt>
<totfact> 0.28077517E+04</totfact>
</mgrwt>
</event>
<event>
 5    1  0.1265228E+001  0.9104866E+02  0.7546771E-02  0.1300332E+00
         -1   -1    0    0    0  501 -0.00000000000E+00  0.00000000000E+00  0.62302766502E+02  0.62302766502E+02  0.00000000000E+00 0.  1.
          1   -1    0    0  501    0  0.00000000000E+00 -0.00000000000E+00 -0.33264405020E+02  0.33264405020E+02  0.00000000000E+00 0. -1.
         23    2    1    2    0    0  0.00000000000E+00  0.00000000000E+00  0.29038361483E+02  0.95567171522E+02  0.91048656416E+02 0.  0.
        -13    1    3    3    0    0  0.31386378913E+02  0.28636150037E+02 -0.26424881395E+01  0.42568963034E+02  0.00000000000E+00 0. -1.
         13    1    3    3    0    0 -0.31386378913E+02 -0.28636150037E+02  0.31680849622E+02  0.52998208488E+02  0.00000000000E+00 0.  1.
<mgrwt>
<rscale>  0 0.91048656E+02</rscale>
<asrwt>0</asrwt>
<pdfrwt beam="2">  1        1 0.51176008E-02 0.91048656E+02</pdfrwt>
<pdfrwt beam="1">  1       -1 0.95850410E-02 0.91048656E+02</pdfrwt>
<totfact> 0.88475665E+04</totfact>
</mgrwt>
</event>
<event>
 5    1  0.1265228E+001  0.9021784E+02  0.7546771E-02  0.1302325E+00
         -4   -1    0    0    0  501 -0.00000000000E+00  0.00000000000E+00  0.13466665571E+02  0.13466665571E+02  0.00000000000E+00 0.  1.
          4   -1    0    0  501    0  0.00000000000E+00 -0.00000000000E+00 -0.15110012333E+03  0.15110012333E+03  0.00000000000E+00 0. -1.
         23    2    1    2    0    0  0.00000000000E+00  0.00000000000E+00 -0.13763345776E+03  0.16456678890E+03  0.90217843660E+02 0.  0.
        -13    1    3    3    0    0 -0.39237843841E+02 -0.46765009738E+01 -0.10850250496E+03  0.11547411672E+03  0.00000000000E+00 0. -1.
         13    1    3    3    0    0  0.39237843841E+02  0.46765009738E+01 -0.29130952802E+02  0.49092672180E+02  0.00000000000E+00 0.  1.
<mgrwt>
<rscale>  0 0.90217844E+02</rscale>
<asrwt>0</asrwt>
<pdfrwt beam="2">  1        4 0.23246172E-01 0.90217844E+02</pdfrwt>
<pdfrwt beam="1">  1       -4 0.20717947E-02 0.90217844E+02</pdfrwt>
<totfact> 0.23622756E+04</totfact>
</mgrwt>
</event>
<event>
 5    1  0.1265228E+001  0.8832678E+02  0.7546771E-02  0.1306955E+00
          4   -1    0    0  501    0  0.00000000000E+00  0.00000000000E+00  0.56099033320E+02  0.56099033320E+02  0.00000000000E+00 0.  1.
         -4   -1    0    0    0  501 -0.00000000000E+00 -0.00000000000E+00 -0.34767176088E+02  0.34767176088E+02  0.00000000000E+00 0. -1.
         23    2    1    2    0    0  0.00000000000E+00  0.00000000000E+00  0.21331857232E+02  0.90866209408E+02  0.88326778948E+02 0.  0.
        -11    1    3    3    0    0 -0.21379537922E+02 -0.31897241635E+01  0.50284788061E+02  0.54734074326E+02  0.00000000000E+00 0.  1.
         11    1    3    3    0    0  0.21379537922E+02  0.31897241635E+01 -0.28952930829E+02  0.36132135082E+02  0.00000000000E+00 0. -1.
<mgrwt>
<rscale>  0 0.88326779E+02</rscale>
<asrwt>0</asrwt>
<pdfrwt beam="1">  1        4 0.86306205E-02 0.88326779E+02</pdfrwt>
<pdfrwt beam="2">  1       -4 0.53487963E-02 0.88326779E+02</pdfrwt>
<totfact> 0.29460591E+04</totfact>
</mgrwt>
</event>
<event>
 5    1  0.1265228E+001  0.9185020E+02  0.7546771E-02  0.1298432E+00
          3   -1    0    0  501    0  0.00000000000E+00  0.00000000000E+00  0.47106974536E+02  0.47106974536E+02  0.00000000000E+00 0. -1.
         -3   -1    0    0    0  501 -0.00000000000E+00 -0.00000000000E+00 -0.44772881771E+02  0.44772881771E+02  0.00000000000E+00 0.  1.
         23    2    1    2    0    0  0.00000000000E+00  0.00000000000E+00  0.23340927653E+01  0.91879856307E+02  0.91850204169E+02 0.  0.
        -11    1    3    3    0    0  0.90294862962E+01  0.41232055761E+02 -0.16935783391E+02  0.45480048418E+02  0.00000000000E+00 0.  1.
         11    1    3    3    0    0 -0.90294862962E+01 -0.41232055761E+02  0.19269876156E+02  0.46399807889E+02  0.00000000000E+00 0. -1.
<mgrwt>
<rscale>  0 0.91850204E+02</rscale>
<asrwt>0</asrwt>
<pdfrwt beam="1">  1        3 0.72472268E-02 0.91850204E+02</pdfrwt>
<pdfrwt beam="2">  1       -3 0.68881357E-02 0.91850204E+02</pdfrwt>
<totfact> 0.34582684E+04</totfact>
</mgrwt>
</event>
<event>
 5    1  0.1265228E+001  0.9050203E+02  0.7546771E-02  0.1301640E+00
          1   -1    0    0  501    0  0.00000000000E+00  0.00000000000E+00  0.20110613303E+03  0.20110613303E+03  0.00000000000E+00 0. -1.
         -1   -1    0    0    0  501 -0.00000000000E+00 -0.00000000000E+00 -0.10181958270E+02  0.10181958270E+02  0.00000000000E+00 0.  1.
         23    2    1    2    0    0  0.00000000000E+00  0.00000000000E+00  0.19092417476E+03  0.21128809130E+03  0.90502027697E+02 0.  0.
        -13    1    3    3    0    0 -0.44794718535E+02  0.24044137224E+01  0.81589979848E+02  0.93108929892E+02  0.00000000000E+00 0. -1.
         13    1    3    3    0    0  0.44794718535E+02 -0.24044137224E+01  0.10933419491E+03  0.11817916141E+03  0.00000000000E+00 0.  1.
<mgrwt>
<rscale>  0 0.90502028E+02</rscale>
<asrwt>0</asrwt>
<pdfrwt beam="1">  1        1 0.30939402E-01 0.90502028E+02</pdfrwt>
<pdfrwt beam="2">  1       -1 0.15664553E-02 0.90502028E+02</pdfrwt>
<totfact> 0.12091561E+05</totfact>
</mgrwt>
</event>
<event>
 5    1  0.1265228E+001  0.9069484E+02  0.7546771E-02  0.1301178E+00
         -1   -1    0    0    0  501 -0.00000000000E+00  0.00000000000E+00  0.13097614406E+03  0.13097614406E+03  0.00000000000E+00 0.  1.
          1   -1    0    0  501    0  0.00000000000E+00 -0.00000000000E+00 -0.15700482616E+02  0.15700482616E+02  0.00000000000E+00 0. -1.
         23    2    1    2    0    0  0.00000000000E+00  0.00000000000E+00  0.11527566145E+03  0.14667662668E+03  0.90694843798E+02 0.  0.
        -13    1    3    3    0    0  0.42427576695E+02  0.16009030925E+02  0.57667542971E+02  0.73361664701E+02  0.00000000000E+00 0. -1.
         13    1    3    3    0    0 -0.42427576695E+02 -0.16009030925E+02  0.57608118475E+02  0.73314961976E+02  0.00000000000E+00 0.  1.
<mgrwt>
<rscale>  0 0.90694844E+02</rscale>
<asrwt>0</asrwt>
<pdfrwt beam="2">  1        1 0.24154590E-02 0.90694844E+02</pdfrwt>
<pdfrwt beam="1">  1       -1 0.20150175E-01 0.90694844E+02</pdfrwt>
<totfact> 0.78165721E+04</totfact>
</mgrwt>
</event>
<event>
 5    1  0.1265228E+001  0.1021836E+03  0.7546771E-02  0.1275770E+00
          2   -1    0    0  501    0  0.00000000000E+00  0.00000000000E+00  0.12068647008E+02  0.12068647008E+02  0.00000000000E+00 0. -1.
         -2   -1    0    0    0  501 -0.00000000000E+00 -0.00000000000E+00 -0.21629382784E+03  0.21629382784E+03  0.00000000000E+00 0.  1.
         23    2    1    2    0    0  0.00000000000E+00  0.00000000000E+00 -0.20422518084E+03  0.22836247485E+03  0.10218363584E+03 0.  0.
        -11    1    3    3    0    0  0.10105887386E+02  0.36320589091E+02 -0.17917546781E+03  0.18309877776E+03  0.00000000000E+00 0.  1.
         11    1    3    3    0    0 -0.10105887386E+02 -0.36320589091E+02 -0.25049713021E+02  0.45263697089E+02  0.00000000000E+00 0. -1.
<mgrwt>
<rscale>  0 0.10218364E+03</rscale>
<asrwt>0</asrwt>
<pdfrwt beam="1">  1        2 0.18567151E-02 0.10218364E+03</pdfrwt>
<pdfrwt beam="2">  1       -2 0.33275971E-01 0.10218364E+03</pdfrwt>
<totfact> 0.44939327E+04</totfact>
</mgrwt>
</event>
<event>
 5    1  0.1265228E+001  0.9102877E+02  0.7546771E-02  0.1300379E+00
          2   -1    0    0  501    0  0.00000000000E+00  0.00000000000E+00  0.21269490833E+03  0.21269490833E+03  0.00000000000E+00 0.  1.
         -2   -1    0    0    0  501 -0.00000000000E+00 -0.00000000000E+00 -0.97395804150E+01  0.97395804150E+01  0.00000000000E+00 0. -1.
         23    2    1    2    0    0  0.00000000000E+00  0.00000000000E+00  0.20295532791E+03  0.22243448874E+03  0.91028768278E+02 0.  0.
        -11    1    3    3    0    0  0.19695311351E+02 -0.36924795647E+02  0.57751319612E+02  0.71320128573E+02  0.00000000000E+00 0. -1.
         11    1    3    3    0    0 -0.19695311351E+02  0.36924795647E+02  0.14520400830E+03  0.15111436017E+03  0.00000000000E+00 0.  1.
<mgrwt>
<rscale>  0 0.91028768E+02</rscale>
<asrwt>0</asrwt>
<pdfrwt beam="1">  1        2 0.32722290E-01 0.91028768E+02</pdfrwt>
<pdfrwt beam="2">  1       -2 0.14983972E-02 0.91028768E+02</pdfrwt>
<totfact> 0.15886914E+05</totfact>
</mgrwt>
</event>
<event>
 5    1  0.1265228E+001  0.9001293E+02  0.7546771E-02  0.1302820E+00
          1   -1    0    0  501    0  0.00000000000E+00  0.00000000000E+00  0.34655107957E+03  0.34655107957E+03  0.00000000000E+00 0. -1.
         -1   -1    0    0    0  501 -0.00000000000E+00 -0.00000000000E+00 -0.58449738125E+01  0.58449738125E+01  0.00000000000E+00 0.  1.
         23    2    1    2    0    0  0.00000000000E+00  0.00000000000E+00  0.34070610576E+03  0.35239605338E+03  0.90012932066E+02 0.  0.
        -11    1    3    3    0    0 -0.32512087805E+02  0.25205251320E+02  0.98886040556E+02  0.10710177199E+03  0.00000000000E+00 0.  1.
         11    1    3    3    0    0  0.32512087805E+02 -0.25205251320E+02  0.24182006520E+03  0.24529428139E+03  0.00000000000E+00 0. -1.
<mgrwt>
<rscale>  0 0.90012932E+02</rscale>
<asrwt>0</asrwt>
<pdfrwt beam="1">  1        1 0.53315535E-01 0.90012932E+02</pdfrwt>
<pdfrwt beam="2">  1       -1 0.89922701E-03 0.90012932E+02</pdfrwt>
<totfact> 0.13616801E+05</totfact>
</mgrwt>
</event>
<event>
 5    1  0.1265228E+001  0.9417654E+02  0.7546771E-02  0.1293042E+00
         -4   -1    0    0    0  501 -0.00000000000E+00  0.00000000000E+00  0.39682168120E+02  0.39682168120E+02  0.00000000000E+00 0.  1.
          4   -1    0    0  501    0  0.00000000000E+00 -0.00000000000E+00 -0.55876614906E+02  0.55876614906E+02  0.00000000000E+00 0. -1.
         23    2    1    2    0    0  0.00000000000E+00  0.00000000000E+00 -0.16194446786E+02  0.95558783027E+02  0.94176541170E+02 0.  0.
        -11    1    3    3    0    0  0.11012206181E+02 -0.17649090191E+02 -0.50961131668E+02  0.55043582827E+02  0.00000000000E+00 0. -1.
         11    1    3    3    0    0 -0.11012206181E+02  0.17649090191E+02  0.34766684882E+02  0.40515200200E+02  0.00000000000E+00 0.  1.
<mgrwt>
<rscale>  0 0.94176541E+02</rscale>
<asrwt>0</asrwt>
<pdfrwt beam="2">  1        4 0.85964023E-02 0.94176541E+02</pdfrwt>
<pdfrwt beam="1">  1       -4 0.61049489E-02 0.94176541E+02</pdfrwt>
<totfact> 0.24480876E+04</totfact>
</mgrwt>
</event>
<event>
 5    1  0.1265228E+001  0.9107656E+02  0.7546771E-02  0.1300265E+00
         -1   -1    0    0    0  501 -0.00000000000E+00  0.00000000000E+00  0.12876037418E+02  0.12876037418E+02  0.00000000000E+00 0.  1.
          1   -1    0    0  501    0  0.00000000000E+00 -0.00000000000E+00 -0.16105383198E+03  0.16105383198E+03  0.00000000000E+00 0. -1.
         23    2    1    2    0    0  0.00000000000E+00  0.00000000000E+00 -0.14817779456E+03  0.17392986940E+03  0.91076564864E+02 0.  0.
        -11    1    3    3    0    0  0.38894589185E+02  0.39489509264E+01 -0.29491867160E+02  0.48970945568E+02  0.00000000000E+00 0.  1.
         11    1    3    3    0    0 -0.38894589185E+02 -0.39489509264E+01 -0.11868592740E+03  0.12495892383E+03  0.00000000000E+00 0. -1.
<mgrwt>
<rscale>  0 0.91076565E+02</rscale>
<asrwt>0</asrwt>
<pdfrwt beam="2">  1        1 0.24777513E-01 0.91076565E+02</pdfrwt>
<pdfrwt beam="1">  1       -1 0.19809288E-02 0.91076565E+02</pdfrwt>
<totfact> 0.11395645E+05</totfact>
</mgrwt>
</event>
<event>
 5    1  0.1265228E+001  0.1030895E+03  0.7546771E-02  0.1273930E+00
         -2   -1    0    0    0  501 -0.00000000000E+00  0.00000000000E+00  0.10799247403E+02  0.10799247403E+02  0.00000000000E+00 0.  1.
          2   -1    0    0  501    0  0.00000000000E+00 -0.00000000000E+00 -0.24602269554E+03  0.24602269554E+03  0.00000000000E+00 0. -1.
         23    2    1    2    0    0  0.00000000000E+00  0.00000000000E+00 -0.23522344813E+03  0.25682194294E+03  0.10308947484E+03 0.  0.
        -11    1    3    3    0    0  0.30464536722E+02 -0.34392735410E+02 -0.17581923182E+03  0.18172328009E+03  0.00000000000E+00 0. -1.
         11    1    3    3    0    0 -0.30464536722E+02  0.34392735410E+02 -0.59404216311E+02  0.75098662853E+02  0.00000000000E+00 0.  1.
<mgrwt>
<rscale>  0 0.10308947E+03</rscale>
<asrwt>0</asrwt>
<pdfrwt beam="2">  1        2 0.37849643E-01 0.10308947E+03</pdfrwt>
<pdfrwt beam="1">  1       -2 0.16614228E-02 0.10308947E+03</pdfrwt>
<totfact> 0.11978728E+05</totfact>
</mgrwt>
</event>
<event>
 5    1  0.1265228E+001  0.1008297E+03  0.7546771E-02  0.1278561E+00
          2   -1    0    0  501    0  0.00000000000E+00  0.00000000000E+00  0.58995867664E+02  0.58995867664E+02  0.00000000000E+00 0. -1.
         -2   -1    0    0    0  501 -0.00000000000E+00 -0.00000000000E+00 -0.43081944801E+02  0.43081944801E+02  0.00000000000E+00 0.  1.
         23    2    1    2    0    0  0.00000000000E+00  0.00000000000E+00  0.15913922863E+02  0.10207781247E+03  0.10082969234E+03 0.  0.
        -13    1    3    3    0    0  0.10642096601E+02 -0.92071688274E+00 -0.41923151891E+02  0.43262600524E+02  0.00000000000E+00 0.  1.
         13    1    3    3    0    0 -0.10642096601E+02  0.92071688274E+00  0.57837074753E+02  0.58815211941E+02  0.00000000000E+00 0. -1.
<mgrwt>
<rscale>  0 0.10082969E+03</rscale>
<asrwt>0</asrwt>
<pdfrwt beam="1">  1        2 0.90762873E-02 0.10082969E+03</pdfrwt>
<pdfrwt beam="2">  1       -2 0.66279915E-02 0.10082969E+03</pdfrwt>
<totfact> 0.79246529E+04</totfact>
</mgrwt>
</event>
<event>
 5    1  0.1265228E+001  0.9310260E+02  0.7546771E-02  0.1295508E+00
          1   -1    0    0  501    0  0.00000000000E+00  0.00000000000E+00  0.11508247056E+03  0.11508247056E+03  0.00000000000E+00 0. -1.
         -1   -1    0    0    0  501 -0.00000000000E+00 -0.00000000000E+00 -0.18830178469E+02  0.18830178469E+02  0.00000000000E+00 0.  1.
         23    2    1    2    0    0  0.00000000000E+00  0.00000000000E+00  0.96252292091E+02  0.13391264903E+03  0.93102598443E+02 0.  0.
        -11    1    3    3    0    0  0.17237059311E+02 -0.22865840689E+02  0.10091635269E+03  0.10490030087E+03  0.00000000000E+00 0. -1.
         11    1    3    3    0    0 -0.17237059311E+02  0.22865840689E+02 -0.46640605956E+01  0.29012348153E+02  0.00000000000E+00 0.  1.
<mgrwt>
<rscale>  0 0.93102598E+02</rscale>
<asrwt>0</asrwt>
<pdfrwt beam="1">  1        1 0.17704995E-01 0.93102598E+02</pdfrwt>
<pdfrwt beam="2">  1       -1 0.28969506E-02 0.93102598E+02</pdfrwt>
<totfact> 0.10104904E+05</totfact>
</mgrwt>
</event>
<event>
 4    1  0.1265228E+001  0.5066859E+02  0.7546771E-02  0.1441768E+00
          3   -1    0    0  501    0  0.00000000000E+00  0.00000000000E+00  0.64419788437E+02  0.64419788437E+02  0.00000000000E+00 0.  1.
         -3   -1    0    0    0  501 -0.00000000000E+00 -0.00000000000E+00 -0.99631882107E+01  0.99631882107E+01  0.00000000000E+00 0. -1.
        -11    1    1    2    0    0  0.22407319261E-01 -0.15674384125E+02  0.56446866571E+02  0.58582724121E+02  0.00000000000E+00 0.  1.
         11    1    1    2    0    0 -0.22407319261E-01  0.15674384125E+02 -0.19902663447E+01  0.15800252527E+02  0.00000000000E+00 0. -1.
<mgrwt>
<rscale>  0 0.50668589E+02</rscale>
<asrwt>0</asrwt>
<pdfrwt beam="1">  1        3 0.99107364E-02 0.50668589E+02</pdfrwt>
<pdfrwt beam="2">  1       -3 0.15327982E-02 0.50668589E+02</pdfrwt>
<totfact> 0.17167283E+05</totfact>
</mgrwt>
</event>
<event>
 5    1  0.1265228E+001  0.8815497E+02  0.7546771E-02  0.1307382E+00
          3   -1    0    0  501    0  0.00000000000E+00  0.00000000000E+00  0.74642217315E+02  0.74642217315E+02  0.00000000000E+00 0. -1.
         -3   -1    0    0    0  501 -0.00000000000E+00 -0.00000000000E+00 -0.26028497602E+02  0.26028497602E+02  0.00000000000E+00 0.  1.
         23    2    1    2    0    0  0.00000000000E+00  0.00000000000E+00  0.48613719713E+02  0.10067071492E+03  0.88154972053E+02 0.  0.
        -11    1    3    3    0    0  0.10366631327E+02  0.29522048950E+02  0.59759716413E+02  0.67455482543E+02  0.00000000000E+00 0. -1.
         11    1    3    3    0    0 -0.10366631327E+02 -0.29522048950E+02 -0.11145996700E+02  0.33215232375E+02  0.00000000000E+00 0.  1.
<mgrwt>
<rscale>  0 0.88154972E+02</rscale>
<asrwt>0</asrwt>
<pdfrwt beam="1">  1        3 0.11483418E-01 0.88154972E+02</pdfrwt>
<pdfrwt beam="2">  1       -3 0.40043843E-02 0.88154972E+02</pdfrwt>
<totfact> 0.37935058E+04</totfact>
</mgrwt>
</event>
<event>
 5    1  0.1265228E+001  0.8774675E+02  0.7546771E-02  0.1308402E+00
         -4   -1    0    0    0  501 -0.00000000000E+00  0.00000000000E+00  0.51465950499E+02  0.51465950499E+02  0.00000000000E+00 0.  1.
          4   -1    0    0  501    0  0.00000000000E+00 -0.00000000000E+00 -0.37400904996E+02  0.37400904996E+02  0.00000000000E+00 0. -1.
         23    2    1    2    0    0  0.00000000000E+00  0.00000000000E+00  0.14065045503E+02  0.88866855494E+02  0.87746752079E+02 0.  0.
        -11    1    3    3    0    0  0.24792690782E+02  0.16058620897E+02 -0.25820997618E+02  0.39233668440E+02  0.00000000000E+00 0. -1.
         11    1    3    3    0    0 -0.24792690782E+02 -0.16058620897E+02  0.39886043121E+02  0.49633187054E+02  0.00000000000E+00 0.  1.
<mgrwt>
<rscale>  0 0.87746752E+02</rscale>
<asrwt>0</asrwt>
<pdfrwt beam="2">  1        4 0.57539854E-02 0.87746752E+02</pdfrwt>
<pdfrwt beam="1">  1       -4 0.79178385E-02 0.87746752E+02</pdfrwt>
<totfact> 0.30133756E+04</totfact>
</mgrwt>
</event>
<event>
 5    1  0.1265228E+001  0.9007430E+02  0.7546771E-02  0.1302672E+00
          1   -1    0    0  501    0  0.00000000000E+00  0.00000000000E+00  0.22541797315E+03  0.22541797315E+03  0.00000000000E+00 0. -1.
         -1   -1    0    0    0  501 -0.00000000000E+00 -0.00000000000E+00 -0.89981500262E+01  0.89981500262E+01  0.00000000000E+00 0.  1.
         23    2    1    2    0    0  0.00000000000E+00  0.00000000000E+00  0.21641982313E+03  0.23441612318E+03  0.90074296912E+02 0.  0.
        -11    1    3    3    0    0  0.27869430863E+02  0.25473246604E+02  0.17210336857E+03  0.17619637040E+03  0.00000000000E+00 0. -1.
         11    1    3    3    0    0 -0.27869430863E+02 -0.25473246604E+02  0.44316454559E+02  0.58219752781E+02  0.00000000000E+00 0.  1.
<mgrwt>
<rscale>  0 0.90074297E+02</rscale>
<asrwt>0</asrwt>
<pdfrwt beam="1">  1        1 0.34679684E-01 0.90074297E+02</pdfrwt>
<pdfrwt beam="2">  1       -1 0.13843309E-02 0.90074297E+02</pdfrwt>
<totfact> 0.12520377E+05</totfact>
</mgrwt>
</event>
<event>
 5    1  0.1265228E+001  0.8763015E+02  0.7546771E-02  0.1308694E+00
         -2   -1    0    0    0  501 -0.00000000000E+00  0.00000000000E+00  0.10543847646E+02  0.10543847646E+02  0.00000000000E+00 0.  1.
          2   -1    0    0  501    0  0.00000000000E+00 -0.00000000000E+00 -0.18207401686E+03  0.18207401686E+03  0.00000000000E+00 0. -1.
         23    2    1    2    0    0  0.00000000000E+00  0.00000000000E+00 -0.17153016922E+03  0.19261786451E+03  0.87630147645E+02 0.  0.
        -11    1    3    3    0    0 -0.32257819751E+02 -0.13737486063E+02 -0.14352373991E+03  0.14774420251E+03  0.00000000000E+00 0. -1.
         11    1    3    3    0    0  0.32257819751E+02  0.13737486063E+02 -0.28006429309E+02  0.44873661998E+02  0.00000000000E+00 0.  1.
<mgrwt>
<rscale>  0 0.87630148E+02</rscale>
<asrwt>0</asrwt>
<pdfrwt beam="2">  1        2 0.28011390E-01 0.87630148E+02</pdfrwt>
<pdfrwt beam="1">  1       -2 0.16221302E-02 0.87630148E+02</pdfrwt>
<totfact> 0.16640247E+05</totfact>
</mgrwt>
</event>
<event>
 5    1  0.1265228E+001  0.9121280E+02  0.7546771E-02  0.1299941E+00
          1   -1    0    0  501    0  0.00000000000E+00  0.00000000000E+00  0.28125486023E+02  0.28125486023E+02  0.00000000000E+00 0. -1.
         -1   -1    0    0    0  501 -0.00000000000E+00 -0.00000000000E+00 -0.73952269565E+02  0.73952269565E+02  0.00000000000E+00 0.  1.
         23    2    1    2    0    0  0.00000000000E+00  0.00000000000E+00 -0.45826783543E+02  0.10207775559E+03  0.91212795681E+02 0.  0.
        -11    1    3    3    0    0 -0.23268555298E+02 -0.17538617714E+02 -0.62176920906E+02  0.68665845006E+02  0.00000000000E+00 0.  1.
         11    1    3    3    0    0  0.23268555298E+02  0.17538617714E+02  0.16350137363E+02  0.33411910583E+02  0.00000000000E+00 0. -1.
<mgrwt>
<rscale>  0 0.91212796E+02</rscale>
<asrwt>0</asrwt>
<pdfrwt beam="1">  1        1 0.43269980E-02 0.91212796E+02</pdfrwt>
<pdfrwt beam="2">  1       -1 0.11377272E-01 0.91212796E+02</pdfrwt>
<totfact> 0.85681121E+04</totfact>
</mgrwt>
</event>
<event>
 5    1  0.1265228E+001  0.8876678E+02  0.7546771E-02  0.1305866E+00
          1   -1    0    0  501    0  0.00000000000E+00  0.00000000000E+00  0.85108831056E+02  0.85108831056E+02  0.00000000000E+00 0. -1.
         -1   -1    0    0    0  501 -0.00000000000E+00 -0.00000000000E+00 -0.23145487131E+02  0.23145487131E+02  0.00000000000E+00 0.  1.
         23    2    1    2    0    0  0.00000000000E+00  0.00000000000E+00  0.61963343925E+02  0.10825431819E+03  0.88766781039E+02 0.  0.
        -13    1    3    3    0    0  0.80552328494E+01  0.40872682082E+02  0.49653822763E+02  0.64814851938E+02  0.00000000000E+00 0. -1.
         13    1    3    3    0    0 -0.80552328494E+01 -0.40872682082E+02  0.12309521162E+02  0.43439466249E+02  0.00000000000E+00 0.  1.
<mgrwt>
<rscale>  0 0.88766781E+02</rscale>
<asrwt>0</asrwt>
<pdfrwt beam="1">  1        1 0.13093666E-01 0.88766781E+02</pdfrwt>
<pdfrwt beam="2">  1       -1 0.35608442E-02 0.88766781E+02</pdfrwt>
<totfact> 0.10946565E+05</totfact>
</mgrwt>
</event>
<event>
 5    1  0.1265228E+001  0.9072439E+02  0.7546771E-02  0.1301107E+00
          2   -1    0    0  501    0  0.00000000000E+00  0.00000000000E+00  0.22027271327E+03  0.22027271327E+03  0.00000000000E+00 0. -1.
         -2   -1    0    0    0  501 -0.00000000000E+00 -0.00000000000E+00 -0.93417318349E+01  0.93417318349E+01  0.00000000000E+00 0.  1.
         23    2    1    2    0    0  0.00000000000E+00  0.00000000000E+00  0.21093098143E+03  0.22961444510E+03  0.90724387413E+02 0.  0.
        -11    1    3    3    0    0 -0.36941734144E+02 -0.27450227452E+01  0.39201216664E+02  0.53934796369E+02  0.00000000000E+00 0.  1.
         11    1    3    3    0    0  0.36941734144E+02  0.27450227452E+01  0.17172976477E+03  0.17567964873E+03  0.00000000000E+00 0. -1.
<mgrwt>
<rscale>  0 0.90724387E+02</rscale>
<asrwt>0</asrwt>
<pdfrwt beam="1">  1        2 0.33888106E-01 0.90724387E+02</pdfrwt>
<pdfrwt beam="2">  1       -2 0.14371897E-02 0.90724387E+02</pdfrwt>
<totfact> 0.16236683E+05</totfact>
</mgrwt>
</event>
<event>
 5    1  0.1265228E+001  0.9075816E+02  0.7546771E-02  0.1301026E+00
         -1   -1    0    0    0  501 -0.00000000000E+00  0.00000000000E+00  0.10628765539E+03  0.10628765539E+03  0.00000000000E+00 0.  1.
          1   -1    0    0  501    0  0.00000000000E+00 -0.00000000000E+00 -0.19374411484E+02  0.19374411484E+02  0.00000000000E+00 0. -1.
         23    2    1    2    0    0  0.00000000000E+00  0.00000000000E+00  0.86913243910E+02  0.12566206688E+03  0.90758157126E+02 0.  0.
        -11    1    3    3    0    0 -0.27948159277E+02 -0.35234969093E+02  0.35073542003E+02  0.57032937874E+02  0.00000000000E+00 0. -1.
         11    1    3    3    0    0  0.27948159277E+02  0.35234969093E+02  0.51839701907E+02  0.68629129003E+02  0.00000000000E+00 0.  1.
<mgrwt>
<rscale>  0 0.90758157E+02</rscale>
<asrwt>0</asrwt>
<pdfrwt beam="2">  1        1 0.29806788E-02 0.90758157E+02</pdfrwt>
<pdfrwt beam="1">  1       -1 0.16351947E-01 0.90758157E+02</pdfrwt>
<totfact> 0.81399462E+04</totfact>
</mgrwt>
</event>
<event>
 5    1  0.1265228E+001  0.9081132E+02  0.7546771E-02  0.1300899E+00
          3   -1    0    0  501    0  0.00000000000E+00  0.00000000000E+00  0.16702062328E+03  0.16702062328E+03  0.00000000000E+00 0. -1.
         -3   -1    0    0    0  501 -0.00000000000E+00 -0.00000000000E+00 -0.12343829024E+02  0.12343829024E+02  0.00000000000E+00 0.  1.
         23    2    1    2    0    0  0.00000000000E+00  0.00000000000E+00  0.15467679425E+03  0.17936445230E+03  0.90811321260E+02 0.  0.
        -13    1    3    3    0    0 -0.42873133580E+01  0.38525760208E+02  0.30637512157E+02  0.49409234021E+02  0.00000000000E+00 0.  1.
         13    1    3    3    0    0  0.42873133580E+01 -0.38525760208E+02  0.12403928209E+03  0.12995521828E+03  0.00000000000E+00 0. -1.
<mgrwt>
<rscale>  0 0.90811321E+02</rscale>
<asrwt>0</asrwt>
<pdfrwt beam="1">  1        3 0.25695479E-01 0.90811321E+02</pdfrwt>
<pdfrwt beam="2">  1       -3 0.18990507E-02 0.90811321E+02</pdfrwt>
<totfact> 0.29923945E+04</totfact>
</mgrwt>
</event>
<event>
 5    1  0.1265228E+001  0.8720372E+02  0.7546771E-02  0.1309768E+00
         -1   -1    0    0    0  501 -0.00000000000E+00  0.00000000000E+00  0.80564297455E+01  0.80564297455E+01  0.00000000000E+00 0.  1.
          1   -1    0    0  501    0  0.00000000000E+00 -0.00000000000E+00 -0.23597578412E+03  0.23597578412E+03  0.00000000000E+00 0. -1.
         23    2    1    2    0    0  0.00000000000E+00  0.00000000000E+00 -0.22791935438E+03  0.24403221387E+03  0.87203723003E+02 0.  0.
        -11    1    3    3    0    0 -0.36185732291E+02 -0.24205892364E+02 -0.12069327087E+03  0.12830509764E+03  0.00000000000E+00 0.  1.
         11    1    3    3    0    0  0.36185732291E+02  0.24205892364E+02 -0.10722608350E+03  0.11572711623E+03  0.00000000000E+00 0. -1.
<mgrwt>
<rscale>  0 0.87203723E+02</rscale>
<asrwt>0</asrwt>
<pdfrwt beam="2">  1        1 0.36303960E-01 0.87203723E+02</pdfrwt>
<pdfrwt beam="1">  1       -1 0.12394510E-02 0.87203723E+02</pdfrwt>
<totfact> 0.13770864E+05</totfact>
</mgrwt>
</event>
<event>
 5    1  0.1265228E+001  0.9074960E+02  0.7546771E-02  0.1301047E+00
         -1   -1    0    0    0  501 -0.00000000000E+00  0.00000000000E+00  0.47527246706E+02  0.47527246706E+02  0.00000000000E+00 0.  1.
          1   -1    0    0  501    0  0.00000000000E+00 -0.00000000000E+00 -0.43319834848E+02  0.43319834848E+02  0.00000000000E+00 0. -1.
         23    2    1    2    0    0  0.00000000000E+00  0.00000000000E+00  0.42074118573E+01  0.90847081554E+02  0.90749600067E+02 0.  0.
        -11    1    3    3    0    0 -0.20028866563E+02 -0.59795573378E+01  0.42420554873E+02  0.47290739870E+02  0.00000000000E+00 0.  1.
         11    1    3    3    0    0  0.20028866563E+02  0.59795573378E+01 -0.38213143016E+02  0.43556341684E+02  0.00000000000E+00 0. -1.
<mgrwt>
<rscale>  0 0.90749600E+02</rscale>
<asrwt>0</asrwt>
<pdfrwt beam="2">  1        1 0.66645900E-02 0.90749600E+02</pdfrwt>
<pdfrwt beam="1">  1       -1 0.73118841E-02 0.90749600E+02</pdfrwt>
<totfact> 0.92984196E+04</totfact>
</mgrwt>
</event>
<event>
 5    1  0.1265228E+001  0.9591862E+02  0.7546771E-02  0.1289120E+00
          2   -1    0    0  501    0  0.00000000000E+00  0.00000000000E+00  0.40083966319E+03  0.40083966319E+03  0.00000000000E+00 0. -1.
         -2   -1    0    0    0  501 -0.00000000000E+00 -0.00000000000E+00 -0.57381934135E+01  0.57381934135E+01  0.00000000000E+00 0.  1.
         23    2    1    2    0    0  0.00000000000E+00  0.00000000000E+00  0.39510146977E+03  0.40657785660E+03  0.95918622074E+02 0.  0.
        -13    1    3    3    0    0 -0.26985177229E+01  0.47515530289E+02  0.22265915984E+03  0.22768862308E+03  0.00000000000E+00 0. -1.
         13    1    3    3    0    0  0.26985177229E+01 -0.47515530289E+02  0.17244230993E+03  0.17888923352E+03  0.00000000000E+00 0.  1.
<mgrwt>
<rscale>  0 0.95918622E+02</rscale>
<asrwt>0</asrwt>
<pdfrwt beam="1">  1        2 0.61667618E-01 0.95918622E+02</pdfrwt>
<pdfrwt beam="2">  1       -2 0.88279930E-03 0.95918622E+02</pdfrwt>
<totfact> 0.17454314E+05</totfact>
</mgrwt>
</event>
<event>
 5    1  0.1265228E+001  0.9087872E+02  0.7546771E-02  0.1300738E+00
         -2   -1    0    0    0  501 -0.00000000000E+00  0.00000000000E+00  0.61082448133E+01  0.61082448133E+01  0.00000000000E+00 0.  1.
          2   -1    0    0  501    0  0.00000000000E+00 -0.00000000000E+00 -0.33802435745E+03  0.33802435745E+03  0.00000000000E+00 0. -1.
         23    2    1    2    0    0  0.00000000000E+00  0.00000000000E+00 -0.33191611263E+03  0.34413260226E+03  0.90878722001E+02 0.  0.
        -11    1    3    3    0    0 -0.14721585784E+02  0.39816513952E+02 -0.10458793429E+03  0.11287477960E+03  0.00000000000E+00 0.  1.
         11    1    3    3    0    0  0.14721585784E+02 -0.39816513952E+02 -0.22732817835E+03  0.23125782266E+03  0.00000000000E+00 0. -1.
<mgrwt>
<rscale>  0 0.90878722E+02</rscale>
<asrwt>0</asrwt>
<pdfrwt beam="2">  1        2 0.52003767E-01 0.90878722E+02</pdfrwt>
<pdfrwt beam="1">  1       -2 0.93972962E-03 0.90878722E+02</pdfrwt>
<totfact> 0.18942622E+05</totfact>
</mgrwt>
</event>
<event>
 5    1  0.1265228E+001  0.9043976E+02  0.7546771E-02  0.1301790E+00
          2   -1    0    0  501    0  0.00000000000E+00  0.00000000000E+00  0.31776898479E+03  0.31776898479E+03  0.00000000000E+00 0. -1.
         -2   -1    0    0    0  501 -0.00000000000E+00 -0.00000000000E+00 -0.64349813806E+01  0.64349813806E+01  0.00000000000E+00 0.  1.
         23    2    1    2    0    0  0.00000000000E+00  0.00000000000E+00  0.31133400341E+03  0.32420396617E+03  0.90439758966E+02 0.  0.
        -11    1    3    3    0    0 -0.24784650083E+02 -0.35470774113E+02  0.10860115258E+03  0.11690451247E+03  0.00000000000E+00 0.  1.
         11    1    3    3    0    0  0.24784650083E+02  0.35470774113E+02  0.20273285083E+03  0.20729945370E+03  0.00000000000E+00 0. -1.
<mgrwt>
<rscale>  0 0.90439759E+02</rscale>
<asrwt>0</asrwt>
<pdfrwt beam="1">  1        2 0.48887524E-01 0.90439759E+02</pdfrwt>
<pdfrwt beam="2">  1       -2 0.98999738E-03 0.90439759E+02</pdfrwt>
<totfact> 0.18755415E+05</totfact>
</mgrwt>
</event>
<event>
 5    1  0.1265228E+001  0.9356851E+02  0.7546771E-02  0.1294433E+00
         -3   -1    0    0    0  501 -0.00000000000E+00  0.00000000000E+00  0.79029444882E+01  0.79029444882E+01  0.00000000000E+00 0.  1.
          3   -1    0    0  501    0  0.00000000000E+00 -0.00000000000E+00 -0.27695581220E+03  0.27695581220E+03  0.00000000000E+00 0. -1.
         23    2    1    2    0    0  0.00000000000E+00  0.00000000000E+00 -0.26905286771E+03  0.28485875669E+03  0.93568507725E+02 0.  0.
        -11    1    3    3    0    0  0.28974445717E+02 -0.22829110213E+02 -0.46920016072E+02  0.59683956688E+02  0.00000000000E+00 0.  1.
         11    1    3    3    0    0 -0.28974445717E+02  0.22829110213E+02 -0.22213285164E+03  0.22517480000E+03  0.00000000000E+00 0. -1.
<mgrwt>
<rscale>  0 0.93568508E+02</rscale>
<asrwt>0</asrwt>
<pdfrwt beam="2">  1        3 0.42608575E-01 0.93568508E+02</pdfrwt>
<pdfrwt beam="1">  1       -3 0.12158379E-02 0.93568508E+02</pdfrwt>
<totfact> 0.22970130E+04</totfact>
</mgrwt>
</event>
<event>
 5    1  0.1265228E+001  0.9158327E+02  0.7546771E-02  0.1299062E+00
          1   -1    0    0  501    0  0.00000000000E+00  0.00000000000E+00  0.44928284663E+02  0.44928284663E+02  0.00000000000E+00 0. -1.
         -1   -1    0    0    0  501 -0.00000000000E+00 -0.00000000000E+00 -0.46671578649E+02  0.46671578649E+02  0.00000000000E+00 0.  1.
         23    2    1    2    0    0  0.00000000000E+00  0.00000000000E+00 -0.17432939859E+01  0.91599863312E+02  0.91583272953E+02 0.  0.
        -11    1    3    3    0    0  0.39738885770E+02 -0.64581770034E+01 -0.22692722698E+02  0.46215222123E+02  0.00000000000E+00 0.  1.
         11    1    3    3    0    0 -0.39738885770E+02  0.64581770034E+01  0.20949428712E+02  0.45384641188E+02  0.00000000000E+00 0. -1.
<mgrwt>
<rscale>  0 0.91583273E+02</rscale>
<asrwt>0</asrwt>
<pdfrwt beam="1">  1        1 0.69120438E-02 0.91583273E+02</pdfrwt>
<pdfrwt beam="2">  1       -1 0.71802429E-02 0.91583273E+02</pdfrwt>
<totfact> 0.91122522E+04</totfact>
</mgrwt>
</event>
<event>
 5    1  0.1265228E+001  0.8894529E+02  0.7546771E-02  0.1305426E+00
         -4   -1    0    0    0  501 -0.00000000000E+00  0.00000000000E+00  0.70329597571E+02  0.70329597571E+02  0.00000000000E+00 0. -1.
          4   -1    0    0  501    0  0.00000000000E+00 -0.00000000000E+00 -0.28122100482E+02  0.28122100482E+02  0.00000000000E+00 0.  1.
         23    2    1    2    0    0  0.00000000000E+00  0.00000000000E+00  0.42207497089E+02  0.98451698053E+02  0.88945286772E+02 0.  0.
        -13    1    3    3    0    0 -0.36009455158E+02  0.54438155166E+01  0.49356287902E+02  0.61338072546E+02  0.00000000000E+00 0. -1.
         13    1    3    3    0    0  0.36009455158E+02 -0.54438155166E+01 -0.71487908131E+01  0.37113625507E+02  0.00000000000E+00 0.  1.
<mgrwt>
<rscale>  0 0.88945287E+02</rscale>
<asrwt>0</asrwt>
<pdfrwt beam="2">  1        4 0.43264770E-02 0.88945287E+02</pdfrwt>
<pdfrwt beam="1">  1       -4 0.10819938E-01 0.88945287E+02</pdfrwt>
<totfact> 0.28393042E+04</totfact>
</mgrwt>
</event>
<event>
 5    1  0.1265228E+001  0.9536132E+02  0.7546771E-02  0.1290364E+00
          1   -1    0    0  501    0  0.00000000000E+00  0.00000000000E+00  0.14124415993E+02  0.14124415993E+02  0.00000000000E+00 0. -1.
         -1   -1    0    0    0  501 -0.00000000000E+00 -0.00000000000E+00 -0.16095852788E+03  0.16095852788E+03  0.00000000000E+00 0.  1.
         23    2    1    2    0    0  0.00000000000E+00  0.00000000000E+00 -0.14683411189E+03  0.17508294387E+03  0.95361317218E+02 0.  0.
        -13    1    3    3    0    0  0.79164043155E+01 -0.32043006700E+02 -0.13659294869E+03  0.14052422342E+03  0.00000000000E+00 0.  1.
         13    1    3    3    0    0 -0.79164043155E+01  0.32043006700E+02 -0.10241163194E+02  0.34558720451E+02  0.00000000000E+00 0. -1.
<mgrwt>
<rscale>  0 0.95361317E+02</rscale>
<asrwt>0</asrwt>
<pdfrwt beam="1">  1        1 0.21729870E-02 0.95361317E+02</pdfrwt>
<pdfrwt beam="2">  1       -1 0.24762852E-01 0.95361317E+02</pdfrwt>
<totfact> 0.65428495E+04</totfact>
</mgrwt>
</event>
<event>
 5    1  0.1265228E+001  0.8122646E+02  0.7546771E-02  0.1325607E+00
         -1   -1    0    0    0  501 -0.00000000000E+00  0.00000000000E+00  0.70299171179E+02  0.70299171179E+02  0.00000000000E+00 0.  1.
          1   -1    0    0  501    0  0.00000000000E+00 -0.00000000000E+00 -0.23463069433E+02  0.23463069433E+02  0.00000000000E+00 0. -1.
         23    2    1    2    0    0  0.00000000000E+00  0.00000000000E+00  0.46836101746E+02  0.93762240613E+02  0.81226457130E+02 0.  0.
        -13    1    3    3    0    0 -0.29177707969E+02 -0.26069862932E+02  0.35981606065E+02  0.53156865696E+02  0.00000000000E+00 0. -1.
         13    1    3    3    0    0  0.29177707969E+02  0.26069862932E+02  0.10854495681E+02  0.40605374917E+02  0.00000000000E+00 0.  1.
<mgrwt>
<rscale>  0 0.81226457E+02</rscale>
<asrwt>0</asrwt>
<pdfrwt beam="2">  1        1 0.36097030E-02 0.81226457E+02</pdfrwt>
<pdfrwt beam="1">  1       -1 0.10815257E-01 0.81226457E+02</pdfrwt>
<totfact> 0.11604955E+05</totfact>
</mgrwt>
</event>
<event>
 5    1  0.1265228E+001  0.8364798E+02  0.7546771E-02  0.1319007E+00
          2   -1    0    0  501    0  0.00000000000E+00  0.00000000000E+00  0.92765822601E+01  0.92765822601E+01  0.00000000000E+00 0. -1.
         -2   -1    0    0    0  501 -0.00000000000E+00 -0.00000000000E+00 -0.18856578682E+03  0.18856578682E+03  0.00000000000E+00 0.  1.
         23    2    1    2    0    0  0.00000000000E+00  0.00000000000E+00 -0.17928920456E+03  0.19784236908E+03  0.83647977451E+02 0.  0.
        -11    1    3    3    0    0  0.31705936861E+02 -0.12812239063E+02 -0.14659709684E+03  0.15053281604E+03  0.00000000000E+00 0.  1.
         11    1    3    3    0    0 -0.31705936861E+02  0.12812239063E+02 -0.32692107723E+02  0.47309553046E+02  0.00000000000E+00 0. -1.
<mgrwt>
<rscale>  0 0.83647977E+02</rscale>
<asrwt>0</asrwt>
<pdfrwt beam="1">  1        2 0.14271666E-02 0.83647977E+02</pdfrwt>
<pdfrwt beam="2">  1       -2 0.29010118E-01 0.83647977E+02</pdfrwt>
<totfact> 0.79569160E+04</totfact>
</mgrwt>
</event>
<event>
 5    1  0.1265228E+001  0.9000356E+02  0.7546771E-02  0.1302843E+00
         -2   -1    0    0    0  501 -0.00000000000E+00  0.00000000000E+00  0.20245323470E+03  0.20245323470E+03  0.00000000000E+00 0.  1.
          2   -1    0    0  501    0  0.00000000000E+00 -0.00000000000E+00 -0.10003100401E+02  0.10003100401E+02  0.00000000000E+00 0. -1.
         23    2    1    2    0    0  0.00000000000E+00  0.00000000000E+00  0.19245013430E+03  0.21245633510E+03  0.90003556222E+02 0.  0.
        -11    1    3    3    0    0 -0.11425576465E+01 -0.44975814886E+02  0.93828608507E+02  0.10405737426E+03  0.00000000000E+00 0.  1.
         11    1    3    3    0    0  0.11425576465E+01  0.44975814886E+02  0.98621525795E+02  0.10839896085E+03  0.00000000000E+00 0. -1.
<mgrwt>
<rscale>  0 0.90003556E+02</rscale>
<asrwt>0</asrwt>
<pdfrwt beam="2">  1        2 0.15389387E-02 0.90003556E+02</pdfrwt>
<pdfrwt beam="1">  1       -2 0.31146648E-01 0.90003556E+02</pdfrwt>
<totfact> 0.64073230E+04</totfact>
</mgrwt>
</event>
<event>
 5    1  0.1265228E+001  0.9180467E+02  0.7546771E-02  0.1298539E+00
          1   -1    0    0  501    0  0.00000000000E+00  0.00000000000E+00  0.98893632973E+01  0.98893632973E+01  0.00000000000E+00 0. -1.
         -1   -1    0    0    0  501 -0.00000000000E+00 -0.00000000000E+00 -0.21305967598E+03  0.21305967598E+03  0.00000000000E+00 0.  1.
         23    2    1    2    0    0  0.00000000000E+00  0.00000000000E+00 -0.20317031268E+03  0.22294903927E+03  0.91804673950E+02 0.  0.
        -13    1    3    3    0    0  0.68929005411E+01 -0.38396241408E+02 -0.42835108512E+02  0.57936430278E+02  0.00000000000E+00 0. -1.
         13    1    3    3    0    0 -0.68929005411E+01  0.38396241408E+02 -0.16033520417E+03  0.16501260900E+03  0.00000000000E+00 0.  1.
<mgrwt>
<rscale>  0 0.91804674E+02</rscale>
<asrwt>0</asrwt>
<pdfrwt beam="1">  1        1 0.15214406E-02 0.91804674E+02</pdfrwt>
<pdfrwt beam="2">  1       -1 0.32778409E-01 0.91804674E+02</pdfrwt>
<totfact> 0.66940847E+04</totfact>
</mgrwt>
</event>
<event>
 5    1  0.1265228E+001  0.9166372E+02  0.7546771E-02  0.1298872E+00
         -1   -1    0    0    0  501 -0.00000000000E+00  0.00000000000E+00  0.11073860904E+02  0.11073860904E+02  0.00000000000E+00 0.  1.
          1   -1    0    0  501    0  0.00000000000E+00 -0.00000000000E+00 -0.18968626447E+03  0.18968626447E+03  0.00000000000E+00 0. -1.
         23    2    1    2    0    0  0.00000000000E+00  0.00000000000E+00 -0.17861240357E+03  0.20076012537E+03  0.91663718189E+02 0.  0.
        -11    1    3    3    0    0 -0.86021764338E+01 -0.38762596169E+02 -0.39169568664E+02  0.55774469163E+02  0.00000000000E+00 0.  1.
         11    1    3    3    0    0  0.86021764338E+01  0.38762596169E+02 -0.13944283490E+03  0.14498565621E+03  0.00000000000E+00 0. -1.
<mgrwt>
<rscale>  0 0.91663718E+02</rscale>
<asrwt>0</asrwt>
<pdfrwt beam="2">  1        1 0.29182501E-01 0.91663718E+02</pdfrwt>
<pdfrwt beam="1">  1       -1 0.17036710E-02 0.91663718E+02</pdfrwt>
<totfact> 0.11553445E+05</totfact>
</mgrwt>
</event>
<event>
 5    1  0.1265228E+001  0.8936029E+02  0.7546771E-02  0.1304408E+00
         -1   -1    0    0    0  501 -0.00000000000E+00  0.00000000000E+00  0.69700397676E+01  0.69700397676E+01  0.00000000000E+00 0.  1.
          1   -1    0    0  501    0  0.00000000000E+00 -0.00000000000E+00 -0.28641376183E+03  0.28641376183E+03  0.00000000000E+00 0. -1.
         23    2    1    2    0    0  0.00000000000E+00  0.00000000000E+00 -0.27944372206E+03  0.29338380160E+03  0.89360288942E+02 0.  0.
        -11    1    3    3    0    0  0.25893346281E+02 -0.36094076695E+02 -0.15549043275E+03  0.16171123161E+03  0.00000000000E+00 0. -1.
         11    1    3    3    0    0 -0.25893346281E+02  0.36094076695E+02 -0.12395328931E+03  0.13167256998E+03  0.00000000000E+00 0.  1.
<mgrwt>
<rscale>  0 0.89360289E+02</rscale>
<asrwt>0</asrwt>
<pdfrwt beam="2">  1        1 0.44063652E-01 0.89360289E+02</pdfrwt>
<pdfrwt beam="1">  1       -1 0.10723139E-02 0.89360289E+02</pdfrwt>
<totfact> 0.13397643E+05</totfact>
</mgrwt>
</event>
<event>
 5    1  0.1265228E+001  0.9258186E+02  0.7546771E-02  0.1296717E+00
          1   -1    0    0  501    0  0.00000000000E+00  0.00000000000E+00  0.80117206435E+02  0.80117206435E+02  0.00000000000E+00 0. -1.
         -1   -1    0    0    0  501 -0.00000000000E+00 -0.00000000000E+00 -0.26746440482E+02  0.26746440482E+02  0.00000000000E+00 0.  1.
         23    2    1    2    0    0  0.00000000000E+00  0.00000000000E+00  0.53370765952E+02  0.10686364692E+03  0.92581857694E+02 0.  0.
        -13    1    3    3    0    0  0.36575623320E+01  0.28321928545E+02 -0.15367454540E+02  0.32429431968E+02  0.00000000000E+00 0.  1.
         13    1    3    3    0    0 -0.36575623320E+01 -0.28321928545E+02  0.68738220492E+02  0.74434214949E+02  0.00000000000E+00 0. -1.
<mgrwt>
<rscale>  0 0.92581858E+02</rscale>
<asrwt>0</asrwt>
<pdfrwt beam="1">  1        1 0.12325724E-01 0.92581858E+02</pdfrwt>
<pdfrwt beam="2">  1       -1 0.41148370E-02 0.92581858E+02</pdfrwt>
<totfact> 0.96617468E+04</totfact>
</mgrwt>
</event>
<event>
 5    1  0.1265228E+001  0.9088098E+02  0.7546771E-02  0.1300732E+00
         -3   -1    0    0    0  501 -0.00000000000E+00  0.00000000000E+00  0.11394901140E+03  0.11394901140E+03  0.00000000000E+00 0.  1.
          3   -1    0    0  501    0  0.00000000000E+00 -0.00000000000E+00 -0.18120720067E+02  0.18120720067E+02  0.00000000000E+00 0. -1.
         23    2    1    2    0    0  0.00000000000E+00  0.00000000000E+00  0.95828291329E+02  0.13206973146E+03  0.90880980131E+02 0.  0.
        -11    1    3    3    0    0  0.37437413491E+02 -0.25734119088E+02  0.49391376575E+02  0.67106727637E+02  0.00000000000E+00 0. -1.
         11    1    3    3    0    0 -0.37437413491E+02  0.25734119088E+02  0.46436914754E+02  0.64963003826E+02  0.00000000000E+00 0.  1.
<mgrwt>
<rscale>  0 0.90880980E+02</rscale>
<asrwt>0</asrwt>
<pdfrwt beam="2">  1        3 0.27878032E-02 0.90880980E+02</pdfrwt>
<pdfrwt beam="1">  1       -3 0.17530617E-01 0.90880980E+02</pdfrwt>
<totfact> 0.32728965E+04</totfact>
</mgrwt>
</event>
<event>
 5    1  0.1265228E+001  0.9191968E+02  0.7546771E-02  0.1298268E+00
         -2   -1    0    0    0  501 -0.00000000000E+00  0.00000000000E+00  0.16496432474E+03  0.16496432474E+03  0.00000000000E+00 0. -1.
          2   -1    0    0  501    0  0.00000000000E+00 -0.00000000000E+00 -0.12804628777E+02  0.12804628777E+02  0.00000000000E+00 0.  1.
         23    2    1    2    0    0  0.00000000000E+00  0.00000000000E+00  0.15215969596E+03  0.17776895352E+03  0.91919681021E+02 0.  0.
        -13    1    3    3    0    0  0.29838355801E+02 -0.29416032139E+02  0.39555315536E+02  0.57621640126E+02  0.00000000000E+00 0.  1.
         13    1    3    3    0    0 -0.29838355801E+02  0.29416032139E+02  0.11260438043E+03  0.12014731339E+03  0.00000000000E+00 0. -1.
<mgrwt>
<rscale>  0 0.91919681E+02</rscale>
<asrwt>0</asrwt>
<pdfrwt beam="2">  1        2 0.19699430E-02 0.91919681E+02</pdfrwt>
<pdfrwt beam="1">  1       -2 0.25379125E-01 0.91919681E+02</pdfrwt>
<totfact> 0.66039080E+04</totfact>
</mgrwt>
</event>
<event>
 5    1  0.1265228E+001  0.9023953E+02  0.7546771E-02  0.1302273E+00
         -1   -1    0    0    0  501 -0.00000000000E+00  0.00000000000E+00  0.13103198711E+02  0.13103198711E+02  0.00000000000E+00 0.  1.
          1   -1    0    0  501    0  0.00000000000E+00 -0.00000000000E+00 -0.15536613833E+03  0.15536613833E+03  0.00000000000E+00 0. -1.
         23    2    1    2    0    0  0.00000000000E+00  0.00000000000E+00 -0.14226293961E+03  0.16846933704E+03  0.90239534208E+02 0.  0.
        -11    1    3    3    0    0 -0.34747160398E+02  0.26144050380E+02 -0.93605630195E+02  0.10321284092E+03  0.00000000000E+00 0. -1.
         11    1    3    3    0    0  0.34747160398E+02 -0.26144050380E+02 -0.48657309419E+02  0.65256496120E+02  0.00000000000E+00 0.  1.
<mgrwt>
<rscale>  0 0.90239534E+02</rscale>
<asrwt>0</asrwt>
<pdfrwt beam="2">  1        1 0.23902483E-01 0.90239534E+02</pdfrwt>
<pdfrwt beam="1">  1       -1 0.20158767E-02 0.90239534E+02</pdfrwt>
<totfact> 0.11604652E+05</totfact>
</mgrwt>
</event>
<event>
 5    1  0.1265228E+001  0.9080825E+02  0.7546771E-02  0.1300906E+00
         -1   -1    0    0    0  501 -0.00000000000E+00  0.00000000000E+00  0.31464250436E+02  0.31464250436E+02  0.00000000000E+00 0.  1.
          1   -1    0    0  501    0  0.00000000000E+00 -0.00000000000E+00 -0.65519897167E+02  0.65519897167E+02  0.00000000000E+00 0. -1.
         23    2    1    2    0    0  0.00000000000E+00  0.00000000000E+00 -0.34055646731E+02  0.96984147603E+02  0.90808247489E+02 0.  0.
        -11    1    3    3    0    0 -0.25339016853E+02 -0.10476715257E+02  0.21623338395E+02  0.34919852534E+02  0.00000000000E+00 0.  1.
         11    1    3    3    0    0  0.25339016853E+02  0.10476715257E+02 -0.55678985127E+02  0.62064295069E+02  0.00000000000E+00 0. -1.
<mgrwt>
<rscale>  0 0.90808247E+02</rscale>
<asrwt>0</asrwt>
<pdfrwt beam="2">  1        1 0.10079984E-01 0.90808247E+02</pdfrwt>
<pdfrwt beam="1">  1       -1 0.48406539E-02 0.90808247E+02</pdfrwt>
<totfact> 0.98769054E+04</totfact>
</mgrwt>
</event>
<event>
 5    1  0.1265228E+001  0.9210582E+02  0.7546771E-02  0.1297831E+00
          2   -1    0    0  501    0  0.00000000000E+00  0.00000000000E+00  0.45837082703E+02  0.45837082703E+02  0.00000000000E+00 0. -1.
         -2   -1    0    0    0  501 -0.00000000000E+00 -0.00000000000E+00 -0.46269752212E+02  0.46269752212E+02  0.00000000000E+00 0.  1.
         23    2    1    2    0    0  0.00000000000E+00  0.00000000000E+00 -0.43266950911E+00  0.92106834914E+02  0.92105818682E+02 0.  0.
        -11    1    3    3    0    0  0.17874252552E+02 -0.36680391085E+02 -0.21569098633E+02  0.46153721521E+02  0.00000000000E+00 0.  1.
         11    1    3    3    0    0 -0.17874252552E+02  0.36680391085E+02  0.21136429124E+02  0.45953113393E+02  0.00000000000E+00 0. -1.
<mgrwt>
<rscale>  0 0.92105819E+02</rscale>
<asrwt>0</asrwt>
<pdfrwt beam="1">  1        2 0.70518589E-02 0.92105819E+02</pdfrwt>
<pdfrwt beam="2">  1       -2 0.71184234E-02 0.92105819E+02</pdfrwt>
<totfact> 0.95976305E+04</totfact>
</mgrwt>
</event>
<event>
 5    1  0.1265228E+001  0.8841316E+02  0.7546771E-02  0.1306741E+00
         -2   -1    0    0    0  501 -0.00000000000E+00  0.00000000000E+00  0.15641597390E+03  0.15641597390E+03  0.00000000000E+00 0.  1.
          2   -1    0    0  501    0  0.00000000000E+00 -0.00000000000E+00 -0.12493748943E+02  0.12493748943E+02  0.00000000000E+00 0. -1.
         23    2    1    2    0    0  0.00000000000E+00  0.00000000000E+00  0.14392222496E+03  0.16890972284E+03  0.88413164373E+02 0.  0.
        -13    1    3    3    0    0 -0.20241450231E+02  0.18475886817E+02  0.13822808021E+03  0.14091868882E+03  0.00000000000E+00 0.  1.
         13    1    3    3    0    0  0.20241450231E+02 -0.18475886817E+02  0.56941447480E+01  0.27991034021E+02  0.00000000000E+00 0. -1.
<mgrwt>
<rscale>  0 0.88413164E+02</rscale>
<asrwt>0</asrwt>
<pdfrwt beam="2">  1        2 0.19221153E-02 0.88413164E+02</pdfrwt>
<pdfrwt beam="1">  1       -2 0.24063995E-01 0.88413164E+02</pdfrwt>
<totfact> 0.74363375E+04</totfact>
</mgrwt>
</event>
<event>
 5    1  0.1265228E+001  0.9456435E+02  0.7546771E-02  0.1292160E+00
         -2   -1    0    0    0  501 -0.00000000000E+00  0.00000000000E+00  0.11141819673E+02  0.11141819673E+02  0.00000000000E+00 0. -1.
          2   -1    0    0  501    0  0.00000000000E+00 -0.00000000000E+00 -0.20064980835E+03  0.20064980835E+03  0.00000000000E+00 0.  1.
         23    2    1    2    0    0  0.00000000000E+00  0.00000000000E+00 -0.18950798868E+03  0.21179162803E+03  0.94564348085E+02 0.  0.
        -13    1    3    3    0    0  0.16994927335E+02  0.39259723696E+02 -0.49656720637E+02  0.65543446386E+02  0.00000000000E+00 0. -1.
         13    1    3    3    0    0 -0.16994927335E+02 -0.39259723696E+02 -0.13985126805E+03  0.14624818164E+03  0.00000000000E+00 0.  1.
<mgrwt>
<rscale>  0 0.94564348E+02</rscale>
<asrwt>0</asrwt>
<pdfrwt beam="2">  1        2 0.30869202E-01 0.94564348E+02</pdfrwt>
<pdfrwt beam="1">  1       -2 0.17141261E-02 0.94564348E+02</pdfrwt>
<totfact> 0.14033556E+05</totfact>
</mgrwt>
</event>
<event>
 5    1  0.1265228E+001  0.9060583E+02  0.7546771E-02  0.1301391E+00
          2   -1    0    0  501    0  0.00000000000E+00  0.00000000000E+00  0.87312985300E+02  0.87312985300E+02  0.00000000000E+00 0. -1.
         -2   -1    0    0    0  501 -0.00000000000E+00 -0.00000000000E+00 -0.23505715030E+02  0.23505715030E+02  0.00000000000E+00 0.  1.
         23    2    1    2    0    0  0.00000000000E+00  0.00000000000E+00  0.63807270271E+02  0.11081870033E+03  0.90605830957E+02 0.  0.
        -11    1    3    3    0    0  0.33303666333E+02  0.79747635831E+01 -0.43711809407E+01  0.34523010707E+02  0.00000000000E+00 0.  1.
         11    1    3    3    0    0 -0.33303666333E+02 -0.79747635831E+01  0.68178451211E+02  0.76295689623E+02  0.00000000000E+00 0. -1.
<mgrwt>
<rscale>  0 0.90605831E+02</rscale>
<asrwt>0</asrwt>
<pdfrwt beam="1">  1        2 0.13432767E-01 0.90605831E+02</pdfrwt>
<pdfrwt beam="2">  1       -2 0.36162639E-02 0.90605831E+02</pdfrwt>
<totfact> 0.11986696E+05</totfact>
</mgrwt>
</event>
<event>
 5    1  0.1265228E+001  0.9209006E+02  0.7546771E-02  0.1297868E+00
          1   -1    0    0  501    0  0.00000000000E+00  0.00000000000E+00  0.18178191346E+02  0.18178191346E+02  0.00000000000E+00 0. -1.
         -1   -1    0    0    0  501 -0.00000000000E+00 -0.00000000000E+00 -0.11663122231E+03  0.11663122231E+03  0.00000000000E+00 0.  1.
         23    2    1    2    0    0  0.00000000000E+00  0.00000000000E+00 -0.98453030963E+02  0.13480941365E+03  0.92090057574E+02 0.  0.
        -13    1    3    3    0    0  0.14466151519E+02 -0.16315227474E+02 -0.10859408940E+03  0.11076160183E+03  0.00000000000E+00 0.  1.
         13    1    3    3    0    0 -0.14466151519E+02  0.16315227474E+02  0.10141058437E+02  0.24047811824E+02  0.00000000000E+00 0. -1.
<mgrwt>
<rscale>  0 0.92090058E+02</rscale>
<asrwt>0</asrwt>
<pdfrwt beam="1">  1        1 0.27966448E-02 0.92090058E+02</pdfrwt>
<pdfrwt beam="2">  1       -1 0.17943265E-01 0.92090058E+02</pdfrwt>
<totfact> 0.76975526E+04</totfact>
</mgrwt>
</event>
<event>
 5    1  0.1265228E+001  0.9453346E+02  0.7546771E-02  0.1292230E+00
          2   -1    0    0  501    0  0.00000000000E+00  0.00000000000E+00  0.27522777989E+03  0.27522777989E+03  0.00000000000E+00 0. -1.
         -2   -1    0    0    0  501 -0.00000000000E+00 -0.00000000000E+00 -0.81174348375E+01  0.81174348375E+01  0.00000000000E+00 0.  1.
         23    2    1    2    0    0  0.00000000000E+00  0.00000000000E+00  0.26711034505E+03  0.28334521473E+03  0.94533455849E+02 0.  0.
        -13    1    3    3    0    0  0.44302493809E+02 -0.13797333712E+02  0.16054190093E+03  0.16711307348E+03  0.00000000000E+00 0.  1.
         13    1    3    3    0    0 -0.44302493809E+02  0.13797333712E+02  0.10656844412E+03  0.11623214124E+03  0.00000000000E+00 0. -1.
<mgrwt>
<rscale>  0 0.94533456E+02</rscale>
<asrwt>0</asrwt>
<pdfrwt beam="1">  1        2 0.42342728E-01 0.94533456E+02</pdfrwt>
<pdfrwt beam="2">  1       -2 0.12488363E-02 0.94533456E+02</pdfrwt>
<totfact> 0.15791288E+05</totfact>
</mgrwt>
</event>
<event>
 5    1  0.1265228E+001  0.9198599E+02  0.7546771E-02  0.1298112E+00
         -4   -1    0    0    0  501 -0.00000000000E+00  0.00000000000E+00  0.93323721154E+02  0.93323721154E+02  0.00000000000E+00 0.  1.
          4   -1    0    0  501    0  0.00000000000E+00 -0.00000000000E+00 -0.22666857875E+02  0.22666857875E+02  0.00000000000E+00 0. -1.
         23    2    1    2    0    0  0.00000000000E+00  0.00000000000E+00  0.70656863280E+02  0.11599057903E+03  0.91985988580E+02 0.  0.
        -13    1    3    3    0    0 -0.25384982333E+02  0.98840019466E+01  0.82056536180E+02  0.86460198660E+02  0.00000000000E+00 0.  1.
         13    1    3    3    0    0  0.25384982333E+02 -0.98840019466E+01 -0.11399672900E+02  0.29530380369E+02  0.00000000000E+00 0. -1.
<mgrwt>
<rscale>  0 0.91985989E+02</rscale>
<asrwt>0</asrwt>
<pdfrwt beam="2">  1        4 0.34872090E-02 0.91985989E+02</pdfrwt>
<pdfrwt beam="1">  1       -4 0.14357495E-01 0.91985989E+02</pdfrwt>
<totfact> 0.24898714E+04</totfact>
</mgrwt>
</event>
<event>
 5    1  0.1265228E+001  0.9161687E+02  0.7546771E-02  0.1298983E+00
         -3   -1    0    0    0  501 -0.00000000000E+00  0.00000000000E+00  0.75455241917E+02  0.75455241917E+02  0.00000000000E+00 0.  1.
          3   -1    0    0  501    0  0.00000000000E+00 -0.00000000000E+00 -0.27810035302E+02  0.27810035302E+02  0.00000000000E+00 0. -1.
         23    2    1    2    0    0  0.00000000000E+00  0.00000000000E+00  0.47645206615E+02  0.10326527722E+03  0.91616874897E+02 0.  0.
        -11    1    3    3    0    0  0.27140642231E+02 -0.52139040948E+01  0.64999785924E+02  0.70631235490E+02  0.00000000000E+00 0.  1.
         11    1    3    3    0    0 -0.27140642231E+02  0.52139040948E+01 -0.17354579309E+02  0.32634041730E+02  0.00000000000E+00 0. -1.
<mgrwt>
<rscale>  0 0.91616875E+02</rscale>
<asrwt>0</asrwt>
<pdfrwt beam="2">  1        3 0.42784670E-02 0.91616875E+02</pdfrwt>
<pdfrwt beam="1">  1       -3 0.11608499E-01 0.91616875E+02</pdfrwt>
<totfact> 0.33983299E+04</totfact>
</mgrwt>
</event>
<event>
 5    1  0.1265228E+001  0.9157815E+02  0.7546771E-02  0.1299074E+00
         -1   -1    0    0    0  501 -0.00000000000E+00  0.00000000000E+00  0.84230994446E+02  0.84230994446E+02  0.00000000000E+00 0.  1.
          1   -1    0    0  501    0  0.00000000000E+00 -0.00000000000E+00 -0.24891541873E+02  0.24891541873E+02  0.00000000000E+00 0. -1.
         23    2    1    2    0    0  0.00000000000E+00  0.00000000000E+00  0.59339452572E+02  0.10912253632E+03  0.91578148601E+02 0.  0.
        -11    1    3    3    0    0  0.11912476558E+02 -0.25402631617E+02  0.72788375881E+02  0.78008643458E+02  0.00000000000E+00 0.  1.
         11    1    3    3    0    0 -0.11912476558E+02  0.25402631617E+02 -0.13448923309E+02  0.31113892861E+02  0.00000000000E+00 0. -1.
<mgrwt>
<rscale>  0 0.91578149E+02</rscale>
<asrwt>0</asrwt>
<pdfrwt beam="2">  1        1 0.38294680E-02 0.91578149E+02</pdfrwt>
<pdfrwt beam="1">  1       -1 0.12958614E-01 0.91578149E+02</pdfrwt>
<totfact> 0.82968574E+04</totfact>
</mgrwt>
</event>
<event>
 5    1  0.1265228E+001  0.9053199E+02  0.7546771E-02  0.1301568E+00
          2   -1    0    0  501    0  0.00000000000E+00  0.00000000000E+00  0.36626189546E+02  0.36626189546E+02  0.00000000000E+00 0. -1.
         -2   -1    0    0    0  501 -0.00000000000E+00 -0.00000000000E+00 -0.55943858535E+02  0.55943858535E+02  0.00000000000E+00 0.  1.
         23    2    1    2    0    0  0.00000000000E+00  0.00000000000E+00 -0.19317668989E+02  0.92570048080E+02  0.90531991398E+02 0.  0.
        -13    1    3    3    0    0 -0.34819750194E+02  0.22731886103E+01 -0.39142449580E+02  0.52437713043E+02  0.00000000000E+00 0.  1.
         13    1    3    3    0    0  0.34819750194E+02 -0.22731886103E+01  0.19824780591E+02  0.40132335037E+02  0.00000000000E+00 0. -1.
<mgrwt>
<rscale>  0 0.90531991E+02</rscale>
<asrwt>0</asrwt>
<pdfrwt beam="1">  1        2 0.56347984E-02 0.90531991E+02</pdfrwt>
<pdfrwt beam="2">  1       -2 0.86067475E-02 0.90531991E+02</pdfrwt>
<totfact> 0.95181701E+04</totfact>
</mgrwt>
</event>
<event>
 4    1  0.1265228E+001  0.5002122E+02  0.7546771E-02  0.1445227E+00
          4   -1    0    0  501    0  0.00000000000E+00  0.00000000000E+00  0.78141533050E+02  0.78141533050E+02  0.00000000000E+00 0.  1.
         -4   -1    0    0    0  501 -0.00000000000E+00 -0.00000000000E+00 -0.80050975638E+01  0.80050975638E+01  0.00000000000E+00 0. -1.
        -11    1    1    2    0    0  0.20898321189E+02 -0.10814456279E+02  0.49665165491E+02  0.54957446778E+02  0.00000000000E+00 0.  1.
         11    1    1    2    0    0 -0.20898321189E+02  0.10814456279E+02  0.20471269995E+02  0.31189183836E+02  0.00000000000E+00 0. -1.
<mgrwt>
<rscale>  0 0.50021219E+02</rscale>
<asrwt>0</asrwt>
<pdfrwt beam="1">  1        4 0.12021774E-01 0.50021219E+02</pdfrwt>
<pdfrwt beam="2">  1       -4 0.12315535E-02 0.50021219E+02</pdfrwt>
<totfact> 0.12976781E+05</totfact>
</mgrwt>
</event>
<event>
 5    1  0.1265228E+001  0.7738837E+02  0.7546771E-02  0.1336631E+00
         -4   -1    0    0    0  501 -0.00000000000E+00  0.00000000000E+00  0.29332164065E+02  0.29332164065E+02  0.00000000000E+00 0.  1.
          4   -1    0    0  501    0  0.00000000000E+00 -0.00000000000E+00 -0.51044300123E+02  0.51044300123E+02  0.00000000000E+00 0. -1.
         23    2    1    2    0    0  0.00000000000E+00  0.00000000000E+00 -0.21712136058E+02  0.80376464188E+02  0.77388365683E+02 0.  0.
        -13    1    3    3    0    0 -0.27452056695E+01 -0.15897023776E+02 -0.47384919067E+02  0.50055789616E+02  0.00000000000E+00 0. -1.
         13    1    3    3    0    0  0.27452056695E+01  0.15897023776E+02  0.25672783008E+02  0.30320674572E+02  0.00000000000E+00 0.  1.
<mgrwt>
<rscale>  0 0.77388366E+02</rscale>
<asrwt>0</asrwt>
<pdfrwt beam="2">  1        4 0.78529692E-02 0.77388366E+02</pdfrwt>
<pdfrwt beam="1">  1       -4 0.45126407E-02 0.77388366E+02</pdfrwt>
<totfact> 0.43077825E+04</totfact>
</mgrwt>
</event>
<event>
 5    1  0.1265228E+001  0.9058717E+02  0.7546771E-02  0.1301436E+00
          1   -1    0    0  501    0  0.00000000000E+00  0.00000000000E+00  0.19154782154E+02  0.19154782154E+02  0.00000000000E+00 0. -1.
         -1   -1    0    0    0  501 -0.00000000000E+00 -0.00000000000E+00 -0.10710164601E+03  0.10710164601E+03  0.00000000000E+00 0.  1.
         23    2    1    2    0    0  0.00000000000E+00  0.00000000000E+00 -0.87946863855E+02  0.12625642816E+03  0.90587166809E+02 0.  0.
        -11    1    3    3    0    0 -0.39441601689E+02 -0.12769846737E+02 -0.69399448714E+02  0.80839299919E+02  0.00000000000E+00 0.  1.
         11    1    3    3    0    0  0.39441601689E+02  0.12769846737E+02 -0.18547415141E+02  0.45417128244E+02  0.00000000000E+00 0. -1.
<mgrwt>
<rscale>  0 0.90587167E+02</rscale>
<asrwt>0</asrwt>
<pdfrwt beam="1">  1        1 0.29468896E-02 0.90587167E+02</pdfrwt>
<pdfrwt beam="2">  1       -1 0.16477176E-01 0.90587167E+02</pdfrwt>
<totfact> 0.81676306E+04</totfact>
</mgrwt>
</event>
<event>
 5    1  0.1265228E+001  0.9071776E+02  0.7546771E-02  0.1301123E+00
         -1   -1    0    0    0  501 -0.00000000000E+00  0.00000000000E+00  0.13534013667E+02  0.13534013667E+02  0.00000000000E+00 0.  1.
          1   -1    0    0  501    0  0.00000000000E+00 -0.00000000000E+00 -0.15201906524E+03  0.15201906524E+03  0.00000000000E+00 0. -1.
         23    2    1    2    0    0  0.00000000000E+00  0.00000000000E+00 -0.13848505157E+03  0.16555307890E+03  0.90717762463E+02 0.  0.
        -11    1    3    3    0    0 -0.33310744491E+02  0.20357207398E+02 -0.11139024616E+03  0.11803308236E+03  0.00000000000E+00 0. -1.
         11    1    3    3    0    0  0.33310744491E+02 -0.20357207398E+02 -0.27094805412E+02  0.47519996547E+02  0.00000000000E+00 0.  1.
<mgrwt>
<rscale>  0 0.90717762E+02</rscale>
<asrwt>0</asrwt>
<pdfrwt beam="2">  1        1 0.23387549E-01 0.90717762E+02</pdfrwt>
<pdfrwt beam="1">  1       -1 0.20821559E-02 0.90717762E+02</pdfrwt>
<totfact> 0.11394888E+05</totfact>
</mgrwt>
</event>
<event>
 5    1  0.1265228E+001  0.9155029E+02  0.7546771E-02  0.1299140E+00
          3   -1    0    0  501    0  0.00000000000E+00  0.00000000000E+00  0.13107786469E+03  0.13107786469E+03  0.00000000000E+00 0. -1.
         -3   -1    0    0    0  501 -0.00000000000E+00 -0.00000000000E+00 -0.15985643614E+02  0.15985643614E+02  0.00000000000E+00 0.  1.
         23    2    1    2    0    0  0.00000000000E+00  0.00000000000E+00  0.11509222108E+03  0.14706350830E+03  0.91550292858E+02 0.  0.
        -13    1    3    3    0    0  0.19242113419E+02 -0.80627341426E+01  0.12299646028E+03  0.12475334004E+03  0.00000000000E+00 0. -1.
         13    1    3    3    0    0 -0.19242113419E+02  0.80627341426E+01 -0.79042391989E+01  0.22310168265E+02  0.00000000000E+00 0.  1.
<mgrwt>
<rscale>  0 0.91550293E+02</rscale>
<asrwt>0</asrwt>
<pdfrwt beam="1">  1        3 0.20165825E-01 0.91550293E+02</pdfrwt>
<pdfrwt beam="2">  1       -3 0.24593299E-02 0.91550293E+02</pdfrwt>
<totfact> 0.31140268E+04</totfact>
</mgrwt>
</event>
<event>
 5    1  0.1265228E+001  0.9243739E+02  0.7546771E-02  0.1297054E+00
         -2   -1    0    0    0  501 -0.00000000000E+00  0.00000000000E+00  0.21614514783E+02  0.21614514783E+02  0.00000000000E+00 0.  1.
          2   -1    0    0  501    0  0.00000000000E+00 -0.00000000000E+00 -0.98830235315E+02  0.98830235315E+02  0.00000000000E+00 0. -1.
         23    2    1    2    0    0  0.00000000000E+00  0.00000000000E+00 -0.77215720532E+02  0.12044475010E+03  0.92437385992E+02 0.  0.
        -13    1    3    3    0    0 -0.30866761825E+02 -0.33436734881E+02 -0.28070940395E+02  0.53467278963E+02  0.00000000000E+00 0.  1.
         13    1    3    3    0    0  0.30866761825E+02  0.33436734881E+02 -0.49144780137E+02  0.66977471135E+02  0.00000000000E+00 0. -1.
<mgrwt>
<rscale>  0 0.92437386E+02</rscale>
<asrwt>0</asrwt>
<pdfrwt beam="2">  1        2 0.15204652E-01 0.92437386E+02</pdfrwt>
<pdfrwt beam="1">  1       -2 0.33253099E-02 0.92437386E+02</pdfrwt>
<totfact> 0.11769311E+05</totfact>
</mgrwt>
</event>
<event>
 5    1  0.1265228E+001  0.8965190E+02  0.7546771E-02  0.1303697E+00
          1   -1    0    0  501    0  0.00000000000E+00  0.00000000000E+00  0.88704804273E+02  0.88704804273E+02  0.00000000000E+00 0. -1.
         -1   -1    0    0    0  501 -0.00000000000E+00 -0.00000000000E+00 -0.22652277540E+02  0.22652277540E+02  0.00000000000E+00 0.  1.
         23    2    1    2    0    0  0.00000000000E+00  0.00000000000E+00  0.66052526732E+02  0.11135708181E+03  0.89651901164E+02 0.  0.
        -13    1    3    3    0    0  0.33743232195E+02 -0.29508619474E+02  0.32978103454E+02  0.55649974390E+02  0.00000000000E+00 0.  1.
         13    1    3    3    0    0 -0.33743232195E+02  0.29508619474E+02  0.33074423279E+02  0.55707107423E+02  0.00000000000E+00 0. -1.
<mgrwt>
<rscale>  0 0.89651901E+02</rscale>
<asrwt>0</asrwt>
<pdfrwt beam="1">  1        1 0.13646893E-01 0.89651901E+02</pdfrwt>
<pdfrwt beam="2">  1       -1 0.34849658E-02 0.89651901E+02</pdfrwt>
<totfact> 0.10724702E+05</totfact>
</mgrwt>
</event>
<event>
 5    1  0.1265228E+001  0.8915396E+02  0.7546771E-02  0.1304914E+00
          1   -1    0    0  501    0  0.00000000000E+00  0.00000000000E+00  0.29916077773E+02  0.29916077773E+02  0.00000000000E+00 0. -1.
         -1   -1    0    0    0  501 -0.00000000000E+00 -0.00000000000E+00 -0.66422719300E+02  0.66422719300E+02  0.00000000000E+00 0.  1.
         23    2    1    2    0    0  0.00000000000E+00  0.00000000000E+00 -0.36506641526E+02  0.96338797073E+02  0.89153962032E+02 0.  0.
        -11    1    3    3    0    0 -0.16964952043E+02  0.40571557677E+02 -0.26138389389E+02  0.51157367895E+02  0.00000000000E+00 0. -1.
         11    1    3    3    0    0  0.16964952043E+02 -0.40571557677E+02 -0.10368252138E+02  0.45181429178E+02  0.00000000000E+00 0.  1.
<mgrwt>
<rscale>  0 0.89153962E+02</rscale>
<asrwt>0</asrwt>
<pdfrwt beam="1">  1        1 0.46024735E-02 0.89153962E+02</pdfrwt>
<pdfrwt beam="2">  1       -1 0.10218880E-01 0.89153962E+02</pdfrwt>
<totfact> 0.92393570E+04</totfact>
</mgrwt>
</event>
<event>
 5    1  0.1265228E+001  0.9097664E+02  0.7546771E-02  0.1300504E+00
          2   -1    0    0  501    0  0.00000000000E+00  0.00000000000E+00  0.15063629222E+03  0.15063629222E+03  0.00000000000E+00 0. -1.
         -2   -1    0    0    0  501 -0.00000000000E+00 -0.00000000000E+00 -0.13736311902E+02  0.13736311902E+02  0.00000000000E+00 0.  1.
         23    2    1    2    0    0  0.00000000000E+00  0.00000000000E+00  0.13689998032E+03  0.16437260413E+03  0.90976636425E+02 0.  0.
        -11    1    3    3    0    0  0.35727431011E+02 -0.10395317705E+02  0.21173868868E+02  0.42811735304E+02  0.00000000000E+00 0.  1.
         11    1    3    3    0    0 -0.35727431011E+02  0.10395317705E+02  0.11572611145E+03  0.12156086882E+03  0.00000000000E+00 0. -1.
<mgrwt>
<rscale>  0 0.90976636E+02</rscale>
<asrwt>0</asrwt>
<pdfrwt beam="1">  1        2 0.23174813E-01 0.90976636E+02</pdfrwt>
<pdfrwt beam="2">  1       -2 0.21132789E-02 0.90976636E+02</pdfrwt>
<totfact> 0.14084917E+05</totfact>
</mgrwt>
</event>
<event>
 4    1  0.1265228E+001  0.4247981E+02  0.7546771E-02  0.1490717E+00
          1   -1    0    0  501    0  0.00000000000E+00  0.00000000000E+00  0.29658023489E+01  0.29658023489E+01  0.00000000000E+00 0.  1.
         -1   -1    0    0    0  501 -0.00000000000E+00 -0.00000000000E+00 -0.15211178174E+03  0.15211178174E+03  0.00000000000E+00 0. -1.
        -11    1    1    2    0    0  0.41273367509E+01 -0.20827453889E+02 -0.76624284906E+02  0.79511626706E+02  0.00000000000E+00 0. -1.
         11    1    1    2    0    0 -0.41273367509E+01  0.20827453889E+02 -0.72521694486E+02  0.75565957384E+02  0.00000000000E+00 0.  1.
<mgrwt>
<rscale>  0 0.42479806E+02</rscale>
<asrwt>0</asrwt>
<pdfrwt beam="1">  1        1 0.45627725E-03 0.42479806E+02</pdfrwt>
<pdfrwt beam="2">  1       -1 0.23401814E-01 0.42479806E+02</pdfrwt>
<totfact> 0.51224020E+05</totfact>
</mgrwt>
</event>
<event>
 5    1  0.1265228E+001  0.9365278E+02  0.7546771E-02  0.1294240E+00
          2   -1    0    0  501    0  0.00000000000E+00  0.00000000000E+00  0.14504019998E+02  0.14504019998E+02  0.00000000000E+00 0. -1.
         -2   -1    0    0    0  501 -0.00000000000E+00 -0.00000000000E+00 -0.15117951438E+03  0.15117951438E+03  0.00000000000E+00 0.  1.
         23    2    1    2    0    0  0.00000000000E+00  0.00000000000E+00 -0.13667549438E+03  0.16568353438E+03  0.93652777853E+02 0.  0.
        -11    1    3    3    0    0 -0.40432773097E+02 -0.17669376872E+01 -0.11000730441E+03  0.11721577638E+03  0.00000000000E+00 0.  1.
         11    1    3    3    0    0  0.40432773097E+02  0.17669376872E+01 -0.26668189977E+02  0.48467758002E+02  0.00000000000E+00 0. -1.
<mgrwt>
<rscale>  0 0.93652778E+02</rscale>
<asrwt>0</asrwt>
<pdfrwt beam="1">  1        2 0.22313876E-02 0.93652778E+02</pdfrwt>
<pdfrwt beam="2">  1       -2 0.23258388E-01 0.93652778E+02</pdfrwt>
<totfact> 0.65083258E+04</totfact>
</mgrwt>
</event>
<event>
 5    1  0.1265228E+001  0.9529579E+02  0.7546771E-02  0.1290511E+00
         -3   -1    0    0    0  501 -0.00000000000E+00  0.00000000000E+00  0.50974772298E+01  0.50974772298E+01  0.00000000000E+00 0.  1.
          3   -1    0    0  501    0  0.00000000000E+00 -0.00000000000E+00 -0.44538142739E+03  0.44538142739E+03  0.00000000000E+00 0. -1.
         23    2    1    2    0    0  0.00000000000E+00  0.00000000000E+00 -0.44028395016E+03  0.45047890462E+03  0.95295785524E+02 0.  0.
        -11    1    3    3    0    0  0.45136013162E+02  0.11344831407E+02 -0.26843241285E+03  0.27243701135E+03  0.00000000000E+00 0.  1.
         11    1    3    3    0    0 -0.45136013162E+02 -0.11344831407E+02 -0.17185153731E+03  0.17804189327E+03  0.00000000000E+00 0. -1.
<mgrwt>
<rscale>  0 0.95295786E+02</rscale>
<asrwt>0</asrwt>
<pdfrwt beam="2">  1        3 0.68520214E-01 0.95295786E+02</pdfrwt>
<pdfrwt beam="1">  1       -3 0.78422733E-03 0.95295786E+02</pdfrwt>
<totfact> 0.17033975E+04</totfact>
</mgrwt>
</event>
<event>
 5    1  0.1265228E+001  0.9380644E+02  0.7546771E-02  0.1293887E+00
         -3   -1    0    0    0  501 -0.00000000000E+00  0.00000000000E+00  0.36088712636E+03  0.36088712636E+03  0.00000000000E+00 0.  1.
          3   -1    0    0  501    0  0.00000000000E+00 -0.00000000000E+00 -0.60958457957E+01  0.60958457957E+01  0.00000000000E+00 0. -1.
         23    2    1    2    0    0  0.00000000000E+00  0.00000000000E+00  0.35479128057E+03  0.36698297216E+03  0.93806444809E+02 0.  0.
        -13    1    3    3    0    0 -0.24158014371E+02  0.35788640976E+02  0.10574108096E+03  0.11421739222E+03  0.00000000000E+00 0. -1.
         13    1    3    3    0    0  0.24158014371E+02 -0.35788640976E+02  0.24905019960E+03  0.25276557994E+03  0.00000000000E+00 0.  1.
<mgrwt>
<rscale>  0 0.93806445E+02</rscale>
<asrwt>0</asrwt>
<pdfrwt beam="2">  1        3 0.93782271E-03 0.93806445E+02</pdfrwt>
<pdfrwt beam="1">  1       -3 0.55521080E-01 0.93806445E+02</pdfrwt>
<totfact> 0.20048522E+04</totfact>
</mgrwt>
</event>
<event>
 5    1  0.1265228E+001  0.8723867E+02  0.7546771E-02  0.1309680E+00
          2   -1    0    0  501    0  0.00000000000E+00  0.00000000000E+00  0.35054671146E+02  0.35054671146E+02  0.00000000000E+00 0. -1.
         -2   -1    0    0    0  501 -0.00000000000E+00 -0.00000000000E+00 -0.54276539432E+02  0.54276539432E+02  0.00000000000E+00 0.  1.
         23    2    1    2    0    0  0.00000000000E+00  0.00000000000E+00 -0.19221868286E+02  0.89331210578E+02  0.87238666674E+02 0.  0.
        -11    1    3    3    0    0  0.17061526456E+02 -0.28881027220E+02  0.18940422791E+02  0.38522059055E+02  0.00000000000E+00 0. -1.
         11    1    3    3    0    0 -0.17061526456E+02  0.28881027220E+02 -0.38162291077E+02  0.50809151524E+02  0.00000000000E+00 0.  1.
<mgrwt>
<rscale>  0 0.87238667E+02</rscale>
<asrwt>0</asrwt>
<pdfrwt beam="1">  1        2 0.53930264E-02 0.87238667E+02</pdfrwt>
<pdfrwt beam="2">  1       -2 0.83502368E-02 0.87238667E+02</pdfrwt>
<totfact> 0.10481301E+05</totfact>
</mgrwt>
</event>
<event>
 5    1  0.1265228E+001  0.9233877E+02  0.7546771E-02  0.1297285E+00
          1   -1    0    0  501    0  0.00000000000E+00  0.00000000000E+00  0.37544785120E+02  0.37544785120E+02  0.00000000000E+00 0. -1.
         -1   -1    0    0    0  501 -0.00000000000E+00 -0.00000000000E+00 -0.56775183301E+02  0.56775183301E+02  0.00000000000E+00 0.  1.
         23    2    1    2    0    0  0.00000000000E+00  0.00000000000E+00 -0.19230398181E+02  0.94319968420E+02  0.92338768828E+02 0.  0.
        -13    1    3    3    0    0  0.30348663461E+02  0.32543021501E+02  0.29583545036E+01  0.44596429046E+02  0.00000000000E+00 0. -1.
         13    1    3    3    0    0 -0.30348663461E+02 -0.32543021501E+02 -0.22188752684E+02  0.49723539375E+02  0.00000000000E+00 0.  1.
<mgrwt>
<rscale>  0 0.92338769E+02</rscale>
<asrwt>0</asrwt>
<pdfrwt beam="1">  1        1 0.57761208E-02 0.92338769E+02</pdfrwt>
<pdfrwt beam="2">  1       -1 0.87346436E-02 0.92338769E+02</pdfrwt>
<totfact> 0.86619507E+04</totfact>
</mgrwt>
</event>
<event>
 5    1  0.1265228E+001  0.9184944E+02  0.7546771E-02  0.1298434E+00
         -2   -1    0    0    0  501 -0.00000000000E+00  0.00000000000E+00  0.34138725693E+02  0.34138725693E+02  0.00000000000E+00 0.  1.
          2   -1    0    0  501    0  0.00000000000E+00 -0.00000000000E+00 -0.61779692548E+02  0.61779692548E+02  0.00000000000E+00 0. -1.
         23    2    1    2    0    0  0.00000000000E+00  0.00000000000E+00 -0.27640966855E+02  0.95918418242E+02  0.91849441530E+02 0.  0.
        -13    1    3    3    0    0  0.38479567527E+01  0.15436689286E+02 -0.58810105858E+02  0.60923941914E+02  0.00000000000E+00 0. -1.
         13    1    3    3    0    0 -0.38479567527E+01 -0.15436689286E+02  0.31169139003E+02  0.34994476328E+02  0.00000000000E+00 0.  1.
<mgrwt>
<rscale>  0 0.91849442E+02</rscale>
<asrwt>0</asrwt>
<pdfrwt beam="2">  1        2 0.95045681E-02 0.91849442E+02</pdfrwt>
<pdfrwt beam="1">  1       -2 0.52521116E-02 0.91849442E+02</pdfrwt>
<totfact> 0.10471323E+05</totfact>
</mgrwt>
</event>
<event>
 5    1  0.1265228E+001  0.9251592E+02  0.7546771E-02  0.1296871E+00
         -1   -1    0    0    0  501 -0.00000000000E+00  0.00000000000E+00  0.11941936366E+02  0.11941936366E+02  0.00000000000E+00 0.  1.
          1   -1    0    0  501    0  0.00000000000E+00 -0.00000000000E+00 -0.17918355978E+03  0.17918355978E+03  0.00000000000E+00 0. -1.
         23    2    1    2    0    0  0.00000000000E+00  0.00000000000E+00 -0.16724162341E+03  0.19112549615E+03  0.92515915794E+02 0.  0.
        -13    1    3    3    0    0  0.24062087600E+02  0.21093515825E+02 -0.14611043273E+02  0.35176740256E+02  0.00000000000E+00 0.  1.
         13    1    3    3    0    0 -0.24062087600E+02 -0.21093515825E+02 -0.15263058014E+03  0.15594875589E+03  0.00000000000E+00 0. -1.
<mgrwt>
<rscale>  0 0.92515916E+02</rscale>
<asrwt>0</asrwt>
<pdfrwt beam="2">  1        1 0.27566698E-01 0.92515916E+02</pdfrwt>
<pdfrwt beam="1">  1       -1 0.18372212E-02 0.92515916E+02</pdfrwt>
<totfact> 0.11146396E+05</totfact>
</mgrwt>
</event>
<event>
 5    1  0.1265228E+001  0.8642650E+02  0.7546771E-02  0.1311744E+00
          4   -1    0    0  501    0  0.00000000000E+00  0.00000000000E+00  0.23661599064E+03  0.23661599064E+03  0.00000000000E+00 0. -1.
         -4   -1    0    0    0  501 -0.00000000000E+00 -0.00000000000E+00 -0.78920486133E+01  0.78920486133E+01  0.00000000000E+00 0.  1.
         23    2    1    2    0    0  0.00000000000E+00  0.00000000000E+00  0.22872394202E+03  0.24450803925E+03  0.86426498269E+02 0.  0.
        -11    1    3    3    0    0 -0.35593973101E+02  0.23420262211E+02  0.93971871489E+02  0.10318019303E+03  0.00000000000E+00 0.  1.
         11    1    3    3    0    0  0.35593973101E+02 -0.23420262211E+02  0.13475207053E+03  0.14132784622E+03  0.00000000000E+00 0. -1.
<mgrwt>
<rscale>  0 0.86426498E+02</rscale>
<asrwt>0</asrwt>
<pdfrwt beam="1">  1        4 0.36402455E-01 0.86426498E+02</pdfrwt>
<pdfrwt beam="2">  1       -4 0.12141615E-02 0.86426498E+02</pdfrwt>
<totfact> 0.22659109E+04</totfact>
</mgrwt>
</event>
<event>
 5    1  0.1265228E+001  0.9721207E+02  0.7546771E-02  0.1286270E+00
         -1   -1    0    0    0  501 -0.00000000000E+00  0.00000000000E+00  0.21104372298E+02  0.21104372298E+02  0.00000000000E+00 0.  1.
          1   -1    0    0  501    0  0.00000000000E+00 -0.00000000000E+00 -0.11194583315E+03  0.11194583315E+03  0.00000000000E+00 0. -1.
         23    2    1    2    0    0  0.00000000000E+00  0.00000000000E+00 -0.90841460853E+02  0.13305020545E+03  0.97212067975E+02 0.  0.
        -13    1    3    3    0    0  0.29873919515E+02 -0.24043766798E+02 -0.86297449476E+02  0.94434122938E+02  0.00000000000E+00 0. -1.
         13    1    3    3    0    0 -0.29873919515E+02  0.24043766798E+02 -0.45440113771E+01  0.38616082510E+02  0.00000000000E+00 0.  1.
<mgrwt>
<rscale>  0 0.97212068E+02</rscale>
<asrwt>0</asrwt>
<pdfrwt beam="2">  1        1 0.17222436E-01 0.97212068E+02</pdfrwt>
<pdfrwt beam="1">  1       -1 0.32468265E-02 0.97212068E+02</pdfrwt>
<totfact> 0.89365367E+04</totfact>
</mgrwt>
</event>
<event>
 5    1  0.1265228E+001  0.8675260E+02  0.7546771E-02  0.1310912E+00
          1   -1    0    0  501    0  0.00000000000E+00  0.00000000000E+00  0.18256481598E+03  0.18256481598E+03  0.00000000000E+00 0. -1.
         -1   -1    0    0    0  501 -0.00000000000E+00 -0.00000000000E+00 -0.10305948151E+02  0.10305948151E+02  0.00000000000E+00 0.  1.
         23    2    1    2    0    0  0.00000000000E+00  0.00000000000E+00  0.17225886783E+03  0.19287076413E+03  0.86752602904E+02 0.  0.
        -11    1    3    3    0    0 -0.46190087691E+01 -0.31205907460E+02  0.19939969095E+02  0.37319515939E+02  0.00000000000E+00 0.  1.
         11    1    3    3    0    0  0.46190087691E+01  0.31205907460E+02  0.15231889873E+03  0.15555124819E+03  0.00000000000E+00 0. -1.
<mgrwt>
<rscale>  0 0.86752603E+02</rscale>
<asrwt>0</asrwt>
<pdfrwt beam="1">  1        1 0.28086892E-01 0.86752603E+02</pdfrwt>
<pdfrwt beam="2">  1       -1 0.15855306E-02 0.86752603E+02</pdfrwt>
<totfact> 0.13291242E+05</totfact>
</mgrwt>
</event>
<event>
 5    1  0.1265228E+001  0.9133428E+02  0.7546771E-02  0.1299652E+00
         -1   -1    0    0    0  501 -0.00000000000E+00  0.00000000000E+00  0.44649412538E+02  0.44649412538E+02  0.00000000000E+00 0.  1.
          1   -1    0    0  501    0  0.00000000000E+00 -0.00000000000E+00 -0.46708064331E+02  0.46708064331E+02  0.00000000000E+00 0. -1.
         23    2    1    2    0    0  0.00000000000E+00  0.00000000000E+00 -0.20586517931E+01  0.91357476869E+02  0.91334279067E+02 0.  0.
        -13    1    3    3    0    0  0.37875378879E+02 -0.25498615904E+02 -0.15509308543E+00  0.45659038449E+02  0.00000000000E+00 0. -1.
         13    1    3    3    0    0 -0.37875378879E+02  0.25498615904E+02 -0.19035587077E+01  0.45698438420E+02  0.00000000000E+00 0.  1.
<mgrwt>
<rscale>  0 0.91334279E+02</rscale>
<asrwt>0</asrwt>
<pdfrwt beam="2">  1        1 0.71858560E-02 0.91334279E+02</pdfrwt>
<pdfrwt beam="1">  1       -1 0.68691404E-02 0.91334279E+02</pdfrwt>
<totfact> 0.92361721E+04</totfact>
</mgrwt>
</event>
<event>
 5    1  0.1265228E+001  0.8923738E+02  0.7546771E-02  0.1304709E+00
         -1   -1    0    0    0  501 -0.00000000000E+00  0.00000000000E+00  0.42174668474E+02  0.42174668474E+02  0.00000000000E+00 0.  1.
          1   -1    0    0  501    0  0.00000000000E+00 -0.00000000000E+00 -0.47204342811E+02  0.47204342811E+02  0.00000000000E+00 0. -1.
         23    2    1    2    0    0  0.00000000000E+00  0.00000000000E+00 -0.50296743369E+01  0.89379011286E+02  0.89237380253E+02 0.  0.
        -11    1    3    3    0    0 -0.39929926046E+02 -0.17681318249E+02  0.66538983794E+01  0.44173548337E+02  0.00000000000E+00 0.  1.
         11    1    3    3    0    0  0.39929926046E+02  0.17681318249E+02 -0.11683572716E+02  0.45205462949E+02  0.00000000000E+00 0. -1.
<mgrwt>
<rscale>  0 0.89237380E+02</rscale>
<asrwt>0</asrwt>
<pdfrwt beam="2">  1        1 0.72622066E-02 0.89237380E+02</pdfrwt>
<pdfrwt beam="1">  1       -1 0.64884106E-02 0.89237380E+02</pdfrwt>
<totfact> 0.98715540E+04</totfact>
</mgrwt>
</event>
<event>
 5    1  0.1265228E+001  0.9318706E+02  0.7546771E-02  0.1295312E+00
         -1   -1    0    0    0  501 -0.00000000000E+00  0.00000000000E+00  0.84452774831E+01  0.84452774831E+01  0.00000000000E+00 0.  1.
          1   -1    0    0  501    0  0.00000000000E+00 -0.00000000000E+00 -0.25706166431E+03  0.25706166431E+03  0.00000000000E+00 0. -1.
         23    2    1    2    0    0  0.00000000000E+00  0.00000000000E+00 -0.24861638683E+03  0.26550694180E+03  0.93187061020E+02 0.  0.
        -11    1    3    3    0    0 -0.18478218509E+02 -0.41157994661E+02 -0.91138520303E+02  0.10169392788E+03  0.00000000000E+00 0.  1.
         11    1    3    3    0    0  0.18478218509E+02  0.41157994661E+02 -0.15747786653E+03  0.16381301392E+03  0.00000000000E+00 0. -1.
<mgrwt>
<rscale>  0 0.93187061E+02</rscale>
<asrwt>0</asrwt>
<pdfrwt beam="2">  1        1 0.39547949E-01 0.93187061E+02</pdfrwt>
<pdfrwt beam="1">  1       -1 0.12992735E-02 0.93187061E+02</pdfrwt>
<totfact> 0.11729587E+05</totfact>
</mgrwt>
</event>
<event>
 5    1  0.1265228E+001  0.8848506E+02  0.7546771E-02  0.1306562E+00
         -1   -1    0    0    0  501 -0.00000000000E+00  0.00000000000E+00  0.19506425066E+02  0.19506425066E+02  0.00000000000E+00 0.  1.
          1   -1    0    0  501    0  0.00000000000E+00 -0.00000000000E+00 -0.10034649787E+03  0.10034649787E+03  0.00000000000E+00 0. -1.
         23    2    1    2    0    0  0.00000000000E+00  0.00000000000E+00 -0.80840072809E+02  0.11985292294E+03  0.88485059563E+02 0.  0.
        -13    1    3    3    0    0  0.36713587361E+02  0.89754347651E+01 -0.92678697655E+01  0.38914513181E+02  0.00000000000E+00 0. -1.
         13    1    3    3    0    0 -0.36713587361E+02 -0.89754347651E+01 -0.71572203043E+02  0.80938409760E+02  0.00000000000E+00 0.  1.
<mgrwt>
<rscale>  0 0.88485060E+02</rscale>
<asrwt>0</asrwt>
<pdfrwt beam="2">  1        1 0.15437923E-01 0.88485060E+02</pdfrwt>
<pdfrwt beam="1">  1       -1 0.30009885E-02 0.88485060E+02</pdfrwt>
<totfact> 0.11338183E+05</totfact>
</mgrwt>
</event>
<event>
 5    1  0.1265228E+001  0.8435032E+02  0.7546771E-02  0.1317140E+00
         -1   -1    0    0    0  501 -0.00000000000E+00  0.00000000000E+00  0.96892927687E+02  0.96892927687E+02  0.00000000000E+00 0.  1.
          1   -1    0    0  501    0  0.00000000000E+00 -0.00000000000E+00 -0.18357833018E+02  0.18357833018E+02  0.00000000000E+00 0. -1.
         23    2    1    2    0    0  0.00000000000E+00  0.00000000000E+00  0.78535094669E+02  0.11525076071E+03  0.84350321567E+02 0.  0.
        -11    1    3    3    0    0  0.96831150278E+01 -0.41041825238E+02  0.40280895748E+02  0.58315904329E+02  0.00000000000E+00 0.  1.
         11    1    3    3    0    0 -0.96831150278E+01  0.41041825238E+02  0.38254198921E+02  0.56934856376E+02  0.00000000000E+00 0. -1.
<mgrwt>
<rscale>  0 0.84350322E+02</rscale>
<asrwt>0</asrwt>
<pdfrwt beam="2">  1        1 0.28242821E-02 0.84350322E+02</pdfrwt>
<pdfrwt beam="1">  1       -1 0.14906604E-01 0.84350322E+02</pdfrwt>
<totfact> 0.99950145E+04</totfact>
</mgrwt>
</event>
<event>
 5    1  0.1265228E+001  0.1004613E+03  0.7546771E-02  0.1279329E+00
          1   -1    0    0  501    0  0.00000000000E+00  0.00000000000E+00  0.36052876563E+03  0.36052876563E+03  0.00000000000E+00 0. -1.
         -1   -1    0    0    0  501 -0.00000000000E+00 -0.00000000000E+00 -0.69983771300E+01  0.69983771300E+01  0.00000000000E+00 0.  1.
         23    2    1    2    0    0  0.00000000000E+00  0.00000000000E+00  0.35353038850E+03  0.36752714276E+03  0.10046126155E+03 0.  0.
        -11    1    3    3    0    0  0.43250187452E+02  0.21969308710E+02  0.12908138955E+03  0.13789573731E+03  0.00000000000E+00 0.  1.
         11    1    3    3    0    0 -0.43250187452E+02 -0.21969308710E+02  0.22444899895E+03  0.22963140545E+03  0.00000000000E+00 0. -1.
<mgrwt>
<rscale>  0 0.10046126E+03</rscale>
<asrwt>0</asrwt>
<pdfrwt beam="1">  1        1 0.55465949E-01 0.10046126E+03</pdfrwt>
<pdfrwt beam="2">  1       -1 0.10766737E-02 0.10046126E+03</pdfrwt>
<totfact> 0.10227150E+05</totfact>
</mgrwt>
</event>
<event>
 5    1  0.1265228E+001  0.9036291E+02  0.7546771E-02  0.1301975E+00
          4   -1    0    0  501    0  0.00000000000E+00  0.00000000000E+00  0.11235498651E+03  0.11235498651E+03  0.00000000000E+00 0. -1.
         -4   -1    0    0    0  501 -0.00000000000E+00 -0.00000000000E+00 -0.18168876300E+02  0.18168876300E+02  0.00000000000E+00 0.  1.
         23    2    1    2    0    0  0.00000000000E+00  0.00000000000E+00  0.94186110205E+02  0.13052386281E+03  0.90362909460E+02 0.  0.
        -13    1    3    3    0    0  0.43184546914E+02 -0.12501974413E+02  0.40607629804E+02  0.60582043995E+02  0.00000000000E+00 0.  1.
         13    1    3    3    0    0 -0.43184546914E+02  0.12501974413E+02  0.53578480401E+02  0.69941818810E+02  0.00000000000E+00 0. -1.
<mgrwt>
<rscale>  0 0.90362909E+02</rscale>
<asrwt>0</asrwt>
<pdfrwt beam="1">  1        4 0.17285382E-01 0.90362909E+02</pdfrwt>
<pdfrwt beam="2">  1       -4 0.27952118E-02 0.90362909E+02</pdfrwt>
<totfact> 0.25292585E+04</totfact>
</mgrwt>
</event>
<event>
 5    1  0.1265228E+001  0.9224493E+02  0.7546771E-02  0.1297505E+00
         -2   -1    0    0    0  501 -0.00000000000E+00  0.00000000000E+00  0.22860012269E+03  0.22860012269E+03  0.00000000000E+00 0.  1.
          2   -1    0    0  501    0  0.00000000000E+00 -0.00000000000E+00 -0.93056892138E+01  0.93056892138E+01  0.00000000000E+00 0. -1.
         23    2    1    2    0    0  0.00000000000E+00  0.00000000000E+00  0.21929443348E+03  0.23790581190E+03  0.92244928229E+02 0.  0.
        -11    1    3    3    0    0  0.22621037683E+02 -0.31472038208E+02  0.17412806759E+03  0.17838941801E+03  0.00000000000E+00 0.  1.
         11    1    3    3    0    0 -0.22621037683E+02  0.31472038208E+02  0.45166365884E+02  0.59516393893E+02  0.00000000000E+00 0. -1.
<mgrwt>
<rscale>  0 0.92244928E+02</rscale>
<asrwt>0</asrwt>
<pdfrwt beam="2">  1        2 0.14316447E-02 0.92244928E+02</pdfrwt>
<pdfrwt beam="1">  1       -2 0.35169245E-01 0.92244928E+02</pdfrwt>
<totfact> 0.56942092E+04</totfact>
</mgrwt>
</event>
<event>
 5    1  0.1265228E+001  0.7966181E+02  0.7546771E-02  0.1330014E+00
         -3   -1    0    0    0  501 -0.00000000000E+00  0.00000000000E+00  0.97737061753E+01  0.97737061753E+01  0.00000000000E+00 0.  1.
          3   -1    0    0  501    0  0.00000000000E+00 -0.00000000000E+00 -0.16232335845E+03  0.16232335845E+03  0.00000000000E+00 0. -1.
         23    2    1    2    0    0  0.00000000000E+00  0.00000000000E+00 -0.15254965228E+03  0.17209706463E+03  0.79661805425E+02 0.  0.
        -11    1    3    3    0    0  0.32665771577E+02  0.31973365925E+01 -0.27524416549E+02  0.42835372070E+02  0.00000000000E+00 0.  1.
         11    1    3    3    0    0 -0.32665771577E+02 -0.31973365925E+01 -0.12502523573E+03  0.12926169256E+03  0.00000000000E+00 0. -1.
<mgrwt>
<rscale>  0 0.79661805E+02</rscale>
<asrwt>0</asrwt>
<pdfrwt beam="2">  1        3 0.24972824E-01 0.79661805E+02</pdfrwt>
<pdfrwt beam="1">  1       -3 0.15036471E-02 0.79661805E+02</pdfrwt>
<totfact> 0.43083371E+04</totfact>
</mgrwt>
</event>
<event>
 5    1  0.1265228E+001  0.9686987E+02  0.7546771E-02  0.1287019E+00
          2   -1    0    0  501    0  0.00000000000E+00  0.00000000000E+00  0.35412686796E+03  0.35412686796E+03  0.00000000000E+00 0. -1.
         -2   -1    0    0    0  501 -0.00000000000E+00 -0.00000000000E+00 -0.66245834337E+01  0.66245834337E+01  0.00000000000E+00 0.  1.
         23    2    1    2    0    0  0.00000000000E+00  0.00000000000E+00  0.34750228452E+03  0.36075145139E+03  0.96869871124E+02 0.  0.
        -13    1    3    3    0    0 -0.42058754044E+02 -0.21439025188E+02  0.21409731460E+03  0.21924012113E+03  0.00000000000E+00 0.  1.
         13    1    3    3    0    0  0.42058754044E+02  0.21439025188E+02  0.13340496992E+03  0.14151133026E+03  0.00000000000E+00 0. -1.
<mgrwt>
<rscale>  0 0.96869871E+02</rscale>
<asrwt>0</asrwt>
<pdfrwt beam="1">  1        2 0.54481042E-01 0.96869871E+02</pdfrwt>
<pdfrwt beam="2">  1       -2 0.10191670E-02 0.96869871E+02</pdfrwt>
<totfact> 0.16249109E+05</totfact>
</mgrwt>
</event>
<event>
 5    1  0.1265228E+001  0.8873659E+02  0.7546771E-02  0.1305940E+00
         -2   -1    0    0    0  501 -0.00000000000E+00  0.00000000000E+00  0.13810766679E+02  0.13810766679E+02  0.00000000000E+00 0.  1.
          2   -1    0    0  501    0  0.00000000000E+00 -0.00000000000E+00 -0.14253701565E+03  0.14253701565E+03  0.00000000000E+00 0. -1.
         23    2    1    2    0    0  0.00000000000E+00  0.00000000000E+00 -0.12872624897E+03  0.15634778233E+03  0.88736586959E+02 0.  0.
        -13    1    3    3    0    0  0.22611933226E+02  0.10661092374E+01  0.28704189515E+01  0.22818313217E+02  0.00000000000E+00 0.  1.
         13    1    3    3    0    0 -0.22611933226E+02 -0.10661092374E+01 -0.13159666792E+03  0.13352946911E+03  0.00000000000E+00 0. -1.
<mgrwt>
<rscale>  0 0.88736587E+02</rscale>
<asrwt>0</asrwt>
<pdfrwt beam="2">  1        2 0.21928771E-01 0.88736587E+02</pdfrwt>
<pdfrwt beam="1">  1       -2 0.21247334E-02 0.88736587E+02</pdfrwt>
<totfact> 0.14790826E+05</totfact>
</mgrwt>
</event>
<event>
 5    1  0.1265228E+001  0.9391146E+02  0.7546771E-02  0.1293647E+00
         -2   -1    0    0    0  501 -0.00000000000E+00  0.00000000000E+00  0.11660892313E+03  0.11660892313E+03  0.00000000000E+00 0.  1.
          2   -1    0    0  501    0  0.00000000000E+00 -0.00000000000E+00 -0.18907991219E+02  0.18907991219E+02  0.00000000000E+00 0. -1.
         23    2    1    2    0    0  0.00000000000E+00  0.00000000000E+00  0.97700931913E+02  0.13551691435E+03  0.93911458185E+02 0.  0.
        -11    1    3    3    0    0 -0.35294921144E+01  0.33499161993E+02  0.96057338344E+02  0.10179225618E+03  0.00000000000E+00 0.  1.
         11    1    3    3    0    0  0.35294921144E+01 -0.33499161993E+02  0.16435935697E+01  0.33724658170E+02  0.00000000000E+00 0. -1.
<mgrwt>
<rscale>  0 0.93911458E+02</rscale>
<asrwt>0</asrwt>
<pdfrwt beam="2">  1        2 0.29089218E-02 0.93911458E+02</pdfrwt>
<pdfrwt beam="1">  1       -2 0.17939834E-01 0.93911458E+02</pdfrwt>
<totfact> 0.70676286E+04</totfact>
</mgrwt>
</event>
<event>
 5    1  0.1265228E+001  0.8813723E+02  0.7546771E-02  0.1307426E+00
          4   -1    0    0  501    0  0.00000000000E+00  0.00000000000E+00  0.13932425277E+03  0.13932425277E+03  0.00000000000E+00 0. -1.
         -4   -1    0    0    0  501 -0.00000000000E+00 -0.00000000000E+00 -0.13939015418E+02  0.13939015418E+02  0.00000000000E+00 0.  1.
         23    2    1    2    0    0  0.00000000000E+00  0.00000000000E+00  0.12538523735E+03  0.15326326818E+03  0.88137231801E+02 0.  0.
        -11    1    3    3    0    0  0.17042903414E+01 -0.32920491374E+02  0.11834755681E+02  0.35024631332E+02  0.00000000000E+00 0. -1.
         11    1    3    3    0    0 -0.17042903414E+01  0.32920491374E+02  0.11355048167E+03  0.11823863685E+03  0.00000000000E+00 0.  1.
<mgrwt>
<rscale>  0 0.88137232E+02</rscale>
<asrwt>0</asrwt>
<pdfrwt beam="1">  1        4 0.21434500E-01 0.88137232E+02</pdfrwt>
<pdfrwt beam="2">  1       -4 0.21444640E-02 0.88137232E+02</pdfrwt>
<totfact> 0.25745922E+04</totfact>
</mgrwt>
</event>
<event>
 5    1  0.1265228E+001  0.9101096E+02  0.7546771E-02  0.1300422E+00
         -3   -1    0    0    0  501 -0.00000000000E+00  0.00000000000E+00  0.97137126301E+01  0.97137126301E+01  0.00000000000E+00 0.  1.
          3   -1    0    0  501    0  0.00000000000E+00 -0.00000000000E+00 -0.21317790186E+03  0.21317790186E+03  0.00000000000E+00 0. -1.
         23    2    1    2    0    0  0.00000000000E+00  0.00000000000E+00 -0.20346418923E+03  0.22289161449E+03  0.91010963686E+02 0.  0.
        -13    1    3    3    0    0 -0.35875200451E+02 -0.11957386607E+01 -0.33233186185E+02  0.48917322723E+02  0.00000000000E+00 0.  1.
         13    1    3    3    0    0  0.35875200451E+02  0.11957386607E+01 -0.17023100305E+03  0.17397429177E+03  0.00000000000E+00 0. -1.
<mgrwt>
<rscale>  0 0.91010964E+02</rscale>
<asrwt>0</asrwt>
<pdfrwt beam="2">  1        3 0.32796599E-01 0.91010964E+02</pdfrwt>
<pdfrwt beam="1">  1       -3 0.14944174E-02 0.91010964E+02</pdfrwt>
<totfact> 0.27491530E+04</totfact>
</mgrwt>
</event>
<event>
 5    1  0.1265228E+001  0.8997033E+02  0.7546771E-02  0.1302924E+00
          1   -1    0    0  501    0  0.00000000000E+00  0.00000000000E+00  0.63921801344E+02  0.63921801344E+02  0.00000000000E+00 0. -1.
         -1   -1    0    0    0  501 -0.00000000000E+00 -0.00000000000E+00 -0.31658451311E+02  0.31658451311E+02  0.00000000000E+00 0.  1.
         23    2    1    2    0    0  0.00000000000E+00  0.00000000000E+00  0.32263350033E+02  0.95580252654E+02  0.89970333678E+02 0.  0.
        -13    1    3    3    0    0 -0.19999465058E+02 -0.13433078512E+02  0.56490450067E+02  0.61413330391E+02  0.00000000000E+00 0. -1.
         13    1    3    3    0    0  0.19999465058E+02  0.13433078512E+02 -0.24227100034E+02  0.34166922264E+02  0.00000000000E+00 0.  1.
<mgrwt>
<rscale>  0 0.89970334E+02</rscale>
<asrwt>0</asrwt>
<pdfrwt beam="1">  1        1 0.98341232E-02 0.89970334E+02</pdfrwt>
<pdfrwt beam="2">  1       -1 0.48705310E-02 0.89970334E+02</pdfrwt>
<totfact> 0.10094929E+05</totfact>
</mgrwt>
</event>
<event>
 5    1  0.1265228E+001  0.8857592E+02  0.7546771E-02  0.1306337E+00
          1   -1    0    0  501    0  0.00000000000E+00  0.00000000000E+00  0.98610702641E+01  0.98610702641E+01  0.00000000000E+00 0. -1.
         -1   -1    0    0    0  501 -0.00000000000E+00 -0.00000000000E+00 -0.19890575015E+03  0.19890575015E+03  0.00000000000E+00 0.  1.
         23    2    1    2    0    0  0.00000000000E+00  0.00000000000E+00 -0.18904467989E+03  0.20876682042E+03  0.88575924002E+02 0.  0.
        -11    1    3    3    0    0 -0.33715101168E+02  0.24383296243E+02 -0.58764562458E+02  0.72003659513E+02  0.00000000000E+00 0. -1.
         11    1    3    3    0    0  0.33715101168E+02 -0.24383296243E+02 -0.13028011743E+03  0.13676316090E+03  0.00000000000E+00 0.  1.
<mgrwt>
<rscale>  0 0.88575924E+02</rscale>
<asrwt>0</asrwt>
<pdfrwt beam="1">  1        1 0.15170879E-02 0.88575924E+02</pdfrwt>
<pdfrwt beam="2">  1       -1 0.30600882E-01 0.88575924E+02</pdfrwt>
<totfact> 0.74970043E+04</totfact>
</mgrwt>
</event>
<event>
 5    1  0.1265228E+001  0.9061668E+02  0.7546771E-02  0.1301365E+00
          2   -1    0    0  501    0  0.00000000000E+00  0.00000000000E+00  0.18096874352E+03  0.18096874352E+03  0.00000000000E+00 0. -1.
         -2   -1    0    0    0  501 -0.00000000000E+00 -0.00000000000E+00 -0.11343647481E+02  0.11343647481E+02  0.00000000000E+00 0.  1.
         23    2    1    2    0    0  0.00000000000E+00  0.00000000000E+00  0.16962509604E+03  0.19231239100E+03  0.90616679076E+02 0.  0.
        -11    1    3    3    0    0 -0.33885762748E+02  0.16837612870E+02  0.13770312678E+03  0.14280721707E+03  0.00000000000E+00 0. -1.
         11    1    3    3    0    0  0.33885762748E+02 -0.16837612870E+02  0.31921969264E+02  0.49505173930E+02  0.00000000000E+00 0.  1.
<mgrwt>
<rscale>  0 0.90616679E+02</rscale>
<asrwt>0</asrwt>
<pdfrwt beam="1">  1        2 0.27841343E-01 0.90616679E+02</pdfrwt>
<pdfrwt beam="2">  1       -2 0.17451767E-02 0.90616679E+02</pdfrwt>
<totfact> 0.15173206E+05</totfact>
</mgrwt>
</event>
<event>
 5    1  0.1265228E+001  0.9306593E+02  0.7546771E-02  0.1295592E+00
          2   -1    0    0  501    0  0.00000000000E+00  0.00000000000E+00  0.48062960246E+02  0.48062960246E+02  0.00000000000E+00 0. -1.
         -2   -1    0    0    0  501 -0.00000000000E+00 -0.00000000000E+00 -0.45051675982E+02  0.45051675982E+02  0.00000000000E+00 0.  1.
         23    2    1    2    0    0  0.00000000000E+00  0.00000000000E+00  0.30112842638E+01  0.93114636227E+02  0.93065931720E+02 0.  0.
        -11    1    3    3    0    0  0.21816335309E+02  0.12255314943E+02  0.40758452253E+02  0.47826735836E+02  0.00000000000E+00 0. -1.
         11    1    3    3    0    0 -0.21816335309E+02 -0.12255314943E+02 -0.37747167989E+02  0.45287900391E+02  0.00000000000E+00 0.  1.
<mgrwt>
<rscale>  0 0.93065932E+02</rscale>
<asrwt>0</asrwt>
<pdfrwt beam="1">  1        2 0.73943016E-02 0.93065932E+02</pdfrwt>
<pdfrwt beam="2">  1       -2 0.69310271E-02 0.93065932E+02</pdfrwt>
<totfact> 0.94325728E+04</totfact>
</mgrwt>
</event>
<event>
 5    1  0.1265228E+001  0.8891161E+02  0.7546771E-02  0.1305509E+00
         -1   -1    0    0    0  501 -0.00000000000E+00  0.00000000000E+00  0.16099868075E+03  0.16099868075E+03  0.00000000000E+00 0.  1.
          1   -1    0    0  501    0  0.00000000000E+00 -0.00000000000E+00 -0.12275372509E+02  0.12275372509E+02  0.00000000000E+00 0. -1.
         23    2    1    2    0    0  0.00000000000E+00  0.00000000000E+00  0.14872330824E+03  0.17327405326E+03  0.88911614081E+02 0.  0.
        -13    1    3    3    0    0  0.20706145147E+02 -0.33606352623E+02  0.11421460739E+03  0.12084331973E+03  0.00000000000E+00 0.  1.
         13    1    3    3    0    0 -0.20706145147E+02  0.33606352623E+02  0.34508700857E+02  0.52430733528E+02  0.00000000000E+00 0. -1.
<mgrwt>
<rscale>  0 0.88911614E+02</rscale>
<asrwt>0</asrwt>
<pdfrwt beam="2">  1        1 0.18885190E-02 0.88911614E+02</pdfrwt>
<pdfrwt beam="1">  1       -1 0.24769026E-01 0.88911614E+02</pdfrwt>
<totfact> 0.78490411E+04</totfact>
</mgrwt>
</event>
<event>
 5    1  0.1265228E+001  0.8818991E+02  0.7546771E-02  0.1307295E+00
          1   -1    0    0  501    0  0.00000000000E+00  0.00000000000E+00  0.28307537550E+02  0.28307537550E+02  0.00000000000E+00 0. -1.
         -1   -1    0    0    0  501 -0.00000000000E+00 -0.00000000000E+00 -0.68687187343E+02  0.68687187343E+02  0.00000000000E+00 0.  1.
         23    2    1    2    0    0  0.00000000000E+00  0.00000000000E+00 -0.40379649792E+02  0.96994724893E+02  0.88189911780E+02 0.  0.
        -13    1    3    3    0    0 -0.11325877786E+02 -0.24785961122E+02 -0.58317077033E+02  0.64370030682E+02  0.00000000000E+00 0.  1.
         13    1    3    3    0    0  0.11325877786E+02  0.24785961122E+02  0.17937427240E+02  0.32624694211E+02  0.00000000000E+00 0. -1.
<mgrwt>
<rscale>  0 0.88189912E+02</rscale>
<asrwt>0</asrwt>
<pdfrwt beam="1">  1        1 0.43550058E-02 0.88189912E+02</pdfrwt>
<pdfrwt beam="2">  1       -1 0.10567260E-01 0.88189912E+02</pdfrwt>
<totfact> 0.94482548E+04</totfact>
</mgrwt>
</event>
<event>
 5    1  0.1265228E+001  0.9150436E+02  0.7546771E-02  0.1299249E+00
         -4   -1    0    0    0  501 -0.00000000000E+00  0.00000000000E+00  0.58245328260E+02  0.58245328260E+02  0.00000000000E+00 0.  1.
          4   -1    0    0  501    0  0.00000000000E+00 -0.00000000000E+00 -0.35938707226E+02  0.35938707226E+02  0.00000000000E+00 0. -1.
         23    2    1    2    0    0  0.00000000000E+00  0.00000000000E+00  0.22306621034E+02  0.94184035487E+02  0.91504356173E+02 0.  0.
        -13    1    3    3    0    0 -0.39501053031E+02  0.25706450615E+01  0.34766824694E+02  0.52684661011E+02  0.00000000000E+00 0.  1.
         13    1    3    3    0    0  0.39501053031E+02 -0.25706450615E+01 -0.12460203660E+02  0.41499374475E+02  0.00000000000E+00 0. -1.
<mgrwt>
<rscale>  0 0.91504356E+02</rscale>
<asrwt>0</asrwt>
<pdfrwt beam="2">  1        4 0.55290318E-02 0.91504356E+02</pdfrwt>
<pdfrwt beam="1">  1       -4 0.89608198E-02 0.91504356E+02</pdfrwt>
<totfact> 0.26563681E+04</totfact>
</mgrwt>
</event>
<event>
 5    1  0.1265228E+001  0.9051345E+02  0.7546771E-02  0.1301613E+00
         -1   -1    0    0    0  501 -0.00000000000E+00  0.00000000000E+00  0.90887458599E+01  0.90887458599E+01  0.00000000000E+00 0.  1.
          1   -1    0    0  501    0  0.00000000000E+00 -0.00000000000E+00 -0.22535246872E+03  0.22535246872E+03  0.00000000000E+00 0. -1.
         23    2    1    2    0    0  0.00000000000E+00  0.00000000000E+00 -0.21626372286E+03  0.23444121458E+03  0.90513453522E+02 0.  0.
        -11    1    3    3    0    0  0.25781329616E+02 -0.36827461769E+02 -0.94615370871E+02  0.10475212314E+03  0.00000000000E+00 0.  1.
         11    1    3    3    0    0 -0.25781329616E+02  0.36827461769E+02 -0.12164835199E+03  0.12968909144E+03  0.00000000000E+00 0. -1.
<mgrwt>
<rscale>  0 0.90513454E+02</rscale>
<asrwt>0</asrwt>
<pdfrwt beam="2">  1        1 0.34669611E-01 0.90513454E+02</pdfrwt>
<pdfrwt beam="1">  1       -1 0.13982686E-02 0.90513454E+02</pdfrwt>
<totfact> 0.12358052E+05</totfact>
</mgrwt>
</event>
<event>
 5    1  0.1265228E+001  0.9172629E+02  0.7546771E-02  0.1298724E+00
          2   -1    0    0  501    0  0.00000000000E+00  0.00000000000E+00  0.42081100713E+02  0.42081100713E+02  0.00000000000E+00 0. -1.
         -2   -1    0    0    0  501 -0.00000000000E+00 -0.00000000000E+00 -0.49985106282E+02  0.49985106282E+02  0.00000000000E+00 0.  1.
         23    2    1    2    0    0  0.00000000000E+00  0.00000000000E+00 -0.79040055687E+01  0.92066206995E+02  0.91726294848E+02 0.  0.
        -11    1    3    3    0    0  0.20530656438E+02 -0.38440077863E+02 -0.18297652756E+02  0.47264696511E+02  0.00000000000E+00 0.  1.
         11    1    3    3    0    0 -0.20530656438E+02  0.38440077863E+02  0.10393647187E+02  0.44801510485E+02  0.00000000000E+00 0. -1.
<mgrwt>
<rscale>  0 0.91726295E+02</rscale>
<asrwt>0</asrwt>
<pdfrwt beam="1">  1        2 0.64740155E-02 0.91726295E+02</pdfrwt>
<pdfrwt beam="2">  1       -2 0.76900163E-02 0.91726295E+02</pdfrwt>
<totfact> 0.94984780E+04</totfact>
</mgrwt>
</event>
<event>
 5    1  0.1265228E+001  0.1008629E+03  0.7546771E-02  0.1278492E+00
         -2   -1    0    0    0  501 -0.00000000000E+00  0.00000000000E+00  0.61996954031E+02  0.61996954031E+02  0.00000000000E+00 0.  1.
          2   -1    0    0  501    0  0.00000000000E+00 -0.00000000000E+00 -0.41023475164E+02  0.41023475164E+02  0.00000000000E+00 0. -1.
         23    2    1    2    0    0  0.00000000000E+00  0.00000000000E+00  0.20973478867E+02  0.10302042920E+03  0.10086288721E+03 0.  0.
        -11    1    3    3    0    0  0.45378845832E+02 -0.18085184334E+02 -0.23119424605E+01  0.48904586896E+02  0.00000000000E+00 0.  1.
         11    1    3    3    0    0 -0.45378845832E+02  0.18085184334E+02  0.23285421327E+02  0.54115842300E+02  0.00000000000E+00 0. -1.
<mgrwt>
<rscale>  0 0.10086289E+03</rscale>
<asrwt>0</asrwt>
<pdfrwt beam="2">  1        2 0.63113038E-02 0.10086289E+03</pdfrwt>
<pdfrwt beam="1">  1       -2 0.95379930E-02 0.10086289E+03</pdfrwt>
<totfact> 0.71456854E+04</totfact>
</mgrwt>
</event>
<event>
 5    1  0.1265228E+001  0.9131698E+02  0.7546771E-02  0.1299693E+00
         -1   -1    0    0    0  501 -0.00000000000E+00  0.00000000000E+00  0.55325730268E+01  0.55325730268E+01  0.00000000000E+00 0.  1.
          1   -1    0    0  501    0  0.00000000000E+00 -0.00000000000E+00 -0.37680436493E+03  0.37680436493E+03  0.00000000000E+00 0. -1.
         23    2    1    2    0    0  0.00000000000E+00  0.00000000000E+00 -0.37127179190E+03  0.38233693796E+03  0.91316979052E+02 0.  0.
        -11    1    3    3    0    0 -0.37892178749E+02 -0.25378699443E+02 -0.19481095710E+03  0.20007799629E+03  0.00000000000E+00 0. -1.
         11    1    3    3    0    0  0.37892178749E+02  0.25378699443E+02 -0.17646083481E+03  0.18225894166E+03  0.00000000000E+00 0.  1.
<mgrwt>
<rscale>  0 0.91316979E+02</rscale>
<asrwt>0</asrwt>
<pdfrwt beam="2">  1        1 0.57969903E-01 0.91316979E+02</pdfrwt>
<pdfrwt beam="1">  1       -1 0.85116508E-03 0.91316979E+02</pdfrwt>
<totfact> 0.13300044E+05</totfact>
</mgrwt>
</event>
<event>
 5    1  0.1265228E+001  0.8675493E+02  0.7546771E-02  0.1310906E+00
          1   -1    0    0  501    0  0.00000000000E+00  0.00000000000E+00  0.10288909178E+03  0.10288909178E+03  0.00000000000E+00 0. -1.
         -1   -1    0    0    0  501 -0.00000000000E+00 -0.00000000000E+00 -0.18287695087E+02  0.18287695087E+02  0.00000000000E+00 0.  1.
         23    2    1    2    0    0  0.00000000000E+00  0.00000000000E+00  0.84601396694E+02  0.12117678687E+03  0.86754926966E+02 0.  0.
        -13    1    3    3    0    0  0.21643128368E+02  0.37458125206E+02  0.46732710666E+02  0.63682669508E+02  0.00000000000E+00 0. -1.
         13    1    3    3    0    0 -0.21643128368E+02 -0.37458125206E+02  0.37868686028E+02  0.57494117360E+02  0.00000000000E+00 0.  1.
<mgrwt>
<rscale>  0 0.86754927E+02</rscale>
<asrwt>0</asrwt>
<pdfrwt beam="1">  1        1 0.15829091E-01 0.86754927E+02</pdfrwt>
<pdfrwt beam="2">  1       -1 0.28134916E-02 0.86754927E+02</pdfrwt>
<totfact> 0.12010248E+05</totfact>
</mgrwt>
</event>
<event>
 5    1  0.1265228E+001  0.9071486E+02  0.7546771E-02  0.1301130E+00
         -4   -1    0    0    0  501 -0.00000000000E+00  0.00000000000E+00  0.32865700695E+02  0.32865700695E+02  0.00000000000E+00 0.  1.
          4   -1    0    0  501    0  0.00000000000E+00 -0.00000000000E+00 -0.62597069156E+02  0.62597069156E+02  0.00000000000E+00 0. -1.
         23    2    1    2    0    0  0.00000000000E+00  0.00000000000E+00 -0.29731368461E+02  0.95462769851E+02  0.90714861831E+02 0.  0.
        -11    1    3    3    0    0  0.17843992401E+02 -0.11056787448E+02  0.27446135206E+02  0.34553595344E+02  0.00000000000E+00 0.  1.
         11    1    3    3    0    0 -0.17843992401E+02  0.11056787448E+02 -0.57177503667E+02  0.60909174507E+02  0.00000000000E+00 0. -1.
<mgrwt>
<rscale>  0 0.90714862E+02</rscale>
<asrwt>0</asrwt>
<pdfrwt beam="2">  1        4 0.96303182E-02 0.90714862E+02</pdfrwt>
<pdfrwt beam="1">  1       -4 0.50562617E-02 0.90714862E+02</pdfrwt>
<totfact> 0.27112905E+04</totfact>
</mgrwt>
</event>
<event>
 5    1  0.1265228E+001  0.8929657E+02  0.7546771E-02  0.1304564E+00
         -1   -1    0    0    0  501 -0.00000000000E+00  0.00000000000E+00  0.83339733774E+01  0.83339733774E+01  0.00000000000E+00 0. -1.
          1   -1    0    0  501    0  0.00000000000E+00 -0.00000000000E+00 -0.23919795932E+03  0.23919795932E+03  0.00000000000E+00 0.  1.
         23    2    1    2    0    0  0.00000000000E+00  0.00000000000E+00 -0.23086398595E+03  0.24753193270E+03  0.89296571601E+02 0.  0.
        -11    1    3    3    0    0 -0.41491266666E+02 -0.16101041894E+02 -0.10555306808E+03  0.11455225419E+03  0.00000000000E+00 0.  1.
         11    1    3    3    0    0  0.41491266666E+02  0.16101041894E+02 -0.12531091787E+03  0.13297967851E+03  0.00000000000E+00 0. -1.
<mgrwt>
<rscale>  0 0.89296572E+02</rscale>
<asrwt>0</asrwt>
<pdfrwt beam="2">  1        1 0.36799687E-01 0.89296572E+02</pdfrwt>
<pdfrwt beam="1">  1       -1 0.12821497E-02 0.89296572E+02</pdfrwt>
<totfact> 0.12962144E+05</totfact>
</mgrwt>
</event>
<event>
 5    1  0.1265228E+001  0.1005644E+03  0.7546771E-02  0.1279113E+00
          4   -1    0    0  501    0  0.00000000000E+00  0.00000000000E+00  0.52105934380E+02  0.52105934380E+02  0.00000000000E+00 0. -1.
         -4   -1    0    0    0  501 -0.00000000000E+00 -0.00000000000E+00 -0.48522334868E+02  0.48522334868E+02  0.00000000000E+00 0.  1.
         23    2    1    2    0    0  0.00000000000E+00  0.00000000000E+00  0.35835995124E+01  0.10062826925E+03  0.10056443897E+03 0.  0.
        -11    1    3    3    0    0  0.26022198708E+02  0.42786942732E+02 -0.27303942126E+01  0.50153089102E+02  0.00000000000E+00 0.  1.
         11    1    3    3    0    0 -0.26022198708E+02 -0.42786942732E+02  0.63139937250E+01  0.50475180145E+02  0.00000000000E+00 0. -1.
<mgrwt>
<rscale>  0 0.10056444E+03</rscale>
<asrwt>0</asrwt>
<pdfrwt beam="1">  1        4 0.80162977E-02 0.10056444E+03</pdfrwt>
<pdfrwt beam="2">  1       -4 0.74649745E-02 0.10056444E+03</pdfrwt>
<totfact> 0.20213695E+04</totfact>
</mgrwt>
</event>
<event>
 5    1  0.1265228E+001  0.9333714E+02  0.7546771E-02  0.1294966E+00
         -3   -1    0    0    0  501 -0.00000000000E+00  0.00000000000E+00  0.28008467876E+02  0.28008467876E+02  0.00000000000E+00 0.  1.
          3   -1    0    0  501    0  0.00000000000E+00 -0.00000000000E+00 -0.77760600253E+02  0.77760600253E+02  0.00000000000E+00 0. -1.
         23    2    1    2    0    0  0.00000000000E+00  0.00000000000E+00 -0.49752132376E+02  0.10576906813E+03  0.93337136751E+02 0.  0.
        -11    1    3    3    0    0 -0.14304729887E+02 -0.32905826024E+02  0.89405453151E+01  0.36977723484E+02  0.00000000000E+00 0.  1.
         11    1    3    3    0    0  0.14304729887E+02  0.32905826024E+02 -0.58692677691E+02  0.68791344645E+02  0.00000000000E+00 0. -1.
<mgrwt>
<rscale>  0 0.93337137E+02</rscale>
<asrwt>0</asrwt>
<pdfrwt beam="2">  1        3 0.11963169E-01 0.93337137E+02</pdfrwt>
<pdfrwt beam="1">  1       -3 0.43089951E-02 0.93337137E+02</pdfrwt>
<totfact> 0.32129209E+04</totfact>
</mgrwt>
</event>
<event>
 5    1  0.1265228E+001  0.9110434E+02  0.7546771E-02  0.1300199E+00
          1   -1    0    0  501    0  0.00000000000E+00  0.00000000000E+00  0.15716858960E+02  0.15716858960E+02  0.00000000000E+00 0. -1.
         -1   -1    0    0    0  501 -0.00000000000E+00 -0.00000000000E+00 -0.13202385347E+03  0.13202385347E+03  0.00000000000E+00 0.  1.
         23    2    1    2    0    0  0.00000000000E+00  0.00000000000E+00 -0.11630699451E+03  0.14774071243E+03  0.91104342034E+02 0.  0.
        -11    1    3    3    0    0  0.16878193580E+02  0.23821336383E+02 -0.14492116924E+01  0.29230629486E+02  0.00000000000E+00 0. -1.
         11    1    3    3    0    0 -0.16878193580E+02 -0.23821336383E+02 -0.11485778282E+03  0.11851008295E+03  0.00000000000E+00 0.  1.
<mgrwt>
<rscale>  0 0.91104342E+02</rscale>
<asrwt>0</asrwt>
<pdfrwt beam="1">  1        1 0.24179783E-02 0.91104342E+02</pdfrwt>
<pdfrwt beam="2">  1       -1 0.20311362E-01 0.91104342E+02</pdfrwt>
<totfact> 0.77127105E+04</totfact>
</mgrwt>
</event>
<event>
 5    1  0.1265228E+001  0.9140823E+02  0.7546771E-02  0.1299477E+00
          3   -1    0    0  501    0  0.00000000000E+00  0.00000000000E+00  0.16599753209E+02  0.16599753209E+02  0.00000000000E+00 0. -1.
         -3   -1    0    0    0  501 -0.00000000000E+00 -0.00000000000E+00 -0.12583719016E+03  0.12583719016E+03  0.00000000000E+00 0.  1.
         23    2    1    2    0    0  0.00000000000E+00  0.00000000000E+00 -0.10923743695E+03  0.14243694337E+03  0.91408233789E+02 0.  0.
        -13    1    3    3    0    0 -0.33045129142E+02 -0.76717110072E+01 -0.68937303696E+01  0.34617325550E+02  0.00000000000E+00 0.  1.
         13    1    3    3    0    0  0.33045129142E+02  0.76717110072E+01 -0.10234370658E+03  0.10781961782E+03  0.00000000000E+00 0. -1.
<mgrwt>
<rscale>  0 0.91408234E+02</rscale>
<asrwt>0</asrwt>
<pdfrwt beam="1">  1        3 0.25538083E-02 0.91408234E+02</pdfrwt>
<pdfrwt beam="2">  1       -3 0.19359567E-01 0.91408234E+02</pdfrwt>
<totfact> 0.31559622E+04</totfact>
</mgrwt>
</event>
<event>
 5    1  0.1265228E+001  0.8931892E+02  0.7546771E-02  0.1304509E+00
          2   -1    0    0  501    0  0.00000000000E+00  0.00000000000E+00  0.12844598618E+03  0.12844598618E+03  0.00000000000E+00 0.  1.
         -2   -1    0    0    0  501 -0.00000000000E+00 -0.00000000000E+00 -0.15527674036E+02  0.15527674036E+02  0.00000000000E+00 0. -1.
         23    2    1    2    0    0  0.00000000000E+00  0.00000000000E+00  0.11291831214E+03  0.14397366021E+03  0.89318920830E+02 0.  0.
        -13    1    3    3    0    0  0.17007962631E+02 -0.41282303137E+02  0.58045110095E+02  0.73230691319E+02  0.00000000000E+00 0.  1.
         13    1    3    3    0    0 -0.17007962631E+02  0.41282303137E+02  0.54873202048E+02  0.70742968895E+02  0.00000000000E+00 0. -1.
<mgrwt>
<rscale>  0 0.89318921E+02</rscale>
<asrwt>0</asrwt>
<pdfrwt beam="1">  1        2 0.19760920E-01 0.89318921E+02</pdfrwt>
<pdfrwt beam="2">  1       -2 0.23888730E-02 0.89318921E+02</pdfrwt>
<totfact> 0.14040807E+05</totfact>
</mgrwt>
</event>
<event>
 5    1  0.1265228E+001  0.9184656E+02  0.7546771E-02  0.1298441E+00
         -2   -1    0    0    0  501 -0.00000000000E+00  0.00000000000E+00  0.67279621678E+01  0.67279621678E+01  0.00000000000E+00 0.  1.
          2   -1    0    0  501    0  0.00000000000E+00 -0.00000000000E+00 -0.31346010665E+03  0.31346010665E+03  0.00000000000E+00 0. -1.
         23    2    1    2    0    0  0.00000000000E+00  0.00000000000E+00 -0.30673214448E+03  0.32018806881E+03  0.91846562018E+02 0.  0.
        -13    1    3    3    0    0  0.35056280196E+02 -0.19515974295E+02 -0.23125035391E+03  0.23470522409E+03  0.00000000000E+00 0.  1.
         13    1    3    3    0    0 -0.35056280196E+02  0.19515974295E+02 -0.75481790571E+02  0.85482844721E+02  0.00000000000E+00 0. -1.
<mgrwt>
<rscale>  0 0.91846562E+02</rscale>
<asrwt>0</asrwt>
<pdfrwt beam="2">  1        2 0.48224631E-01 0.91846562E+02</pdfrwt>
<pdfrwt beam="1">  1       -2 0.10350711E-02 0.91846562E+02</pdfrwt>
<totfact> 0.17908410E+05</totfact>
</mgrwt>
</event>
<event>
 5    1  0.1265228E+001  0.8859438E+02  0.7546771E-02  0.1306292E+00
         -4   -1    0    0    0  501 -0.00000000000E+00  0.00000000000E+00  0.12238849137E+03  0.12238849137E+03  0.00000000000E+00 0.  1.
          4   -1    0    0  501    0  0.00000000000E+00 -0.00000000000E+00 -0.16032888617E+02  0.16032888617E+02  0.00000000000E+00 0. -1.
         23    2    1    2    0    0  0.00000000000E+00  0.00000000000E+00  0.10635560275E+03  0.13842137998E+03  0.88594380184E+02 0.  0.
        -13    1    3    3    0    0 -0.42174804796E+02 -0.91019096118E+01  0.68855171147E+02  0.81256344441E+02  0.00000000000E+00 0.  1.
         13    1    3    3    0    0  0.42174804796E+02  0.91019096118E+01  0.37500431602E+02  0.57165035542E+02  0.00000000000E+00 0. -1.
<mgrwt>
<rscale>  0 0.88594380E+02</rscale>
<asrwt>0</asrwt>
<pdfrwt beam="2">  1        4 0.24665983E-02 0.88594380E+02</pdfrwt>
<pdfrwt beam="1">  1       -4 0.18828998E-01 0.88594380E+02</pdfrwt>
<totfact> 0.26213954E+04</totfact>
</mgrwt>
</event>
<event>
 5    1  0.1265228E+001  0.9074704E+02  0.7546771E-02  0.1301053E+00
          1   -1    0    0  501    0  0.00000000000E+00  0.00000000000E+00  0.39108823026E+03  0.39108823026E+03  0.00000000000E+00 0. -1.
         -1   -1    0    0    0  501 -0.00000000000E+00 -0.00000000000E+00 -0.52641730379E+01  0.52641730379E+01  0.00000000000E+00 0.  1.
         23    2    1    2    0    0  0.00000000000E+00  0.00000000000E+00  0.38582405722E+03  0.39635240329E+03  0.90747035592E+02 0.  0.
        -13    1    3    3    0    0  0.32615329056E+02 -0.31447110225E+02  0.20367783875E+03  0.20865603856E+03  0.00000000000E+00 0. -1.
         13    1    3    3    0    0 -0.32615329056E+02  0.31447110225E+02  0.18214621847E+03  0.18769636473E+03  0.00000000000E+00 0.  1.
<mgrwt>
<rscale>  0 0.90747036E+02</rscale>
<asrwt>0</asrwt>
<pdfrwt beam="1">  1        1 0.60167398E-01 0.90747036E+02</pdfrwt>
<pdfrwt beam="2">  1       -1 0.80987308E-03 0.90747036E+02</pdfrwt>
<totfact> 0.13608620E+05</totfact>
</mgrwt>
</event>
<event>
 5    1  0.1265228E+001  0.8974605E+02  0.7546771E-02  0.1303468E+00
          2   -1    0    0  501    0  0.00000000000E+00  0.00000000000E+00  0.15733650009E+02  0.15733650009E+02  0.00000000000E+00 0.  1.
         -2   -1    0    0    0  501 -0.00000000000E+00 -0.00000000000E+00 -0.12797973801E+03  0.12797973801E+03  0.00000000000E+00 0. -1.
         23    2    1    2    0    0  0.00000000000E+00  0.00000000000E+00 -0.11224608800E+03  0.14371338802E+03  0.89746050744E+02 0.  0.
        -13    1    3    3    0    0 -0.10293713208E+02 -0.41635213256E+02 -0.34991692450E+02  0.55352236224E+02  0.00000000000E+00 0.  1.
         13    1    3    3    0    0  0.10293713208E+02  0.41635213256E+02 -0.77254395552E+02  0.88361151795E+02  0.00000000000E+00 0. -1.
<mgrwt>
<rscale>  0 0.89746051E+02</rscale>
<asrwt>0</asrwt>
<pdfrwt beam="1">  1        2 0.24205615E-02 0.89746051E+02</pdfrwt>
<pdfrwt beam="2">  1       -2 0.19689191E-01 0.89746051E+02</pdfrwt>
<totfact> 0.76830959E+04</totfact>
</mgrwt>
</event>
<event>
 5    1  0.1265228E+001  0.9211421E+02  0.7546771E-02  0.1297811E+00
         -2   -1    0    0    0  501 -0.00000000000E+00  0.00000000000E+00  0.26228243133E+02  0.26228243133E+02  0.00000000000E+00 0. -1.
          2   -1    0    0  501    0  0.00000000000E+00 -0.00000000000E+00 -0.80876815300E+02  0.80876815300E+02  0.00000000000E+00 0.  1.
         23    2    1    2    0    0  0.00000000000E+00  0.00000000000E+00 -0.54648572167E+02  0.10710505843E+03  0.92114206842E+02 0.  0.
        -11    1    3    3    0    0 -0.27420848875E+02 -0.12760167719E+02  0.13063753908E+02  0.32945204498E+02  0.00000000000E+00 0. -1.
         11    1    3    3    0    0  0.27420848875E+02  0.12760167719E+02 -0.67712326075E+02  0.74159853936E+02  0.00000000000E+00 0.  1.
<mgrwt>
<rscale>  0 0.92114207E+02</rscale>
<asrwt>0</asrwt>
<pdfrwt beam="2">  1        2 0.12442587E-01 0.92114207E+02</pdfrwt>
<pdfrwt beam="1">  1       -2 0.40351145E-02 0.92114207E+02</pdfrwt>
<totfact> 0.11198181E+05</totfact>
</mgrwt>
</event>
<event>
 5    1  0.1265228E+001  0.9226551E+02  0.7546771E-02  0.1297456E+00
         -2   -1    0    0    0  501 -0.00000000000E+00  0.00000000000E+00  0.28313409892E+02  0.28313409892E+02  0.00000000000E+00 0.  1.
          2   -1    0    0  501    0  0.00000000000E+00 -0.00000000000E+00 -0.75166894013E+02  0.75166894013E+02  0.00000000000E+00 0. -1.
         23    2    1    2    0    0  0.00000000000E+00  0.00000000000E+00 -0.46853484121E+02  0.10348030390E+03  0.92265509926E+02 0.  0.
        -13    1    3    3    0    0  0.15296492060E+02 -0.26058727481E+02  0.15670003252E+02  0.34038051489E+02  0.00000000000E+00 0.  1.
         13    1    3    3    0    0 -0.15296492060E+02  0.26058727481E+02 -0.62523487373E+02  0.69442252416E+02  0.00000000000E+00 0. -1.
<mgrwt>
<rscale>  0 0.92265510E+02</rscale>
<asrwt>0</asrwt>
<pdfrwt beam="2">  1        2 0.11564137E-01 0.92265510E+02</pdfrwt>
<pdfrwt beam="1">  1       -2 0.43559093E-02 0.92265510E+02</pdfrwt>
<totfact> 0.10916256E+05</totfact>
</mgrwt>
</event>
<event>
 5    1  0.1265228E+001  0.7443882E+02  0.7546771E-02  0.1345618E+00
          2   -1    0    0  501    0  0.00000000000E+00  0.00000000000E+00  0.24630173109E+03  0.24630173109E+03  0.00000000000E+00 0.  1.
         -2   -1    0    0    0  501 -0.00000000000E+00 -0.00000000000E+00 -0.56243384834E+01  0.56243384834E+01  0.00000000000E+00 0. -1.
         23    2    1    2    0    0  0.00000000000E+00  0.00000000000E+00  0.24067739260E+03  0.25192606957E+03  0.74438815269E+02 0.  0.
        -13    1    3    3    0    0  0.16074760720E+02  0.31065076405E+02  0.16339398668E+03  0.16709587603E+03  0.00000000000E+00 0.  1.
         13    1    3    3    0    0 -0.16074760720E+02 -0.31065076405E+02  0.77283405920E+02  0.84830193534E+02  0.00000000000E+00 0. -1.
<mgrwt>
<rscale>  0 0.74438815E+02</rscale>
<asrwt>0</asrwt>
<pdfrwt beam="1">  1        2 0.37892566E-01 0.74438815E+02</pdfrwt>
<pdfrwt beam="2">  1       -2 0.86528303E-03 0.74438815E+02</pdfrwt>
<totfact> 0.28559550E+05</totfact>
</mgrwt>
</event>
<event>
 5    1  0.1265228E+001  0.9090813E+02  0.7546771E-02  0.1300667E+00
          2   -1    0    0  501    0  0.00000000000E+00  0.00000000000E+00  0.96122596361E+01  0.96122596361E+01  0.00000000000E+00 0.  1.
         -2   -1    0    0    0  501 -0.00000000000E+00 -0.00000000000E+00 -0.21494136515E+03  0.21494136515E+03  0.00000000000E+00 0. -1.
         23    2    1    2    0    0  0.00000000000E+00  0.00000000000E+00 -0.20532910552E+03  0.22455362479E+03  0.90908134034E+02 0.  0.
        -13    1    3    3    0    0 -0.46324754199E+01 -0.42640276193E+02 -0.65496143275E+02  0.78290470469E+02  0.00000000000E+00 0.  1.
         13    1    3    3    0    0  0.46324754199E+01  0.42640276193E+02 -0.13983296224E+03  0.14626315432E+03  0.00000000000E+00 0. -1.
<mgrwt>
<rscale>  0 0.90908134E+02</rscale>
<asrwt>0</asrwt>
<pdfrwt beam="1">  1        2 0.14788090E-02 0.90908134E+02</pdfrwt>
<pdfrwt beam="2">  1       -2 0.33067905E-01 0.90908134E+02</pdfrwt>
<totfact> 0.60819604E+04</totfact>
</mgrwt>
</event>
<event>
 5    1  0.1265228E+001  0.9138265E+02  0.7546771E-02  0.1299538E+00
         -1   -1    0    0    0  501 -0.00000000000E+00  0.00000000000E+00  0.38292667452E+02  0.38292667452E+02  0.00000000000E+00 0.  1.
          1   -1    0    0  501    0  0.00000000000E+00 -0.00000000000E+00 -0.54519507759E+02  0.54519507759E+02  0.00000000000E+00 0. -1.
         23    2    1    2    0    0  0.00000000000E+00  0.00000000000E+00 -0.16226840307E+02  0.92812175211E+02  0.91382654377E+02 0.  0.
        -11    1    3    3    0    0  0.97392326496E+00  0.23692228042E+02  0.31554270998E+02  0.39470776713E+02  0.00000000000E+00 0.  1.
         11    1    3    3    0    0 -0.97392326496E+00 -0.23692228042E+02 -0.47781111305E+02  0.53341398498E+02  0.00000000000E+00 0. -1.
<mgrwt>
<rscale>  0 0.91382654E+02</rscale>
<asrwt>0</asrwt>
<pdfrwt beam="2">  1        1 0.83876166E-02 0.91382654E+02</pdfrwt>
<pdfrwt beam="1">  1       -1 0.58911796E-02 0.91382654E+02</pdfrwt>
<totfact> 0.94394611E+04</totfact>
</mgrwt>
</event>
<event>
 5    1  0.1265228E+001  0.9361830E+02  0.7546771E-02  0.1294319E+00
          1   -1    0    0  501    0  0.00000000000E+00  0.00000000000E+00  0.67023639479E+01  0.67023639479E+01  0.00000000000E+00 0. -1.
         -1   -1    0    0    0  501 -0.00000000000E+00 -0.00000000000E+00 -0.32691401685E+03  0.32691401685E+03  0.00000000000E+00 0.  1.
         23    2    1    2    0    0  0.00000000000E+00  0.00000000000E+00 -0.32021165290E+03  0.33361638080E+03  0.93618304206E+02 0.  0.
        -13    1    3    3    0    0 -0.43905550155E+02 -0.59273280965E+01 -0.10626553893E+03  0.11513120914E+03  0.00000000000E+00 0.  1.
         13    1    3    3    0    0  0.43905550155E+02  0.59273280965E+01 -0.21394611397E+03  0.21848517166E+03  0.00000000000E+00 0. -1.
<mgrwt>
<rscale>  0 0.93618304E+02</rscale>
<asrwt>0</asrwt>
<pdfrwt beam="1">  1        1 0.10311329E-02 0.93618304E+02</pdfrwt>
<pdfrwt beam="2">  1       -1 0.50294463E-01 0.93618304E+02</pdfrwt>
<totfact> 0.54584907E+04</totfact>
</mgrwt>
</event>
<event>
 5    1  0.1265228E+001  0.9083311E+02  0.7546771E-02  0.1300847E+00
          1   -1    0    0  501    0  0.00000000000E+00  0.00000000000E+00  0.98226134384E+02  0.98226134384E+02  0.00000000000E+00 0. -1.
         -1   -1    0    0    0  501 -0.00000000000E+00 -0.00000000000E+00 -0.20999130483E+02  0.20999130483E+02  0.00000000000E+00 0.  1.
         23    2    1    2    0    0  0.00000000000E+00  0.00000000000E+00  0.77227003900E+02  0.11922526487E+03  0.90833108783E+02 0.  0.
        -13    1    3    3    0    0 -0.42242403945E+02  0.14409314045E+02  0.49643380365E+02  0.66757128731E+02  0.00000000000E+00 0.  1.
         13    1    3    3    0    0  0.42242403945E+02 -0.14409314045E+02  0.27583623535E+02  0.52468136136E+02  0.00000000000E+00 0. -1.
<mgrwt>
<rscale>  0 0.90833109E+02</rscale>
<asrwt>0</asrwt>
<pdfrwt beam="1">  1        1 0.15111713E-01 0.90833109E+02</pdfrwt>
<pdfrwt beam="2">  1       -1 0.32306355E-02 0.90833109E+02</pdfrwt>
<totfact> 0.10522001E+05</totfact>
</mgrwt>
</event>
<event>
 5    1  0.1265228E+001  0.9999512E+02  0.7546771E-02  0.1280306E+00
         -2   -1    0    0    0  501 -0.00000000000E+00  0.00000000000E+00  0.18953926258E+02  0.18953926258E+02  0.00000000000E+00 0.  1.
          2   -1    0    0  501    0  0.00000000000E+00 -0.00000000000E+00 -0.13188592724E+03  0.13188592724E+03  0.00000000000E+00 0. -1.
         23    2    1    2    0    0  0.00000000000E+00  0.00000000000E+00 -0.11293200098E+03  0.15083985349E+03  0.99995122668E+02 0.  0.
        -11    1    3    3    0    0 -0.36103997402E+02  0.82055386319E+01 -0.57820863601E+01  0.37473484164E+02  0.00000000000E+00 0.  1.
         11    1    3    3    0    0  0.36103997402E+02 -0.82055386319E+01 -0.10714991462E+03  0.11336636933E+03  0.00000000000E+00 0. -1.
<mgrwt>
<rscale>  0 0.99995123E+02</rscale>
<asrwt>0</asrwt>
<pdfrwt beam="2">  1        2 0.20290143E-01 0.99995123E+02</pdfrwt>
<pdfrwt beam="1">  1       -2 0.29159887E-02 0.99995123E+02</pdfrwt>
<totfact> 0.10394420E+05</totfact>
</mgrwt>
</event>
<event>
 5    1  0.1265228E+001  0.9161907E+02  0.7546771E-02  0.1298978E+00
          1   -1    0    0  501    0  0.00000000000E+00  0.00000000000E+00  0.26322321668E+02  0.26322321668E+02  0.00000000000E+00 0. -1.
         -1   -1    0    0    0  501 -0.00000000000E+00 -0.00000000000E+00 -0.79723720760E+02  0.79723720760E+02  0.00000000000E+00 0.  1.
         23    2    1    2    0    0  0.00000000000E+00  0.00000000000E+00 -0.53401399092E+02  0.10604604243E+03  0.91619068374E+02 0.  0.
        -11    1    3    3    0    0 -0.30132886418E+02 -0.12113014895E+02  0.10694573593E+02  0.34191956336E+02  0.00000000000E+00 0. -1.
         11    1    3    3    0    0  0.30132886418E+02  0.12113014895E+02 -0.64095972685E+02  0.71854086093E+02  0.00000000000E+00 0.  1.
<mgrwt>
<rscale>  0 0.91619068E+02</rscale>
<asrwt>0</asrwt>
<pdfrwt beam="1">  1        1 0.40495880E-02 0.91619068E+02</pdfrwt>
<pdfrwt beam="2">  1       -1 0.12265188E-01 0.91619068E+02</pdfrwt>
<totfact> 0.83656462E+04</totfact>
</mgrwt>
</event>
<event>
 5    1  0.1265228E+001  0.8949361E+02  0.7546771E-02  0.1304083E+00
         -3   -1    0    0    0  501 -0.00000000000E+00  0.00000000000E+00  0.58422250131E+02  0.58422250131E+02  0.00000000000E+00 0.  1.
          3   -1    0    0  501    0  0.00000000000E+00 -0.00000000000E+00 -0.34272498064E+02  0.34272498064E+02  0.00000000000E+00 0. -1.
         23    2    1    2    0    0  0.00000000000E+00  0.00000000000E+00  0.24149752067E+02  0.92694748195E+02  0.89493607694E+02 0.  0.
        -13    1    3    3    0    0 -0.29915346640E+02 -0.30176681040E+02 -0.24523739437E+01  0.42562591335E+02  0.00000000000E+00 0. -1.
         13    1    3    3    0    0  0.29915346640E+02  0.30176681040E+02  0.26602126010E+02  0.50132156860E+02  0.00000000000E+00 0.  1.
<mgrwt>
<rscale>  0 0.89493608E+02</rscale>
<asrwt>0</asrwt>
<pdfrwt beam="2">  1        3 0.52726920E-02 0.89493608E+02</pdfrwt>
<pdfrwt beam="1">  1       -3 0.89880385E-02 0.89493608E+02</pdfrwt>
<totfact> 0.37052368E+04</totfact>
</mgrwt>
</event>
<event>
 5    1  0.1265228E+001  0.9080640E+02  0.7546771E-02  0.1300911E+00
         -1   -1    0    0    0  501 -0.00000000000E+00  0.00000000000E+00  0.12732063628E+02  0.12732063628E+02  0.00000000000E+00 0.  1.
          1   -1    0    0  501    0  0.00000000000E+00 -0.00000000000E+00 -0.16191015477E+03  0.16191015477E+03  0.00000000000E+00 0. -1.
         23    2    1    2    0    0  0.00000000000E+00  0.00000000000E+00 -0.14917809114E+03  0.17464221840E+03  0.90806396087E+02 0.  0.
        -11    1    3    3    0    0  0.26027510622E+01  0.44243886087E+02 -0.55632267055E+02  0.71128369212E+02  0.00000000000E+00 0.  1.
         11    1    3    3    0    0 -0.26027510622E+01 -0.44243886087E+02 -0.93545824087E+02  0.10351384919E+03  0.00000000000E+00 0. -1.
<mgrwt>
<rscale>  0 0.90806396E+02</rscale>
<asrwt>0</asrwt>
<pdfrwt beam="2">  1        1 0.24909254E-01 0.90806396E+02</pdfrwt>
<pdfrwt beam="1">  1       -1 0.19587791E-02 0.90806396E+02</pdfrwt>
<totfact> 0.11498458E+05</totfact>
</mgrwt>
</event>
<event>
 5    1  0.1265228E+001  0.9065486E+02  0.7546771E-02  0.1301274E+00
          2   -1    0    0  501    0  0.00000000000E+00  0.00000000000E+00  0.14320681052E+03  0.14320681052E+03  0.00000000000E+00 0.  1.
         -2   -1    0    0    0  501 -0.00000000000E+00 -0.00000000000E+00 -0.14346915235E+02  0.14346915235E+02  0.00000000000E+00 0. -1.
         23    2    1    2    0    0  0.00000000000E+00  0.00000000000E+00  0.12885989529E+03  0.15755372576E+03  0.90654861350E+02 0.  0.
        -13    1    3    3    0    0  0.17491109747E+02 -0.23204968685E+02  0.39710618469E+01  0.29328805363E+02  0.00000000000E+00 0. -1.
         13    1    3    3    0    0 -0.17491109747E+02  0.23204968685E+02  0.12488883344E+03  0.12822492039E+03  0.00000000000E+00 0.  1.
<mgrwt>
<rscale>  0 0.90654861E+02</rscale>
<asrwt>0</asrwt>
<pdfrwt beam="1">  1        2 0.22031816E-01 0.90654861E+02</pdfrwt>
<pdfrwt beam="2">  1       -2 0.22072178E-02 0.90654861E+02</pdfrwt>
<totfact> 0.13979795E+05</totfact>
</mgrwt>
</event>
<event>
 5    1  0.1265228E+001  0.8783944E+02  0.7546771E-02  0.1308170E+00
         -2   -1    0    0    0  501 -0.00000000000E+00  0.00000000000E+00  0.12922959448E+03  0.12922959448E+03  0.00000000000E+00 0.  1.
          2   -1    0    0  501    0  0.00000000000E+00 -0.00000000000E+00 -0.14926471136E+02  0.14926471136E+02  0.00000000000E+00 0. -1.
         23    2    1    2    0    0  0.00000000000E+00  0.00000000000E+00  0.11430312335E+03  0.14415606562E+03  0.87839440162E+02 0.  0.
        -13    1    3    3    0    0  0.10624122416E+02  0.28916017407E+02  0.57777576921E+01  0.31343109669E+02  0.00000000000E+00 0. -1.
         13    1    3    3    0    0 -0.10624122416E+02 -0.28916017407E+02  0.10852536565E+03  0.11281295595E+03  0.00000000000E+00 0.  1.
<mgrwt>
<rscale>  0 0.87839440E+02</rscale>
<asrwt>0</asrwt>
<pdfrwt beam="2">  1        2 0.22963803E-02 0.87839440E+02</pdfrwt>
<pdfrwt beam="1">  1       -2 0.19881475E-01 0.87839440E+02</pdfrwt>
<totfact> 0.80831750E+04</totfact>
</mgrwt>
</event>
<event>
 5    1  0.1265228E+001  0.9890326E+02  0.7546771E-02  0.1282619E+00
          2   -1    0    0  501    0  0.00000000000E+00  0.00000000000E+00  0.38159314715E+02  0.38159314715E+02  0.00000000000E+00 0. -1.
         -2   -1    0    0    0  501 -0.00000000000E+00 -0.00000000000E+00 -0.64085623745E+02  0.64085623745E+02  0.00000000000E+00 0.  1.
         23    2    1    2    0    0  0.00000000000E+00  0.00000000000E+00 -0.25926309030E+02  0.10224493846E+03  0.98903255461E+02 0.  0.
        -11    1    3    3    0    0 -0.12955569506E+02  0.18684117951E+02 -0.58361847950E+02  0.62634242559E+02  0.00000000000E+00 0.  1.
         11    1    3    3    0    0  0.12955569506E+02 -0.18684117951E+02  0.32435538919E+02  0.39610695901E+02  0.00000000000E+00 0. -1.
<mgrwt>
<rscale>  0 0.98903255E+02</rscale>
<asrwt>0</asrwt>
<pdfrwt beam="1">  1        2 0.58706638E-02 0.98903255E+02</pdfrwt>
<pdfrwt beam="2">  1       -2 0.98593267E-02 0.98903255E+02</pdfrwt>
<totfact> 0.74208045E+04</totfact>
</mgrwt>
</event>
<event>
 4    1  0.1265228E+001  0.1440515E+03  0.7546771E-02  0.1207979E+00
          2   -1    0    0  501    0  0.00000000000E+00  0.00000000000E+00  0.70955159039E+02  0.70955159039E+02  0.00000000000E+00 0. -1.
         -2   -1    0    0    0  501 -0.00000000000E+00 -0.00000000000E+00 -0.73112464382E+02  0.73112464382E+02  0.00000000000E+00 0.  1.
        -13    1    1    2    0    0 -0.64911985310E+02 -0.11953097557E+00 -0.32293150731E+02  0.72501225567E+02  0.00000000000E+00 0.  1.
         13    1    1    2    0    0  0.64911985310E+02  0.11953097557E+00  0.30135845389E+02  0.71566397854E+02  0.00000000000E+00 0. -1.
<mgrwt>
<rscale>  0 0.14405147E+03</rscale>
<asrwt>0</asrwt>
<pdfrwt beam="1">  1        2 0.10916178E-01 0.14405147E+03</pdfrwt>
<pdfrwt beam="2">  1       -2 0.11248071E-01 0.14405147E+03</pdfrwt>
<totfact> 0.29161076E+04</totfact>
</mgrwt>
</event>
<event>
 5    1  0.1265228E+001  0.8799936E+02  0.7546771E-02  0.1307770E+00
         -2   -1    0    0    0  501 -0.00000000000E+00  0.00000000000E+00  0.21881288912E+02  0.21881288912E+02  0.00000000000E+00 0.  1.
          2   -1    0    0  501    0  0.00000000000E+00 -0.00000000000E+00 -0.88476131325E+02  0.88476131325E+02  0.00000000000E+00 0. -1.
         23    2    1    2    0    0  0.00000000000E+00  0.00000000000E+00 -0.66594842413E+02  0.11035742024E+03  0.87999358891E+02 0.  0.
        -11    1    3    3    0    0 -0.35958928764E+01  0.24037542399E+02 -0.79293581510E+02  0.82934950165E+02  0.00000000000E+00 0. -1.
         11    1    3    3    0    0  0.35958928764E+01 -0.24037542399E+02  0.12698739097E+02  0.27422470071E+02  0.00000000000E+00 0.  1.
<mgrwt>
<rscale>  0 0.87999359E+02</rscale>
<asrwt>0</asrwt>
<pdfrwt beam="2">  1        2 0.13611713E-01 0.87999359E+02</pdfrwt>
<pdfrwt beam="1">  1       -2 0.33663521E-02 0.87999359E+02</pdfrwt>
<totfact> 0.13041157E+05</totfact>
</mgrwt>
</event>
<event>
 5    1  0.1265228E+001  0.9301016E+02  0.7546771E-02  0.1295722E+00
         -4   -1    0    0    0  501 -0.00000000000E+00  0.00000000000E+00  0.35132769490E+02  0.35132769490E+02  0.00000000000E+00 0.  1.
          4   -1    0    0  501    0  0.00000000000E+00 -0.00000000000E+00 -0.61558558947E+02  0.61558558947E+02  0.00000000000E+00 0. -1.
         23    2    1    2    0    0  0.00000000000E+00  0.00000000000E+00 -0.26425789458E+02  0.96691328437E+02  0.93010164210E+02 0.  0.
        -11    1    3    3    0    0  0.33960285877E+02  0.19238977210E+02  0.13071854010E+02  0.41162028960E+02  0.00000000000E+00 0.  1.
         11    1    3    3    0    0 -0.33960285877E+02 -0.19238977210E+02 -0.39497643467E+02  0.55529299476E+02  0.00000000000E+00 0. -1.
<mgrwt>
<rscale>  0 0.93010164E+02</rscale>
<asrwt>0</asrwt>
<pdfrwt beam="2">  1        4 0.94705474E-02 0.93010164E+02</pdfrwt>
<pdfrwt beam="1">  1       -4 0.54050415E-02 0.93010164E+02</pdfrwt>
<totfact> 0.25259139E+04</totfact>
</mgrwt>
</event>
<event>
 5    1  0.1265228E+001  0.9094652E+02  0.7546771E-02  0.1300576E+00
         -4   -1    0    0    0  501 -0.00000000000E+00  0.00000000000E+00  0.22458587953E+02  0.22458587953E+02  0.00000000000E+00 0. -1.
          4   -1    0    0  501    0  0.00000000000E+00 -0.00000000000E+00 -0.92072450662E+02  0.92072450662E+02  0.00000000000E+00 0.  1.
         23    2    1    2    0    0  0.00000000000E+00  0.00000000000E+00 -0.69613862709E+02  0.11453103861E+03  0.90946516838E+02 0.  0.
        -11    1    3    3    0    0  0.16259077332E+02  0.31660996482E+02  0.83526710693E+00  0.35601600597E+02  0.00000000000E+00 0.  1.
         11    1    3    3    0    0 -0.16259077332E+02 -0.31660996482E+02 -0.70449129816E+02  0.78929438017E+02  0.00000000000E+00 0. -1.
<mgrwt>
<rscale>  0 0.90946517E+02</rscale>
<asrwt>0</asrwt>
<pdfrwt beam="2">  1        4 0.14164993E-01 0.90946517E+02</pdfrwt>
<pdfrwt beam="1">  1       -4 0.34551673E-02 0.90946517E+02</pdfrwt>
<totfact> 0.25762267E+04</totfact>
</mgrwt>
</event>
<event>
 5    1  0.1265228E+001  0.9195202E+02  0.7546771E-02  0.1298192E+00
          2   -1    0    0  501    0  0.00000000000E+00  0.00000000000E+00  0.16401337712E+02  0.16401337712E+02  0.00000000000E+00 0. -1.
         -2   -1    0    0    0  501 -0.00000000000E+00 -0.00000000000E+00 -0.12887934131E+03  0.12887934131E+03  0.00000000000E+00 0.  1.
         23    2    1    2    0    0  0.00000000000E+00  0.00000000000E+00 -0.11247800359E+03  0.14528067902E+03  0.91952022293E+02 0.  0.
        -13    1    3    3    0    0 -0.36900805195E+02 -0.17472353667E+02 -0.22840798796E+02  0.46783059501E+02  0.00000000000E+00 0. -1.
         13    1    3    3    0    0  0.36900805195E+02  0.17472353667E+02 -0.89637204798E+02  0.98497619518E+02  0.00000000000E+00 0.  1.
<mgrwt>
<rscale>  0 0.91952022E+02</rscale>
<asrwt>0</asrwt>
<pdfrwt beam="1">  1        2 0.25232827E-02 0.91952022E+02</pdfrwt>
<pdfrwt beam="2">  1       -2 0.19827591E-01 0.91952022E+02</pdfrwt>
<totfact> 0.72107560E+04</totfact>
</mgrwt>
</event>
<event>
 5    1  0.1265228E+001  0.8201345E+02  0.7546771E-02  0.1323433E+00
         -2   -1    0    0    0  501 -0.00000000000E+00  0.00000000000E+00  0.87355101364E+02  0.87355101364E+02  0.00000000000E+00 0.  1.
          2   -1    0    0  501    0  0.00000000000E+00 -0.00000000000E+00 -0.19249610202E+02  0.19249610202E+02  0.00000000000E+00 0. -1.
         23    2    1    2    0    0  0.00000000000E+00  0.00000000000E+00  0.68105491161E+02  0.10660471157E+03  0.82013453785E+02 0.  0.
        -13    1    3    3    0    0 -0.36656413828E+01  0.37805421856E+02  0.13963326556E+02  0.40468028578E+02  0.00000000000E+00 0. -1.
         13    1    3    3    0    0  0.36656413828E+01 -0.37805421856E+02  0.54142164606E+02  0.66136682988E+02  0.00000000000E+00 0.  1.
<mgrwt>
<rscale>  0 0.82013454E+02</rscale>
<asrwt>0</asrwt>
<pdfrwt beam="2">  1        2 0.29614785E-02 0.82013454E+02</pdfrwt>
<pdfrwt beam="1">  1       -2 0.13439246E-01 0.82013454E+02</pdfrwt>
<totfact> 0.10785066E+05</totfact>
</mgrwt>
</event>
<event>
 5    1  0.1265228E+001  0.9180187E+02  0.7546771E-02  0.1298546E+00
          1   -1    0    0  501    0  0.00000000000E+00  0.00000000000E+00  0.17937376038E+03  0.17937376038E+03  0.00000000000E+00 0. -1.
         -1   -1    0    0    0  501 -0.00000000000E+00 -0.00000000000E+00 -0.11745841788E+02  0.11745841788E+02  0.00000000000E+00 0.  1.
         23    2    1    2    0    0  0.00000000000E+00  0.00000000000E+00  0.16762791860E+03  0.19111960217E+03  0.91801869489E+02 0.  0.
        -11    1    3    3    0    0 -0.34981762159E+02 -0.13570873404E+02  0.13885585578E+03  0.14383616017E+03  0.00000000000E+00 0. -1.
         11    1    3    3    0    0  0.34981762159E+02  0.13570873404E+02  0.28772062818E+02  0.47283442001E+02  0.00000000000E+00 0.  1.
<mgrwt>
<rscale>  0 0.91801869E+02</rscale>
<asrwt>0</asrwt>
<pdfrwt beam="1">  1        1 0.27595961E-01 0.91801869E+02</pdfrwt>
<pdfrwt beam="2">  1       -1 0.18070527E-02 0.91801869E+02</pdfrwt>
<totfact> 0.11383703E+05</totfact>
</mgrwt>
</event>
<event>
 5    1  0.1265228E+001  0.9062551E+02  0.7546771E-02  0.1301344E+00
          1   -1    0    0  501    0  0.00000000000E+00  0.00000000000E+00  0.14872373599E+02  0.14872373599E+02  0.00000000000E+00 0. -1.
         -1   -1    0    0    0  501 -0.00000000000E+00 -0.00000000000E+00 -0.13805769462E+03  0.13805769462E+03  0.00000000000E+00 0.  1.
         23    2    1    2    0    0  0.00000000000E+00  0.00000000000E+00 -0.12318532102E+03  0.15293006821E+03  0.90625506620E+02 0.  0.
        -11    1    3    3    0    0  0.37600889711E+02  0.15662527721E+02 -0.95092892776E+02  0.10344950429E+03  0.00000000000E+00 0.  1.
         11    1    3    3    0    0 -0.37600889711E+02 -0.15662527721E+02 -0.28092428242E+02  0.49480563924E+02  0.00000000000E+00 0. -1.
<mgrwt>
<rscale>  0 0.90625507E+02</rscale>
<asrwt>0</asrwt>
<pdfrwt beam="1">  1        1 0.22880575E-02 0.90625507E+02</pdfrwt>
<pdfrwt beam="2">  1       -1 0.21239645E-01 0.90625507E+02</pdfrwt>
<totfact> 0.77424375E+04</totfact>
</mgrwt>
</event>
<event>
 5    1  0.1265228E+001  0.1055363E+03  0.7546771E-02  0.1269067E+00
         -2   -1    0    0    0  501 -0.00000000000E+00  0.00000000000E+00  0.49573696423E+02  0.49573696423E+02  0.00000000000E+00 0.  1.
          2   -1    0    0  501    0  0.00000000000E+00 -0.00000000000E+00 -0.56168413201E+02  0.56168413201E+02  0.00000000000E+00 0. -1.
         23    2    1    2    0    0  0.00000000000E+00  0.00000000000E+00 -0.65947167773E+01  0.10574210962E+03  0.10553626608E+03 0.  0.
        -11    1    3    3    0    0 -0.43486298948E+00  0.44562010307E+02  0.25015747450E+02  0.51105278483E+02  0.00000000000E+00 0.  1.
         11    1    3    3    0    0  0.43486298948E+00 -0.44562010307E+02 -0.31610464227E+02  0.54636831140E+02  0.00000000000E+00 0. -1.
<mgrwt>
<rscale>  0 0.10553627E+03</rscale>
<asrwt>0</asrwt>
<pdfrwt beam="2">  1        2 0.86412943E-02 0.10553627E+03</pdfrwt>
<pdfrwt beam="1">  1       -2 0.76267225E-02 0.10553627E+03</pdfrwt>
<totfact> 0.68458307E+04</totfact>
</mgrwt>
</event>
<event>
 5    1  0.1265228E+001  0.9112664E+02  0.7546771E-02  0.1300146E+00
          2   -1    0    0  501    0  0.00000000000E+00  0.00000000000E+00  0.56999093193E+02  0.56999093193E+02  0.00000000000E+00 0. -1.
         -2   -1    0    0    0  501 -0.00000000000E+00 -0.00000000000E+00 -0.36421917550E+02  0.36421917550E+02  0.00000000000E+00 0.  1.
         23    2    1    2    0    0  0.00000000000E+00  0.00000000000E+00  0.20577175643E+02  0.93421010743E+02  0.91126643145E+02 0.  0.
        -13    1    3    3    0    0 -0.28053281660E+02  0.35874718758E+02  0.11750756926E+02  0.47032566868E+02  0.00000000000E+00 0. -1.
         13    1    3    3    0    0  0.28053281660E+02 -0.35874718758E+02  0.88264187173E+01  0.46388443875E+02  0.00000000000E+00 0.  1.
<mgrwt>
<rscale>  0 0.91126643E+02</rscale>
<asrwt>0</asrwt>
<pdfrwt beam="1">  1        2 0.87690913E-02 0.91126643E+02</pdfrwt>
<pdfrwt beam="2">  1       -2 0.56033719E-02 0.91126643E+02</pdfrwt>
<totfact> 0.10478914E+05</totfact>
</mgrwt>
</event>
<event>
 5    1  0.1265228E+001  0.9304902E+02  0.7546771E-02  0.1295632E+00
          2   -1    0    0  501    0  0.00000000000E+00  0.00000000000E+00  0.14485927254E+02  0.14485927254E+02  0.00000000000E+00 0. -1.
         -2   -1    0    0    0  501 -0.00000000000E+00 -0.00000000000E+00 -0.14942296560E+03  0.14942296560E+03  0.00000000000E+00 0.  1.
         23    2    1    2    0    0  0.00000000000E+00  0.00000000000E+00 -0.13493703835E+03  0.16390889285E+03  0.93049023848E+02 0.  0.
        -13    1    3    3    0    0 -0.19304065780E+02  0.24259407544E+02 -0.12857528168E+03  0.13226023162E+03  0.00000000000E+00 0.  1.
         13    1    3    3    0    0  0.19304065780E+02 -0.24259407544E+02 -0.63617566710E+01  0.31648661235E+02  0.00000000000E+00 0. -1.
<mgrwt>
<rscale>  0 0.93049024E+02</rscale>
<asrwt>0</asrwt>
<pdfrwt beam="1">  1        2 0.22286043E-02 0.93049024E+02</pdfrwt>
<pdfrwt beam="2">  1       -2 0.22988148E-01 0.93049024E+02</pdfrwt>
<totfact> 0.66442920E+04</totfact>
</mgrwt>
</event>
<event>
 5    1  0.1265228E+001  0.9755947E+02  0.7546771E-02  0.1285513E+00
         -1   -1    0    0    0  501 -0.00000000000E+00  0.00000000000E+00  0.61897795046E+02  0.61897795046E+02  0.00000000000E+00 0.  1.
          1   -1    0    0  501    0  0.00000000000E+00 -0.00000000000E+00 -0.38441798798E+02  0.38441798798E+02  0.00000000000E+00 0. -1.
         23    2    1    2    0    0  0.00000000000E+00  0.00000000000E+00  0.23455996247E+02  0.10033959384E+03  0.97559470749E+02 0.  0.
        -11    1    3    3    0    0 -0.73027733959E+01  0.26035178676E+02  0.53484223915E+02  0.59930987275E+02  0.00000000000E+00 0.  1.
         11    1    3    3    0    0  0.73027733959E+01 -0.26035178676E+02 -0.30028227668E+02  0.40408606569E+02  0.00000000000E+00 0. -1.
<mgrwt>
<rscale>  0 0.97559471E+02</rscale>
<asrwt>0</asrwt>
<pdfrwt beam="2">  1        1 0.59141229E-02 0.97559471E+02</pdfrwt>
<pdfrwt beam="1">  1       -1 0.95227377E-02 0.97559471E+02</pdfrwt>
<totfact> 0.74311793E+04</totfact>
</mgrwt>
</event>
<event>
 5    1  0.1265228E+001  0.9185504E+02  0.7546771E-02  0.1298421E+00
         -1   -1    0    0    0  501 -0.00000000000E+00  0.00000000000E+00  0.57245484278E+02  0.57245484278E+02  0.00000000000E+00 0. -1.
          1   -1    0    0  501    0  0.00000000000E+00 -0.00000000000E+00 -0.36847222578E+02  0.36847222578E+02  0.00000000000E+00 0.  1.
         23    2    1    2    0    0  0.00000000000E+00  0.00000000000E+00  0.20398261699E+02  0.94092706856E+02  0.91855040162E+02 0.  0.
        -11    1    3    3    0    0  0.12270291121E+01  0.45896030876E+02  0.89932313825E+01  0.46784927716E+02  0.00000000000E+00 0. -1.
         11    1    3    3    0    0 -0.12270291121E+01 -0.45896030876E+02  0.11405030317E+02  0.47307779140E+02  0.00000000000E+00 0.  1.
<mgrwt>
<rscale>  0 0.91855040E+02</rscale>
<asrwt>0</asrwt>
<pdfrwt beam="2">  1        1 0.56688035E-02 0.91855040E+02</pdfrwt>
<pdfrwt beam="1">  1       -1 0.88069976E-02 0.91855040E+02</pdfrwt>
<totfact> 0.87667374E+04</totfact>
</mgrwt>
</event>
<event>
 5    1  0.1265228E+001  0.9056856E+02  0.7546771E-02  0.1301481E+00
          2   -1    0    0  501    0  0.00000000000E+00  0.00000000000E+00  0.32860099239E+02  0.32860099239E+02  0.00000000000E+00 0. -1.
         -2   -1    0    0    0  501 -0.00000000000E+00 -0.00000000000E+00 -0.62405962981E+02  0.62405962981E+02  0.00000000000E+00 0.  1.
         23    2    1    2    0    0  0.00000000000E+00  0.00000000000E+00 -0.29545863742E+02  0.95266062220E+02  0.90568562684E+02 0.  0.
        -11    1    3    3    0    0  0.15059071722E+02 -0.29194474131E+02  0.18013827745E+02  0.37464529237E+02  0.00000000000E+00 0. -1.
         11    1    3    3    0    0 -0.15059071722E+02  0.29194474131E+02 -0.47559691487E+02  0.57801532983E+02  0.00000000000E+00 0.  1.
<mgrwt>
<rscale>  0 0.90568563E+02</rscale>
<asrwt>0</asrwt>
<pdfrwt beam="1">  1        2 0.50553999E-02 0.90568563E+02</pdfrwt>
<pdfrwt beam="2">  1       -2 0.96009174E-02 0.90568563E+02</pdfrwt>
<totfact> 0.92427619E+04</totfact>
</mgrwt>
</event>
<event>
 5    1  0.1265228E+001  0.1031944E+03  0.7546771E-02  0.1273718E+00
          1   -1    0    0  501    0  0.00000000000E+00  0.00000000000E+00  0.11245461961E+02  0.11245461961E+02  0.00000000000E+00 0. -1.
         -1   -1    0    0    0  501 -0.00000000000E+00 -0.00000000000E+00 -0.23674190903E+03  0.23674190903E+03  0.00000000000E+00 0.  1.
         23    2    1    2    0    0  0.00000000000E+00  0.00000000000E+00 -0.22549644707E+03  0.24798737099E+03  0.10319442102E+03 0.  0.
        -11    1    3    3    0    0  0.18863507966E+02 -0.43515540820E+02 -0.16157557072E+03  0.16839269367E+03  0.00000000000E+00 0.  1.
         11    1    3    3    0    0 -0.18863507966E+02  0.43515540820E+02 -0.63920876343E+02  0.79594677323E+02  0.00000000000E+00 0. -1.
<mgrwt>
<rscale>  0 0.10319442E+03</rscale>
<asrwt>0</asrwt>
<pdfrwt beam="1">  1        1 0.17300711E-02 0.10319442E+03</pdfrwt>
<pdfrwt beam="2">  1       -1 0.36421831E-01 0.10319442E+03</pdfrwt>
<totfact> 0.47671862E+04</totfact>
</mgrwt>
</event>
<event>
 5    1  0.1265228E+001  0.7798889E+02  0.7546771E-02  0.1334858E+00
         -2   -1    0    0    0  501 -0.00000000000E+00  0.00000000000E+00  0.71016315040E+02  0.71016315040E+02  0.00000000000E+00 0. -1.
          2   -1    0    0  501    0  0.00000000000E+00 -0.00000000000E+00 -0.21411513591E+02  0.21411513591E+02  0.00000000000E+00 0.  1.
         23    2    1    2    0    0  0.00000000000E+00  0.00000000000E+00  0.49604801450E+02  0.92427828631E+02  0.77988891379E+02 0.  0.
        -11    1    3    3    0    0  0.14891546327E+02  0.30014298711E+02  0.11603829545E+01  0.33525553951E+02  0.00000000000E+00 0.  1.
         11    1    3    3    0    0 -0.14891546327E+02 -0.30014298711E+02  0.48444418495E+02  0.58902274680E+02  0.00000000000E+00 0. -1.
<mgrwt>
<rscale>  0 0.77988891E+02</rscale>
<asrwt>0</asrwt>
<pdfrwt beam="2">  1        2 0.32940791E-02 0.77988891E+02</pdfrwt>
<pdfrwt beam="1">  1       -2 0.10925587E-01 0.77988891E+02</pdfrwt>
<totfact> 0.12875990E+05</totfact>
</mgrwt>
</event>
<event>
 5    1  0.1265228E+001  0.8889067E+02  0.7546771E-02  0.1305561E+00
         -2   -1    0    0    0  501 -0.00000000000E+00  0.00000000000E+00  0.91390674145E+01  0.91390674145E+01  0.00000000000E+00 0.  1.
          2   -1    0    0  501    0  0.00000000000E+00 -0.00000000000E+00 -0.21614762674E+03  0.21614762674E+03  0.00000000000E+00 0. -1.
         23    2    1    2    0    0  0.00000000000E+00  0.00000000000E+00 -0.20700855933E+03  0.22528669416E+03  0.88890668403E+02 0.  0.
        -11    1    3    3    0    0 -0.38544285161E+01  0.34069508892E+02 -0.17517965612E+03  0.17850350129E+03  0.00000000000E+00 0.  1.
         11    1    3    3    0    0  0.38544285161E+01 -0.34069508892E+02 -0.31828903214E+02  0.46783192870E+02  0.00000000000E+00 0. -1.
<mgrwt>
<rscale>  0 0.88890668E+02</rscale>
<asrwt>0</asrwt>
<pdfrwt beam="2">  1        2 0.33253480E-01 0.88890668E+02</pdfrwt>
<pdfrwt beam="1">  1       -2 0.14060104E-02 0.88890668E+02</pdfrwt>
<totfact> 0.17032034E+05</totfact>
</mgrwt>
</event>
<event>
 4    1  0.1265228E+001  0.1428962E+03  0.7546771E-02  0.1209484E+00
         -2   -1    0    0    0  501 -0.00000000000E+00  0.00000000000E+00  0.34522079870E+03  0.34522079870E+03  0.00000000000E+00 0. -1.
          2   -1    0    0  501    0  0.00000000000E+00 -0.00000000000E+00 -0.14787152952E+02  0.14787152952E+02  0.00000000000E+00 0.  1.
        -11    1    1    2    0    0  0.57042555950E+02  0.15135017171E+02  0.26667915116E+03  0.27313127173E+03  0.00000000000E+00 0. -1.
         11    1    1    2    0    0 -0.57042555950E+02 -0.15135017171E+02  0.63754494594E+02  0.86876679926E+02  0.00000000000E+00 0.  1.
<mgrwt>
<rscale>  0 0.14289622E+03</rscale>
<asrwt>0</asrwt>
<pdfrwt beam="2">  1        2 0.22749469E-02 0.14289622E+03</pdfrwt>
<pdfrwt beam="1">  1       -2 0.53110886E-01 0.14289622E+03</pdfrwt>
<totfact> 0.14579469E+04</totfact>
</mgrwt>
</event>
<event>
 5    1  0.1265228E+001  0.9092378E+02  0.7546771E-02  0.1300630E+00
          3   -1    0    0  501    0  0.00000000000E+00  0.00000000000E+00  0.62354033376E+02  0.62354033376E+02  0.00000000000E+00 0. -1.
         -3   -1    0    0    0  501 -0.00000000000E+00 -0.00000000000E+00 -0.33145943094E+02  0.33145943094E+02  0.00000000000E+00 0.  1.
         23    2    1    2    0    0  0.00000000000E+00  0.00000000000E+00  0.29208090283E+02  0.95499976470E+02  0.90923775591E+02 0.  0.
        -11    1    3    3    0    0 -0.68636000051E+01  0.14799025596E+02  0.59173983454E+02  0.61381434338E+02  0.00000000000E+00 0. -1.
         11    1    3    3    0    0  0.68636000051E+01 -0.14799025596E+02 -0.29965893171E+02  0.34118542132E+02  0.00000000000E+00 0.  1.
<mgrwt>
<rscale>  0 0.90923776E+02</rscale>
<asrwt>0</asrwt>
<pdfrwt beam="1">  1        3 0.95929282E-02 0.90923776E+02</pdfrwt>
<pdfrwt beam="2">  1       -3 0.50993759E-02 0.90923776E+02</pdfrwt>
<totfact> 0.35274294E+04</totfact>
</mgrwt>
</event>
<event>
 5    1  0.1265228E+001  0.9146684E+02  0.7546771E-02  0.1299338E+00
          2   -1    0    0  501    0  0.00000000000E+00  0.00000000000E+00  0.47821835654E+02  0.47821835654E+02  0.00000000000E+00 0. -1.
         -2   -1    0    0    0  501 -0.00000000000E+00 -0.00000000000E+00 -0.43736211461E+02  0.43736211461E+02  0.00000000000E+00 0.  1.
         23    2    1    2    0    0  0.00000000000E+00  0.00000000000E+00  0.40856241935E+01  0.91558047115E+02  0.91466844630E+02 0.  0.
        -11    1    3    3    0    0  0.22969530939E+02  0.37827847314E+02 -0.95012728466E+01  0.45263888141E+02  0.00000000000E+00 0.  1.
         11    1    3    3    0    0 -0.22969530939E+02 -0.37827847314E+02  0.13586897040E+02  0.46294158974E+02  0.00000000000E+00 0. -1.
<mgrwt>
<rscale>  0 0.91466845E+02</rscale>
<asrwt>0</asrwt>
<pdfrwt beam="1">  1        2 0.73572055E-02 0.91466845E+02</pdfrwt>
<pdfrwt beam="2">  1       -2 0.67286479E-02 0.91466845E+02</pdfrwt>
<totfact> 0.99004545E+04</totfact>
</mgrwt>
</event>
<event>
 5    1  0.1265228E+001  0.8923539E+02  0.7546771E-02  0.1304714E+00
         -1   -1    0    0    0  501 -0.00000000000E+00  0.00000000000E+00  0.57977791037E+02  0.57977791037E+02  0.00000000000E+00 0.  1.
          1   -1    0    0  501    0  0.00000000000E+00 -0.00000000000E+00 -0.34336231861E+02  0.34336231861E+02  0.00000000000E+00 0. -1.
         23    2    1    2    0    0  0.00000000000E+00  0.00000000000E+00  0.23641559177E+02  0.92314022898E+02  0.89235393781E+02 0.  0.
        -11    1    3    3    0    0  0.27220319957E+02  0.25558865795E+02 -0.13445970488E+02  0.39686213748E+02  0.00000000000E+00 0. -1.
         11    1    3    3    0    0 -0.27220319957E+02 -0.25558865795E+02  0.37087529665E+02  0.52627809150E+02  0.00000000000E+00 0.  1.
<mgrwt>
<rscale>  0 0.89235394E+02</rscale>
<asrwt>0</asrwt>
<pdfrwt beam="2">  1        1 0.52824972E-02 0.89235394E+02</pdfrwt>
<pdfrwt beam="1">  1       -1 0.89196601E-02 0.89235394E+02</pdfrwt>
<totfact> 0.94142294E+04</totfact>
</mgrwt>
</event>
<event>
 5    1  0.1265228E+001  0.8986129E+02  0.7546771E-02  0.1303188E+00
         -1   -1    0    0    0  501 -0.00000000000E+00  0.00000000000E+00  0.37136804301E+02  0.37136804301E+02  0.00000000000E+00 0.  1.
          1   -1    0    0  501    0  0.00000000000E+00 -0.00000000000E+00 -0.54360168565E+02  0.54360168565E+02  0.00000000000E+00 0. -1.
         23    2    1    2    0    0  0.00000000000E+00  0.00000000000E+00 -0.17223364263E+02  0.91496972866E+02  0.89861291817E+02 0.  0.
        -11    1    3    3    0    0  0.10265510211E+02 -0.30541705423E+02  0.23272627429E+02  0.39746593030E+02  0.00000000000E+00 0.  1.
         11    1    3    3    0    0 -0.10265510211E+02  0.30541705423E+02 -0.40495991693E+02  0.51750379836E+02  0.00000000000E+00 0. -1.
<mgrwt>
<rscale>  0 0.89861292E+02</rscale>
<asrwt>0</asrwt>
<pdfrwt beam="2">  1        1 0.83631028E-02 0.89861292E+02</pdfrwt>
<pdfrwt beam="1">  1       -1 0.57133545E-02 0.89861292E+02</pdfrwt>
<totfact> 0.98862199E+04</totfact>
</mgrwt>
</event>
<event>
 5    1  0.1265228E+001  0.9103146E+02  0.7546771E-02  0.1300373E+00
          1   -1    0    0  501    0  0.00000000000E+00  0.00000000000E+00  0.29851973253E+02  0.29851973253E+02  0.00000000000E+00 0. -1.
         -1   -1    0    0    0  501 -0.00000000000E+00 -0.00000000000E+00 -0.69398480371E+02  0.69398480371E+02  0.00000000000E+00 0.  1.
         23    2    1    2    0    0  0.00000000000E+00  0.00000000000E+00 -0.39546507118E+02  0.99250453623E+02  0.91031457855E+02 0.  0.
        -11    1    3    3    0    0  0.29113823199E+01 -0.25313572378E+02 -0.60893548685E+02  0.66009676298E+02  0.00000000000E+00 0.  1.
         11    1    3    3    0    0 -0.29113823199E+01  0.25313572378E+02  0.21347041567E+02  0.33240777325E+02  0.00000000000E+00 0. -1.
<mgrwt>
<rscale>  0 0.91031458E+02</rscale>
<asrwt>0</asrwt>
<pdfrwt beam="1">  1        1 0.45926114E-02 0.91031458E+02</pdfrwt>
<pdfrwt beam="2">  1       -1 0.10676689E-01 0.91031458E+02</pdfrwt>
<totfact> 0.87013591E+04</totfact>
</mgrwt>
</event>
<event>
 5    1  0.1265228E+001  0.9178830E+02  0.7546771E-02  0.1298578E+00
          2   -1    0    0  501    0  0.00000000000E+00  0.00000000000E+00  0.12726900112E+03  0.12726900112E+03  0.00000000000E+00 0. -1.
         -2   -1    0    0    0  501 -0.00000000000E+00 -0.00000000000E+00 -0.16549770844E+02  0.16549770844E+02  0.00000000000E+00 0.  1.
         23    2    1    2    0    0  0.00000000000E+00  0.00000000000E+00  0.11071923028E+03  0.14381877197E+03  0.91788295640E+02 0.  0.
        -13    1    3    3    0    0  0.32773867580E+02 -0.31135154876E+02  0.42947949174E+02  0.62354234849E+02  0.00000000000E+00 0. -1.
         13    1    3    3    0    0 -0.32773867580E+02  0.31135154876E+02  0.67771281103E+02  0.81464537117E+02  0.00000000000E+00 0.  1.
<mgrwt>
<rscale>  0 0.91788296E+02</rscale>
<asrwt>0</asrwt>
<pdfrwt beam="1">  1        2 0.19579846E-01 0.91788296E+02</pdfrwt>
<pdfrwt beam="2">  1       -2 0.25461187E-02 0.91788296E+02</pdfrwt>
<totfact> 0.12996293E+05</totfact>
</mgrwt>
</event>
<event>
 5    1  0.1265228E+001  0.9133698E+02  0.7546771E-02  0.1299646E+00
         -2   -1    0    0    0  501 -0.00000000000E+00  0.00000000000E+00  0.17116128711E+03  0.17116128711E+03  0.00000000000E+00 0.  1.
          2   -1    0    0  501    0  0.00000000000E+00 -0.00000000000E+00 -0.12185061649E+02  0.12185061649E+02  0.00000000000E+00 0. -1.
         23    2    1    2    0    0  0.00000000000E+00  0.00000000000E+00  0.15897622546E+03  0.18334634876E+03  0.91336976856E+02 0.  0.
        -13    1    3    3    0    0 -0.45561074897E+02 -0.77051768109E+00  0.85578592352E+02  0.96954116531E+02  0.00000000000E+00 0.  1.
         13    1    3    3    0    0  0.45561074897E+02  0.77051768109E+00  0.73397633108E+02  0.86392232227E+02  0.00000000000E+00 0. -1.
<mgrwt>
<rscale>  0 0.91336977E+02</rscale>
<asrwt>0</asrwt>
<pdfrwt beam="2">  1        2 0.18746250E-02 0.91336977E+02</pdfrwt>
<pdfrwt beam="1">  1       -2 0.26332504E-01 0.91336977E+02</pdfrwt>
<totfact> 0.66159899E+04</totfact>
</mgrwt>
</event>
<event>
 5    1  0.1265228E+001  0.9160949E+02  0.7546771E-02  0.1299000E+00
          3   -1    0    0  501    0  0.00000000000E+00  0.00000000000E+00  0.15512382289E+02  0.15512382289E+02  0.00000000000E+00 0. -1.
         -3   -1    0    0    0  501 -0.00000000000E+00 -0.00000000000E+00 -0.13525160741E+03  0.13525160741E+03  0.00000000000E+00 0.  1.
         23    2    1    2    0    0  0.00000000000E+00  0.00000000000E+00 -0.11973922512E+03  0.15076398970E+03  0.91609489452E+02 0.  0.
        -11    1    3    3    0    0 -0.20114805699E+02  0.40898860891E+02 -0.67366679992E+02  0.81336288356E+02  0.00000000000E+00 0.  1.
         11    1    3    3    0    0  0.20114805699E+02 -0.40898860891E+02 -0.52372545133E+02  0.69427701346E+02  0.00000000000E+00 0. -1.
<mgrwt>
<rscale>  0 0.91609489E+02</rscale>
<asrwt>0</asrwt>
<pdfrwt beam="1">  1        3 0.23865204E-02 0.91609489E+02</pdfrwt>
<pdfrwt beam="2">  1       -3 0.20807940E-01 0.91609489E+02</pdfrwt>
<totfact> 0.30862473E+04</totfact>
</mgrwt>
</event>
<event>
 5    1  0.1265228E+001  0.9030155E+02  0.7546771E-02  0.1302123E+00
         -2   -1    0    0    0  501 -0.00000000000E+00  0.00000000000E+00  0.98103885803E+01  0.98103885803E+01  0.00000000000E+00 0.  1.
          2   -1    0    0  501    0  0.00000000000E+00 -0.00000000000E+00 -0.20779934125E+03  0.20779934125E+03  0.00000000000E+00 0. -1.
         23    2    1    2    0    0  0.00000000000E+00  0.00000000000E+00 -0.19798895267E+03  0.21760972983E+03  0.90301545600E+02 0.  0.
        -11    1    3    3    0    0 -0.39916918329E+02  0.72279634857E+01 -0.14676643243E+03  0.15226946350E+03  0.00000000000E+00 0.  1.
         11    1    3    3    0    0  0.39916918329E+02 -0.72279634857E+01 -0.51222520242E+02  0.65340266337E+02  0.00000000000E+00 0. -1.
<mgrwt>
<rscale>  0 0.90301546E+02</rscale>
<asrwt>0</asrwt>
<pdfrwt beam="2">  1        2 0.31969126E-01 0.90301546E+02</pdfrwt>
<pdfrwt beam="1">  1       -2 0.15092907E-02 0.90301546E+02</pdfrwt>
<totfact> 0.16095854E+05</totfact>
</mgrwt>
</event>
<event>
 5    1  0.1265228E+001  0.8793094E+02  0.7546771E-02  0.1307941E+00
          1   -1    0    0  501    0  0.00000000000E+00  0.00000000000E+00  0.94787840257E+02  0.94787840257E+02  0.00000000000E+00 0. -1.
         -1   -1    0    0    0  501 -0.00000000000E+00 -0.00000000000E+00 -0.20392518099E+02  0.20392518099E+02  0.00000000000E+00 0.  1.
         23    2    1    2    0    0  0.00000000000E+00  0.00000000000E+00  0.74395322157E+02  0.11518035836E+03  0.87930944452E+02 0.  0.
        -13    1    3    3    0    0  0.43122679622E+02  0.39325117102E+01  0.27227591142E+02  0.51150482554E+02  0.00000000000E+00 0. -1.
         13    1    3    3    0    0 -0.43122679622E+02 -0.39325117102E+01  0.47167731015E+02  0.64029875802E+02  0.00000000000E+00 0.  1.
<mgrwt>
<rscale>  0 0.87930944E+02</rscale>
<asrwt>0</asrwt>
<pdfrwt beam="1">  1        1 0.14582744E-01 0.87930944E+02</pdfrwt>
<pdfrwt beam="2">  1       -1 0.31373105E-02 0.87930944E+02</pdfrwt>
<totfact> 0.11426720E+05</totfact>
</mgrwt>
</event>
<event>
 5    1  0.1265228E+001  0.9363473E+02  0.7546771E-02  0.1294281E+00
          2   -1    0    0  501    0  0.00000000000E+00  0.00000000000E+00  0.16791130263E+02  0.16791130263E+02  0.00000000000E+00 0. -1.
         -2   -1    0    0    0  501 -0.00000000000E+00 -0.00000000000E+00 -0.13053712563E+03  0.13053712563E+03  0.00000000000E+00 0.  1.
         23    2    1    2    0    0  0.00000000000E+00  0.00000000000E+00 -0.11374599537E+03  0.14732825590E+03  0.93634734595E+02 0.  0.
        -13    1    3    3    0    0 -0.14017985729E+02 -0.23962044930E+02 -0.11618928606E+03  0.11945975772E+03  0.00000000000E+00 0.  1.
         13    1    3    3    0    0  0.14017985729E+02  0.23962044930E+02  0.24432906843E+01  0.27868498174E+02  0.00000000000E+00 0. -1.
<mgrwt>
<rscale>  0 0.93634735E+02</rscale>
<asrwt>0</asrwt>
<pdfrwt beam="1">  1        2 0.25832507E-02 0.93634735E+02</pdfrwt>
<pdfrwt beam="2">  1       -2 0.20082636E-01 0.93634735E+02</pdfrwt>
<totfact> 0.68588948E+04</totfact>
</mgrwt>
</event>
<event>
 5    1  0.1265228E+001  0.9200918E+02  0.7546771E-02  0.1298058E+00
          2   -1    0    0  501    0  0.00000000000E+00  0.00000000000E+00  0.46446969468E+02  0.46446969468E+02  0.00000000000E+00 0. -1.
         -2   -1    0    0    0  501 -0.00000000000E+00 -0.00000000000E+00 -0.45566427283E+02  0.45566427283E+02  0.00000000000E+00 0.  1.
         23    2    1    2    0    0  0.00000000000E+00  0.00000000000E+00  0.88054218404E+00  0.92013396751E+02  0.92009183385E+02 0.  0.
        -13    1    3    3    0    0  0.37074280110E+02  0.11830384176E+02  0.24976313027E+02  0.46241501358E+02  0.00000000000E+00 0.  1.
         13    1    3    3    0    0 -0.37074280110E+02 -0.11830384176E+02 -0.24095770843E+02  0.45771895393E+02  0.00000000000E+00 0. -1.
<mgrwt>
<rscale>  0 0.92009183E+02</rscale>
<asrwt>0</asrwt>
<pdfrwt beam="1">  1        2 0.71456876E-02 0.92009183E+02</pdfrwt>
<pdfrwt beam="2">  1       -2 0.70102196E-02 0.92009183E+02</pdfrwt>
<totfact> 0.96599953E+04</totfact>
</mgrwt>
</event>
<event>
 5    1  0.1265228E+001  0.9043173E+02  0.7546771E-02  0.1301810E+00
          1   -1    0    0  501    0  0.00000000000E+00  0.00000000000E+00  0.14203820642E+03  0.14203820642E+03  0.00000000000E+00 0. -1.
         -1   -1    0    0    0  501 -0.00000000000E+00 -0.00000000000E+00 -0.14393835781E+02  0.14393835781E+02  0.00000000000E+00 0.  1.
         23    2    1    2    0    0  0.00000000000E+00  0.00000000000E+00  0.12764437064E+03  0.15643204220E+03  0.90431733765E+02 0.  0.
        -13    1    3    3    0    0  0.16701593104E+02 -0.25610577372E+02  0.61994460007E+01  0.31197403998E+02  0.00000000000E+00 0.  1.
         13    1    3    3    0    0 -0.16701593104E+02  0.25610577372E+02  0.12144492464E+03  0.12523463821E+03  0.00000000000E+00 0. -1.
<mgrwt>
<rscale>  0 0.90431734E+02</rscale>
<asrwt>0</asrwt>
<pdfrwt beam="1">  1        1 0.21852031E-01 0.90431734E+02</pdfrwt>
<pdfrwt beam="2">  1       -1 0.22144364E-02 0.90431734E+02</pdfrwt>
<totfact> 0.11350620E+05</totfact>
</mgrwt>
</event>
<event>
 5    1  0.1265228E+001  0.8600163E+02  0.7546771E-02  0.1312834E+00
         -1   -1    0    0    0  501 -0.00000000000E+00  0.00000000000E+00  0.40024949047E+02  0.40024949047E+02  0.00000000000E+00 0.  1.
          1   -1    0    0  501    0  0.00000000000E+00 -0.00000000000E+00 -0.46197937952E+02  0.46197937952E+02  0.00000000000E+00 0. -1.
         23    2    1    2    0    0  0.00000000000E+00  0.00000000000E+00 -0.61729889051E+01  0.86222886999E+02  0.86001630510E+02 0.  0.
        -11    1    3    3    0    0  0.14378660006E+02  0.12067879676E+02  0.35700120638E+02  0.40334578180E+02  0.00000000000E+00 0.  1.
         11    1    3    3    0    0 -0.14378660006E+02 -0.12067879676E+02 -0.41873109543E+02  0.45888308819E+02  0.00000000000E+00 0. -1.
<mgrwt>
<rscale>  0 0.86001631E+02</rscale>
<asrwt>0</asrwt>
<pdfrwt beam="2">  1        1 0.71073751E-02 0.86001631E+02</pdfrwt>
<pdfrwt beam="1">  1       -1 0.61576845E-02 0.86001631E+02</pdfrwt>
<totfact> 0.10906229E+05</totfact>
</mgrwt>
</event>
<event>
 5    1  0.1265228E+001  0.9135764E+02  0.7546771E-02  0.1299597E+00
          2   -1    0    0  501    0  0.00000000000E+00  0.00000000000E+00  0.10143217210E+03  0.10143217210E+03  0.00000000000E+00 0. -1.
         -2   -1    0    0    0  501 -0.00000000000E+00 -0.00000000000E+00 -0.20570934079E+02  0.20570934079E+02  0.00000000000E+00 0.  1.
         23    2    1    2    0    0  0.00000000000E+00  0.00000000000E+00  0.80861238019E+02  0.12200310618E+03  0.91357638448E+02 0.  0.
        -11    1    3    3    0    0 -0.30986713666E+02 -0.25492504286E+02  0.69582204615E+02  0.80322645609E+02  0.00000000000E+00 0. -1.
         11    1    3    3    0    0  0.30986713666E+02  0.25492504286E+02  0.11279033405E+02  0.41680460568E+02  0.00000000000E+00 0.  1.
<mgrwt>
<rscale>  0 0.91357638E+02</rscale>
<asrwt>0</asrwt>
<pdfrwt beam="1">  1        2 0.15604949E-01 0.91357638E+02</pdfrwt>
<pdfrwt beam="2">  1       -2 0.31647592E-02 0.91357638E+02</pdfrwt>
<totfact> 0.12253914E+05</totfact>
</mgrwt>
</event>
<event>
 5    1  0.1265228E+001  0.9532777E+02  0.7546771E-02  0.1290440E+00
          1   -1    0    0  501    0  0.00000000000E+00  0.00000000000E+00  0.14210517101E+02  0.14210517101E+02  0.00000000000E+00 0. -1.
         -1   -1    0    0    0  501 -0.00000000000E+00 -0.00000000000E+00 -0.15987073427E+03  0.15987073427E+03  0.00000000000E+00 0.  1.
         23    2    1    2    0    0  0.00000000000E+00  0.00000000000E+00 -0.14566021717E+03  0.17408125138E+03  0.95327767275E+02 0.  0.
        -13    1    3    3    0    0 -0.35124960772E+02  0.18733534285E+02 -0.12069911841E+03  0.12709439548E+03  0.00000000000E+00 0.  1.
         13    1    3    3    0    0  0.35124960772E+02 -0.18733534285E+02 -0.24961098762E+02  0.46986855901E+02  0.00000000000E+00 0. -1.
<mgrwt>
<rscale>  0 0.95327767E+02</rscale>
<asrwt>0</asrwt>
<pdfrwt beam="1">  1        1 0.21862333E-02 0.95327767E+02</pdfrwt>
<pdfrwt beam="2">  1       -1 0.24595498E-01 0.95327767E+02</pdfrwt>
<totfact> 0.65598011E+04</totfact>
</mgrwt>
</event>
<event>
 5    1  0.1265228E+001  0.1005014E+03  0.7546771E-02  0.1279245E+00
         -2   -1    0    0    0  501 -0.00000000000E+00  0.00000000000E+00  0.14710707540E+03  0.14710707540E+03  0.00000000000E+00 0.  1.
          2   -1    0    0  501    0  0.00000000000E+00 -0.00000000000E+00 -0.17165270783E+02  0.17165270783E+02  0.00000000000E+00 0. -1.
         23    2    1    2    0    0  0.00000000000E+00  0.00000000000E+00  0.12994180461E+03  0.16427234618E+03  0.10050139866E+03 0.  0.
        -11    1    3    3    0    0 -0.33993062245E+02 -0.14537445964E+02  0.93424820438E+01  0.38133287122E+02  0.00000000000E+00 0. -1.
         11    1    3    3    0    0  0.33993062245E+02  0.14537445964E+02  0.12059932257E+03  0.12613905906E+03  0.00000000000E+00 0.  1.
<mgrwt>
<rscale>  0 0.10050140E+03</rscale>
<asrwt>0</asrwt>
<pdfrwt beam="2">  1        2 0.26408110E-02 0.10050140E+03</pdfrwt>
<pdfrwt beam="1">  1       -2 0.22631857E-01 0.10050140E+03</pdfrwt>
<totfact> 0.54979479E+04</totfact>
</mgrwt>
</event>
<event>
 5    1  0.1265228E+001  0.9183627E+02  0.7546771E-02  0.1298465E+00
         -3   -1    0    0    0  501 -0.00000000000E+00  0.00000000000E+00  0.96827143320E+02  0.96827143320E+02  0.00000000000E+00 0.  1.
          3   -1    0    0  501    0  0.00000000000E+00 -0.00000000000E+00 -0.21775660502E+02  0.21775660502E+02  0.00000000000E+00 0. -1.
         23    2    1    2    0    0  0.00000000000E+00  0.00000000000E+00  0.75051482818E+02  0.11860280382E+03  0.91836267354E+02 0.  0.
        -11    1    3    3    0    0 -0.21884547774E+02 -0.20025035669E+02  0.82792072677E+02  0.87945794572E+02  0.00000000000E+00 0.  1.
         11    1    3    3    0    0  0.21884547774E+02  0.20025035669E+02 -0.77405898593E+01  0.30657009250E+02  0.00000000000E+00 0. -1.
<mgrwt>
<rscale>  0 0.91836267E+02</rscale>
<asrwt>0</asrwt>
<pdfrwt beam="2">  1        3 0.33501017E-02 0.91836267E+02</pdfrwt>
<pdfrwt beam="1">  1       -3 0.14896483E-01 0.91836267E+02</pdfrwt>
<totfact> 0.32696169E+04</totfact>
</mgrwt>
</event>
<event>
 5    1  0.1265228E+001  0.8753242E+02  0.7546771E-02  0.1308940E+00
         -1   -1    0    0    0  501 -0.00000000000E+00  0.00000000000E+00  0.44999563453E+01  0.44999563453E+01  0.00000000000E+00 0.  1.
          1   -1    0    0  501    0  0.00000000000E+00 -0.00000000000E+00 -0.42566665037E+03  0.42566665037E+03  0.00000000000E+00 0. -1.
         23    2    1    2    0    0  0.00000000000E+00  0.00000000000E+00 -0.42116669403E+03  0.43016660672E+03  0.87532424719E+02 0.  0.
        -11    1    3    3    0    0  0.29627612145E+02  0.31963513807E+02 -0.19091375717E+03  0.19582523917E+03  0.00000000000E+00 0.  1.
         11    1    3    3    0    0 -0.29627612145E+02 -0.31963513807E+02 -0.23025293685E+03  0.23434136755E+03  0.00000000000E+00 0. -1.
<mgrwt>
<rscale>  0 0.87532425E+02</rscale>
<asrwt>0</asrwt>
<pdfrwt beam="2">  1        1 0.65487204E-01 0.87532425E+02</pdfrwt>
<pdfrwt beam="1">  1       -1 0.69230069E-03 0.87532425E+02</pdfrwt>
<totfact> 0.15176499E+05</totfact>
</mgrwt>
</event>
<event>
 5    1  0.1265228E+001  0.8817826E+02  0.7546771E-02  0.1307324E+00
          4   -1    0    0  501    0  0.00000000000E+00  0.00000000000E+00  0.17678807039E+02  0.17678807039E+02  0.00000000000E+00 0. -1.
         -4   -1    0    0    0  501 -0.00000000000E+00 -0.00000000000E+00 -0.10995375988E+03  0.10995375988E+03  0.00000000000E+00 0.  1.
         23    2    1    2    0    0  0.00000000000E+00  0.00000000000E+00 -0.92274952838E+02  0.12763256692E+03  0.88178258183E+02 0.  0.
        -13    1    3    3    0    0 -0.30925930048E+02 -0.19273833171E+02 -0.10214247555E+02  0.37844743989E+02  0.00000000000E+00 0. -1.
         13    1    3    3    0    0  0.30925930048E+02  0.19273833171E+02 -0.82060705283E+02  0.89787822927E+02  0.00000000000E+00 0.  1.
<mgrwt>
<rscale>  0 0.88178258E+02</rscale>
<asrwt>0</asrwt>
<pdfrwt beam="1">  1        4 0.27198164E-02 0.88178258E+02</pdfrwt>
<pdfrwt beam="2">  1       -4 0.16915963E-01 0.88178258E+02</pdfrwt>
<totfact> 0.27183507E+04</totfact>
</mgrwt>
</event>
<event>
 5    1  0.1265228E+001  0.9236007E+02  0.7546771E-02  0.1297235E+00
         -2   -1    0    0    0  501 -0.00000000000E+00  0.00000000000E+00  0.16842056837E+02  0.16842056837E+02  0.00000000000E+00 0.  1.
          2   -1    0    0  501    0  0.00000000000E+00 -0.00000000000E+00 -0.12662322195E+03  0.12662322195E+03  0.00000000000E+00 0. -1.
         23    2    1    2    0    0  0.00000000000E+00  0.00000000000E+00 -0.10978116512E+03  0.14346527879E+03  0.92360067152E+02 0.  0.
        -11    1    3    3    0    0 -0.15792054287E+02 -0.12147300357E+02  0.98227246069E+01  0.22213324904E+02  0.00000000000E+00 0.  1.
         11    1    3    3    0    0  0.15792054287E+02  0.12147300357E+02 -0.11960388972E+03  0.12125195389E+03  0.00000000000E+00 0. -1.
<mgrwt>
<rscale>  0 0.92360067E+02</rscale>
<asrwt>0</asrwt>
<pdfrwt beam="2">  1        2 0.19480496E-01 0.92360067E+02</pdfrwt>
<pdfrwt beam="1">  1       -2 0.25910856E-02 0.92360067E+02</pdfrwt>
<totfact> 0.12756222E+05</totfact>
</mgrwt>
</event>
<event>
 5    1  0.1265228E+001  0.9001964E+02  0.7546771E-02  0.1302804E+00
          2   -1    0    0  501    0  0.00000000000E+00  0.00000000000E+00  0.11023778984E+03  0.11023778984E+03  0.00000000000E+00 0. -1.
         -2   -1    0    0    0  501 -0.00000000000E+00 -0.00000000000E+00 -0.18377399833E+02  0.18377399833E+02  0.00000000000E+00 0.  1.
         23    2    1    2    0    0  0.00000000000E+00  0.00000000000E+00  0.91860390006E+02  0.12861518967E+03  0.90019640980E+02 0.  0.
        -13    1    3    3    0    0 -0.29060899433E+02 -0.28785001287E+02  0.19095176729E+02  0.45141310894E+02  0.00000000000E+00 0.  1.
         13    1    3    3    0    0  0.29060899433E+02  0.28785001287E+02  0.72765213277E+02  0.83473878777E+02  0.00000000000E+00 0. -1.
<mgrwt>
<rscale>  0 0.90019641E+02</rscale>
<asrwt>0</asrwt>
<pdfrwt beam="1">  1        2 0.16959660E-01 0.90019641E+02</pdfrwt>
<pdfrwt beam="2">  1       -2 0.28272923E-02 0.90019641E+02</pdfrwt>
<totfact> 0.13092279E+05</totfact>
</mgrwt>
</event>
<event>
 5    1  0.1265228E+001  0.9212654E+02  0.7546771E-02  0.1297782E+00
          3   -1    0    0  501    0  0.00000000000E+00  0.00000000000E+00  0.30270230967E+03  0.30270230967E+03  0.00000000000E+00 0. -1.
         -3   -1    0    0    0  501 -0.00000000000E+00 -0.00000000000E+00 -0.70096095366E+01  0.70096095366E+01  0.00000000000E+00 0.  1.
         23    2    1    2    0    0  0.00000000000E+00  0.00000000000E+00  0.29569270014E+03  0.30971191921E+03  0.92126543334E+02 0.  0.
        -13    1    3    3    0    0 -0.38100665209E+02  0.22473542321E+02  0.10464948723E+03  0.11361441798E+03  0.00000000000E+00 0.  1.
         13    1    3    3    0    0  0.38100665209E+02 -0.22473542321E+02  0.19104321290E+03  0.19609750123E+03  0.00000000000E+00 0. -1.
<mgrwt>
<rscale>  0 0.92126543E+02</rscale>
<asrwt>0</asrwt>
<pdfrwt beam="1">  1        3 0.46569576E-01 0.92126543E+02</pdfrwt>
<pdfrwt beam="2">  1       -3 0.10784017E-02 0.92126543E+02</pdfrwt>
<totfact> 0.23010333E+04</totfact>
</mgrwt>
</event>
<event>
 5    1  0.1265228E+001  0.9146404E+02  0.7546771E-02  0.1299345E+00
         -2   -1    0    0    0  501 -0.00000000000E+00  0.00000000000E+00  0.10091485517E+02  0.10091485517E+02  0.00000000000E+00 0.  1.
          2   -1    0    0  501    0  0.00000000000E+00 -0.00000000000E+00 -0.20724577000E+03  0.20724577000E+03  0.00000000000E+00 0. -1.
         23    2    1    2    0    0  0.00000000000E+00  0.00000000000E+00 -0.19715428449E+03  0.21733725552E+03  0.91464040724E+02 0.  0.
        -11    1    3    3    0    0  0.20734958939E+02  0.40745215862E+02 -0.10129324735E+03  0.11113250243E+03  0.00000000000E+00 0.  1.
         11    1    3    3    0    0 -0.20734958939E+02 -0.40745215862E+02 -0.95861037136E+02  0.10620475309E+03  0.00000000000E+00 0. -1.
<mgrwt>
<rscale>  0 0.91464041E+02</rscale>
<asrwt>0</asrwt>
<pdfrwt beam="2">  1        2 0.31883965E-01 0.91464041E+02</pdfrwt>
<pdfrwt beam="1">  1       -2 0.15525362E-02 0.91464041E+02</pdfrwt>
<totfact> 0.15536709E+05</totfact>
</mgrwt>
</event>
<event>
 5    1  0.1265228E+001  0.9173113E+02  0.7546771E-02  0.1298713E+00
         -2   -1    0    0    0  501 -0.00000000000E+00  0.00000000000E+00  0.20340341852E+02  0.20340341852E+02  0.00000000000E+00 0.  1.
          2   -1    0    0  501    0  0.00000000000E+00 -0.00000000000E+00 -0.10342254257E+03  0.10342254257E+03  0.00000000000E+00 0. -1.
         23    2    1    2    0    0  0.00000000000E+00  0.00000000000E+00 -0.83082200714E+02  0.12376288442E+03  0.91731126038E+02 0.  0.
        -13    1    3    3    0    0  0.41923190902E+01 -0.28618811560E+02 -0.89566226074E+02  0.94120777555E+02  0.00000000000E+00 0. -1.
         13    1    3    3    0    0 -0.41923190902E+01  0.28618811560E+02  0.64840253595E+01  0.29642106864E+02  0.00000000000E+00 0.  1.
<mgrwt>
<rscale>  0 0.91731126E+02</rscale>
<asrwt>0</asrwt>
<pdfrwt beam="2">  1        2 0.15911161E-01 0.91731126E+02</pdfrwt>
<pdfrwt beam="1">  1       -2 0.31292833E-02 0.91731126E+02</pdfrwt>
<totfact> 0.12189474E+05</totfact>
</mgrwt>
</event>
<event>
 5    1  0.1265228E+001  0.9187529E+02  0.7546771E-02  0.1298373E+00
         -3   -1    0    0    0  501 -0.00000000000E+00  0.00000000000E+00  0.22418366006E+02  0.22418366006E+02  0.00000000000E+00 0.  1.
          3   -1    0    0  501    0  0.00000000000E+00 -0.00000000000E+00 -0.94131176084E+02  0.94131176084E+02  0.00000000000E+00 0. -1.
         23    2    1    2    0    0  0.00000000000E+00  0.00000000000E+00 -0.71712810079E+02  0.11654954209E+03  0.91875288473E+02 0.  0.
        -11    1    3    3    0    0  0.21994285701E+02  0.30276783866E+02 -0.69654368649E+02  0.79070622336E+02  0.00000000000E+00 0. -1.
         11    1    3    3    0    0 -0.21994285701E+02 -0.30276783866E+02 -0.20584414300E+01  0.37478919754E+02  0.00000000000E+00 0.  1.
<mgrwt>
<rscale>  0 0.91875288E+02</rscale>
<asrwt>0</asrwt>
<pdfrwt beam="2">  1        3 0.14481719E-01 0.91875288E+02</pdfrwt>
<pdfrwt beam="1">  1       -3 0.34489795E-02 0.91875288E+02</pdfrwt>
<totfact> 0.32795506E+04</totfact>
</mgrwt>
</event>
<event>
 5    1  0.1265228E+001  0.9779364E+02  0.7546771E-02  0.1285005E+00
          4   -1    0    0  501    0  0.00000000000E+00  0.00000000000E+00  0.32814933656E+02  0.32814933656E+02  0.00000000000E+00 0. -1.
         -4   -1    0    0    0  501 -0.00000000000E+00 -0.00000000000E+00 -0.72860086628E+02  0.72860086628E+02  0.00000000000E+00 0.  1.
         23    2    1    2    0    0  0.00000000000E+00  0.00000000000E+00 -0.40045152972E+02  0.10567502028E+03  0.97793638012E+02 0.  0.
        -13    1    3    3    0    0 -0.12092488533E+02  0.16953899890E+02 -0.67828677496E+02  0.70953452990E+02  0.00000000000E+00 0.  1.
         13    1    3    3    0    0  0.12092488533E+02 -0.16953899890E+02  0.27783524524E+02  0.34721567294E+02  0.00000000000E+00 0. -1.
<mgrwt>
<rscale>  0 0.97793638E+02</rscale>
<asrwt>0</asrwt>
<pdfrwt beam="1">  1        4 0.50484514E-02 0.97793638E+02</pdfrwt>
<pdfrwt beam="2">  1       -4 0.11209244E-01 0.97793638E+02</pdfrwt>
<totfact> 0.21573091E+04</totfact>
</mgrwt>
</event>
<event>
 5    1  0.1265228E+001  0.9129652E+02  0.7546771E-02  0.1299742E+00
         -1   -1    0    0    0  501 -0.00000000000E+00  0.00000000000E+00  0.93760145786E+02  0.93760145786E+02  0.00000000000E+00 0.  1.
          1   -1    0    0  501    0  0.00000000000E+00 -0.00000000000E+00 -0.22224409062E+02  0.22224409062E+02  0.00000000000E+00 0. -1.
         23    2    1    2    0    0  0.00000000000E+00  0.00000000000E+00  0.71535736724E+02  0.11598455485E+03  0.91296524220E+02 0.  0.
        -13    1    3    3    0    0 -0.13563626023E+02  0.39350704052E+02  0.11955991483E+02  0.43305837858E+02  0.00000000000E+00 0. -1.
         13    1    3    3    0    0  0.13563626023E+02 -0.39350704052E+02  0.59579745240E+02  0.72678716989E+02  0.00000000000E+00 0.  1.
<mgrwt>
<rscale>  0 0.91296524E+02</rscale>
<asrwt>0</asrwt>
<pdfrwt beam="2">  1        1 0.34191399E-02 0.91296524E+02</pdfrwt>
<pdfrwt beam="1">  1       -1 0.14424638E-01 0.91296524E+02</pdfrwt>
<totfact> 0.82059300E+04</totfact>
</mgrwt>
</event>
<event>
 5    1  0.1265228E+001  0.8956678E+02  0.7546771E-02  0.1303904E+00
          4   -1    0    0  501    0  0.00000000000E+00  0.00000000000E+00  0.13099801718E+02  0.13099801718E+02  0.00000000000E+00 0. -1.
         -4   -1    0    0    0  501 -0.00000000000E+00 -0.00000000000E+00 -0.15309790009E+03  0.15309790009E+03  0.00000000000E+00 0.  1.
         23    2    1    2    0    0  0.00000000000E+00  0.00000000000E+00 -0.13999809837E+03  0.16619770181E+03  0.89566782563E+02 0.  0.
        -11    1    3    3    0    0 -0.31620284501E+02 -0.11445766331E+02 -0.12487835893E+03  0.12932692097E+03  0.00000000000E+00 0.  1.
         11    1    3    3    0    0  0.31620284501E+02  0.11445766331E+02 -0.15119739444E+02  0.36870780839E+02  0.00000000000E+00 0. -1.
<mgrwt>
<rscale>  0 0.89566783E+02</rscale>
<asrwt>0</asrwt>
<pdfrwt beam="1">  1        4 0.20153540E-02 0.89566783E+02</pdfrwt>
<pdfrwt beam="2">  1       -4 0.23553524E-01 0.89566783E+02</pdfrwt>
<totfact> 0.24004034E+04</totfact>
</mgrwt>
</event>
<event>
 5    1  0.1265228E+001  0.9090027E+02  0.7546771E-02  0.1300686E+00
          1   -1    0    0  501    0  0.00000000000E+00  0.00000000000E+00  0.97159223192E+02  0.97159223192E+02  0.00000000000E+00 0. -1.
         -1   -1    0    0    0  501 -0.00000000000E+00 -0.00000000000E+00 -0.21261129070E+02  0.21261129070E+02  0.00000000000E+00 0.  1.
         23    2    1    2    0    0  0.00000000000E+00  0.00000000000E+00  0.75898094122E+02  0.11842035226E+03  0.90900270289E+02 0.  0.
        -11    1    3    3    0    0  0.41649006425E+02 -0.18195456375E+02  0.37975608999E+02  0.59227200236E+02  0.00000000000E+00 0. -1.
         11    1    3    3    0    0 -0.41649006425E+02  0.18195456375E+02  0.37922485123E+02  0.59193152027E+02  0.00000000000E+00 0.  1.
<mgrwt>
<rscale>  0 0.90900270E+02</rscale>
<asrwt>0</asrwt>
<pdfrwt beam="1">  1        1 0.14947573E-01 0.90900270E+02</pdfrwt>
<pdfrwt beam="2">  1       -1 0.32709430E-02 0.90900270E+02</pdfrwt>
<totfact> 0.10481926E+05</totfact>
</mgrwt>
</event>
<event>
 5    1  0.1265228E+001  0.9163158E+02  0.7546771E-02  0.1298948E+00
          1   -1    0    0  501    0  0.00000000000E+00  0.00000000000E+00  0.17479068795E+02  0.17479068795E+02  0.00000000000E+00 0. -1.
         -1   -1    0    0    0  501 -0.00000000000E+00 -0.00000000000E+00 -0.12009143648E+03  0.12009143648E+03  0.00000000000E+00 0.  1.
         23    2    1    2    0    0  0.00000000000E+00  0.00000000000E+00 -0.10261236769E+03  0.13757050528E+03  0.91631577088E+02 0.  0.
        -11    1    3    3    0    0  0.19954115626E+02 -0.19538076715E+02 -0.10583583818E+03  0.10945833826E+03  0.00000000000E+00 0.  1.
         11    1    3    3    0    0 -0.19954115626E+02  0.19538076715E+02  0.32234704931E+01  0.28112167013E+02  0.00000000000E+00 0. -1.
<mgrwt>
<rscale>  0 0.91631577E+02</rscale>
<asrwt>0</asrwt>
<pdfrwt beam="1">  1        1 0.26890877E-02 0.91631577E+02</pdfrwt>
<pdfrwt beam="2">  1       -1 0.18475605E-01 0.91631577E+02</pdfrwt>
<totfact> 0.77513975E+04</totfact>
</mgrwt>
</event>
<event>
 5    1  0.1265228E+001  0.9462653E+02  0.7546771E-02  0.1292019E+00
         -1   -1    0    0    0  501 -0.00000000000E+00  0.00000000000E+00  0.93631462426E+01  0.93631462426E+01  0.00000000000E+00 0.  1.
          1   -1    0    0  501    0  0.00000000000E+00 -0.00000000000E+00 -0.23908043749E+03  0.23908043749E+03  0.00000000000E+00 0. -1.
         23    2    1    2    0    0  0.00000000000E+00  0.00000000000E+00 -0.22971729124E+03  0.24844358373E+03  0.94626531162E+02 0.  0.
        -13    1    3    3    0    0 -0.25279976678E+02 -0.38559112767E+02 -0.14272659071E+03  0.14998920659E+03  0.00000000000E+00 0. -1.
         13    1    3    3    0    0  0.25279976678E+02  0.38559112767E+02 -0.86990700534E+02  0.98454377137E+02  0.00000000000E+00 0.  1.
<mgrwt>
<rscale>  0 0.94626531E+02</rscale>
<asrwt>0</asrwt>
<pdfrwt beam="2">  1        1 0.36781608E-01 0.94626531E+02</pdfrwt>
<pdfrwt beam="1">  1       -1 0.14404839E-02 0.94626531E+02</pdfrwt>
<totfact> 0.11098135E+05</totfact>
</mgrwt>
</event>
<event>
 5    1  0.1265228E+001  0.9255122E+02  0.7546771E-02  0.1296789E+00
          4   -1    0    0  501    0  0.00000000000E+00  0.00000000000E+00  0.26233055929E+02  0.26233055929E+02  0.00000000000E+00 0. -1.
         -4   -1    0    0    0  501 -0.00000000000E+00 -0.00000000000E+00 -0.81631060260E+02  0.81631060260E+02  0.00000000000E+00 0.  1.
         23    2    1    2    0    0  0.00000000000E+00  0.00000000000E+00 -0.55398004332E+02  0.10786411619E+03  0.92551221911E+02 0.  0.
        -11    1    3    3    0    0 -0.39761565417E+02 -0.15269447057E+02 -0.66144732712E+01  0.43103240650E+02  0.00000000000E+00 0. -1.
         11    1    3    3    0    0  0.39761565417E+02  0.15269447057E+02 -0.48783531061E+02  0.64760875539E+02  0.00000000000E+00 0.  1.
<mgrwt>
<rscale>  0 0.92551222E+02</rscale>
<asrwt>0</asrwt>
<pdfrwt beam="1">  1        4 0.40358548E-02 0.92551222E+02</pdfrwt>
<pdfrwt beam="2">  1       -4 0.12558624E-01 0.92551222E+02</pdfrwt>
<totfact> 0.24946012E+04</totfact>
</mgrwt>
</event>
<event>
 5    1  0.1265228E+001  0.9189615E+02  0.7546771E-02  0.1298324E+00
          1   -1    0    0  501    0  0.00000000000E+00  0.00000000000E+00  0.75936333141E+02  0.75936333141E+02  0.00000000000E+00 0. -1.
         -1   -1    0    0    0  501 -0.00000000000E+00 -0.00000000000E+00 -0.27802573992E+02  0.27802573992E+02  0.00000000000E+00 0.  1.
         23    2    1    2    0    0  0.00000000000E+00  0.00000000000E+00  0.48133759149E+02  0.10373890713E+03  0.91896148360E+02 0.  0.
        -11    1    3    3    0    0  0.29442859074E+02  0.22574114589E+02 -0.65326690277E+01  0.37671585639E+02  0.00000000000E+00 0.  1.
         11    1    3    3    0    0 -0.29442859074E+02 -0.22574114589E+02  0.54666428177E+02  0.66067321495E+02  0.00000000000E+00 0. -1.
<mgrwt>
<rscale>  0 0.91896148E+02</rscale>
<asrwt>0</asrwt>
<pdfrwt beam="1">  1        1 0.11682513E-01 0.91896148E+02</pdfrwt>
<pdfrwt beam="2">  1       -1 0.42773191E-02 0.91896148E+02</pdfrwt>
<totfact> 0.97783461E+04</totfact>
</mgrwt>
</event>
<event>
 5    1  0.1265228E+001  0.9226859E+02  0.7546771E-02  0.1297449E+00
          3   -1    0    0  501    0  0.00000000000E+00  0.00000000000E+00  0.23010134898E+03  0.23010134898E+03  0.00000000000E+00 0. -1.
         -3   -1    0    0    0  501 -0.00000000000E+00 -0.00000000000E+00 -0.92497205372E+01  0.92497205372E+01  0.00000000000E+00 0.  1.
         23    2    1    2    0    0  0.00000000000E+00  0.00000000000E+00  0.22085162844E+03  0.23935106952E+03  0.92268589960E+02 0.  0.
        -11    1    3    3    0    0 -0.50959542552E+01 -0.35227850079E+02  0.18656087157E+03  0.18992611450E+03  0.00000000000E+00 0. -1.
         11    1    3    3    0    0  0.50959542552E+01  0.35227850079E+02  0.34290756877E+02  0.49424955014E+02  0.00000000000E+00 0.  1.
<mgrwt>
<rscale>  0 0.92268590E+02</rscale>
<asrwt>0</asrwt>
<pdfrwt beam="1">  1        3 0.35400203E-01 0.92268590E+02</pdfrwt>
<pdfrwt beam="2">  1       -3 0.14230341E-02 0.92268590E+02</pdfrwt>
<totfact> 0.25744180E+04</totfact>
</mgrwt>
</event>
<event>
 5    1  0.1265228E+001  0.9015260E+02  0.7546771E-02  0.1302483E+00
          2   -1    0    0  501    0  0.00000000000E+00  0.00000000000E+00  0.60796498829E+02  0.60796498829E+02  0.00000000000E+00 0. -1.
         -2   -1    0    0    0  501 -0.00000000000E+00 -0.00000000000E+00 -0.33420888812E+02  0.33420888812E+02  0.00000000000E+00 0.  1.
         23    2    1    2    0    0  0.00000000000E+00  0.00000000000E+00  0.27375610017E+02  0.94217387641E+02  0.90152604566E+02 0.  0.
        -11    1    3    3    0    0 -0.35638400717E+01 -0.12515364911E+02 -0.31415183359E+02  0.34003662455E+02  0.00000000000E+00 0.  1.
         11    1    3    3    0    0  0.35638400717E+01  0.12515364911E+02  0.58790793376E+02  0.60213725185E+02  0.00000000000E+00 0. -1.
<mgrwt>
<rscale>  0 0.90152605E+02</rscale>
<asrwt>0</asrwt>
<pdfrwt beam="1">  1        2 0.93533075E-02 0.90152605E+02</pdfrwt>
<pdfrwt beam="2">  1       -2 0.51416752E-02 0.90152605E+02</pdfrwt>
<totfact> 0.10988371E+05</totfact>
</mgrwt>
</event>
<event>
 5    1  0.1265228E+001  0.8921744E+02  0.7546771E-02  0.1304758E+00
         -1   -1    0    0    0  501 -0.00000000000E+00  0.00000000000E+00  0.40935757043E+02  0.40935757043E+02  0.00000000000E+00 0.  1.
          1   -1    0    0  501    0  0.00000000000E+00 -0.00000000000E+00 -0.48611235996E+02  0.48611235996E+02  0.00000000000E+00 0. -1.
         23    2    1    2    0    0  0.00000000000E+00  0.00000000000E+00 -0.76754789522E+01  0.89546993039E+02  0.89217436554E+02 0.  0.
        -11    1    3    3    0    0  0.30137901813E+02  0.28743001408E+02 -0.19880663873E+02  0.46148608339E+02  0.00000000000E+00 0. -1.
         11    1    3    3    0    0 -0.30137901813E+02 -0.28743001408E+02  0.12205184920E+02  0.43398384700E+02  0.00000000000E+00 0.  1.
<mgrwt>
<rscale>  0 0.89217437E+02</rscale>
<asrwt>0</asrwt>
<pdfrwt beam="2">  1        1 0.74786517E-02 0.89217437E+02</pdfrwt>
<pdfrwt beam="1">  1       -1 0.62978088E-02 0.89217437E+02</pdfrwt>
<totfact> 0.99205736E+04</totfact>
</mgrwt>
</event>
<event>
 5    1  0.1265228E+001  0.9106467E+02  0.7546771E-02  0.1300294E+00
         -1   -1    0    0    0  501 -0.00000000000E+00  0.00000000000E+00  0.15725639600E+02  0.15725639600E+02  0.00000000000E+00 0.  1.
          1   -1    0    0  501    0  0.00000000000E+00 -0.00000000000E+00 -0.13183523128E+03  0.13183523128E+03  0.00000000000E+00 0. -1.
         23    2    1    2    0    0  0.00000000000E+00  0.00000000000E+00 -0.11610959168E+03  0.14756087088E+03  0.91064665676E+02 0.  0.
        -11    1    3    3    0    0 -0.37037805442E+02  0.17742285388E+02 -0.26194090316E+02  0.48710554197E+02  0.00000000000E+00 0.  1.
         11    1    3    3    0    0  0.37037805442E+02 -0.17742285388E+02 -0.89915501365E+02  0.98850316683E+02  0.00000000000E+00 0. -1.
<mgrwt>
<rscale>  0 0.91064666E+02</rscale>
<asrwt>0</asrwt>
<pdfrwt beam="2">  1        1 0.20282342E-01 0.91064666E+02</pdfrwt>
<pdfrwt beam="1">  1       -1 0.24193293E-02 0.91064666E+02</pdfrwt>
<totfact> 0.10990619E+05</totfact>
</mgrwt>
</event>
<event>
 5    1  0.1265228E+001  0.8817102E+02  0.7546771E-02  0.1307342E+00
          2   -1    0    0  501    0  0.00000000000E+00  0.00000000000E+00  0.13298726681E+03  0.13298726681E+03  0.00000000000E+00 0. -1.
         -2   -1    0    0    0  501 -0.00000000000E+00 -0.00000000000E+00 -0.14614422183E+02  0.14614422183E+02  0.00000000000E+00 0.  1.
         23    2    1    2    0    0  0.00000000000E+00  0.00000000000E+00  0.11837284463E+03  0.14760168899E+03  0.88171017054E+02 0.  0.
        -11    1    3    3    0    0 -0.71145716132E+01  0.19699378338E+02  0.12412637983E+03  0.12588105817E+03  0.00000000000E+00 0. -1.
         11    1    3    3    0    0  0.71145716132E+01 -0.19699378338E+02 -0.57535352011E+01  0.21720630825E+02  0.00000000000E+00 0.  1.
<mgrwt>
<rscale>  0 0.88171017E+02</rscale>
<asrwt>0</asrwt>
<pdfrwt beam="1">  1        2 0.20459579E-01 0.88171017E+02</pdfrwt>
<pdfrwt beam="2">  1       -2 0.22483727E-02 0.88171017E+02</pdfrwt>
<totfact> 0.14708246E+05</totfact>
</mgrwt>
</event>
<event>
 5    1  0.1265228E+001  0.9219114E+02  0.7546771E-02  0.1297631E+00
          2   -1    0    0  501    0  0.00000000000E+00  0.00000000000E+00  0.90847885021E+01  0.90847885021E+01  0.00000000000E+00 0. -1.
         -2   -1    0    0    0  501 -0.00000000000E+00 -0.00000000000E+00 -0.23388563476E+03  0.23388563476E+03  0.00000000000E+00 0.  1.
         23    2    1    2    0    0  0.00000000000E+00  0.00000000000E+00 -0.22480084626E+03  0.24297042327E+03  0.92191138956E+02 0.  0.
        -11    1    3    3    0    0  0.29976125923E+02 -0.15943723263E+02 -0.19456872420E+03  0.19750888302E+03  0.00000000000E+00 0.  1.
         11    1    3    3    0    0 -0.29976125923E+02  0.15943723263E+02 -0.30232122064E+02  0.45461540244E+02  0.00000000000E+00 0. -1.
<mgrwt>
<rscale>  0 0.92191139E+02</rscale>
<asrwt>0</asrwt>
<pdfrwt beam="1">  1        2 0.13976598E-02 0.92191139E+02</pdfrwt>
<pdfrwt beam="2">  1       -2 0.35982404E-01 0.92191139E+02</pdfrwt>
<totfact> 0.56411374E+04</totfact>
</mgrwt>
</event>
<event>
 5    1  0.1265228E+001  0.9139737E+02  0.7546771E-02  0.1299503E+00
          1   -1    0    0  501    0  0.00000000000E+00  0.00000000000E+00  0.56545926715E+02  0.56545926715E+02  0.00000000000E+00 0. -1.
         -1   -1    0    0    0  501 -0.00000000000E+00 -0.00000000000E+00 -0.36932275358E+02  0.36932275358E+02  0.00000000000E+00 0.  1.
         23    2    1    2    0    0  0.00000000000E+00  0.00000000000E+00  0.19613651356E+02  0.93478202073E+02  0.91397368361E+02 0.  0.
        -11    1    3    3    0    0  0.34774748121E+02 -0.45748992857E+01 -0.20154430327E+02  0.40452612674E+02  0.00000000000E+00 0.  1.
         11    1    3    3    0    0 -0.34774748121E+02  0.45748992857E+01  0.39768081683E+02  0.53025589399E+02  0.00000000000E+00 0. -1.
<mgrwt>
<rscale>  0 0.91397368E+02</rscale>
<asrwt>0</asrwt>
<pdfrwt beam="1">  1        1 0.86993734E-02 0.91397368E+02</pdfrwt>
<pdfrwt beam="2">  1       -1 0.56818885E-02 0.91397368E+02</pdfrwt>
<totfact> 0.94872499E+04</totfact>
</mgrwt>
</event>
<event>
 5    1  0.1265228E+001  0.9692174E+02  0.7546771E-02  0.1286906E+00
         -1   -1    0    0    0  501 -0.00000000000E+00  0.00000000000E+00  0.19165583844E+03  0.19165583844E+03  0.00000000000E+00 0.  1.
          1   -1    0    0  501    0  0.00000000000E+00 -0.00000000000E+00 -0.12253506457E+02  0.12253506457E+02  0.00000000000E+00 0. -1.
         23    2    1    2    0    0  0.00000000000E+00  0.00000000000E+00  0.17940233198E+03  0.20390934490E+03  0.96921742740E+02 0.  0.
        -11    1    3    3    0    0 -0.30074539251E+02 -0.30145687717E+02  0.13837329223E+03  0.14477709902E+03  0.00000000000E+00 0.  1.
         11    1    3    3    0    0  0.30074539251E+02  0.30145687717E+02  0.41029039756E+02  0.59132245877E+02  0.00000000000E+00 0. -1.
<mgrwt>
<rscale>  0 0.96921743E+02</rscale>
<asrwt>0</asrwt>
<pdfrwt beam="2">  1        1 0.18851550E-02 0.96921743E+02</pdfrwt>
<pdfrwt beam="1">  1       -1 0.29485512E-01 0.96921743E+02</pdfrwt>
<totfact> 0.59904436E+04</totfact>
</mgrwt>
</event>
<event>
 5    1  0.1265228E+001  0.9408160E+02  0.7546771E-02  0.1293258E+00
          2   -1    0    0  501    0  0.00000000000E+00  0.00000000000E+00  0.20912190868E+03  0.20912190868E+03  0.00000000000E+00 0. -1.
         -2   -1    0    0    0  501 -0.00000000000E+00 -0.00000000000E+00 -0.10581564960E+02  0.10581564960E+02  0.00000000000E+00 0.  1.
         23    2    1    2    0    0  0.00000000000E+00  0.00000000000E+00  0.19854034372E+03  0.21970347364E+03  0.94081604182E+02 0.  0.
        -11    1    3    3    0    0 -0.16257370210E+01  0.36419177081E+02  0.29844763730E+02  0.47113792060E+02  0.00000000000E+00 0.  1.
         11    1    3    3    0    0  0.16257370210E+01 -0.36419177081E+02  0.16869557999E+03  0.17258968158E+03  0.00000000000E+00 0. -1.
<mgrwt>
<rscale>  0 0.94081604E+02</rscale>
<asrwt>0</asrwt>
<pdfrwt beam="1">  1        2 0.32172598E-01 0.94081604E+02</pdfrwt>
<pdfrwt beam="2">  1       -2 0.16279332E-02 0.94081604E+02</pdfrwt>
<totfact> 0.14445608E+05</totfact>
</mgrwt>
</event>
<event>
 5    1  0.1265228E+001  0.9152607E+02  0.7546771E-02  0.1299198E+00
          1   -1    0    0  501    0  0.00000000000E+00  0.00000000000E+00  0.16769840652E+02  0.16769840652E+02  0.00000000000E+00 0. -1.
         -1   -1    0    0    0  501 -0.00000000000E+00 -0.00000000000E+00 -0.12488223796E+03  0.12488223796E+03  0.00000000000E+00 0.  1.
         23    2    1    2    0    0  0.00000000000E+00  0.00000000000E+00 -0.10811239731E+03  0.14165207861E+03  0.91526066908E+02 0.  0.
        -13    1    3    3    0    0  0.38749856860E+02 -0.16199480035E+02 -0.25929437148E+02  0.49358993819E+02  0.00000000000E+00 0. -1.
         13    1    3    3    0    0 -0.38749856860E+02  0.16199480035E+02 -0.82182960160E+02  0.92293084793E+02  0.00000000000E+00 0.  1.
<mgrwt>
<rscale>  0 0.91526067E+02</rscale>
<asrwt>0</asrwt>
<pdfrwt beam="1">  1        1 0.25799755E-02 0.91526067E+02</pdfrwt>
<pdfrwt beam="2">  1       -1 0.19212652E-01 0.91526067E+02</pdfrwt>
<totfact> 0.77117670E+04</totfact>
</mgrwt>
</event>
<event>
 5    1  0.1265228E+001  0.9019081E+02  0.7546771E-02  0.1302390E+00
          1   -1    0    0  501    0  0.00000000000E+00  0.00000000000E+00  0.20680292884E+03  0.20680292884E+03  0.00000000000E+00 0. -1.
         -1   -1    0    0    0  501 -0.00000000000E+00 -0.00000000000E+00 -0.98334952049E+01  0.98334952049E+01  0.00000000000E+00 0.  1.
         23    2    1    2    0    0  0.00000000000E+00  0.00000000000E+00  0.19696943363E+03  0.21663642404E+03  0.90190811263E+02 0.  0.
        -13    1    3    3    0    0  0.29781161331E+02 -0.64595798446E+01  0.18640978073E+02  0.35722959082E+02  0.00000000000E+00 0.  1.
         13    1    3    3    0    0 -0.29781161331E+02  0.64595798446E+01  0.17832845556E+03  0.18091346496E+03  0.00000000000E+00 0. -1.
<mgrwt>
<rscale>  0 0.90190811E+02</rscale>
<asrwt>0</asrwt>
<pdfrwt beam="1">  1        1 0.31815832E-01 0.90190811E+02</pdfrwt>
<pdfrwt beam="2">  1       -1 0.15128456E-02 0.90190811E+02</pdfrwt>
<totfact> 0.12269803E+05</totfact>
</mgrwt>
</event>
<event>
 5    1  0.1265228E+001  0.9106647E+02  0.7546771E-02  0.1300289E+00
         -4   -1    0    0    0  501 -0.00000000000E+00  0.00000000000E+00  0.20612197035E+02  0.20612197035E+02  0.00000000000E+00 0.  1.
          4   -1    0    0  501    0  0.00000000000E+00 -0.00000000000E+00 -0.10058489472E+03  0.10058489472E+03  0.00000000000E+00 0. -1.
         23    2    1    2    0    0  0.00000000000E+00  0.00000000000E+00 -0.79972697688E+02  0.12119709176E+03  0.91066473937E+02 0.  0.
        -13    1    3    3    0    0 -0.10164596410E+02 -0.20345061325E+02  0.12511725804E+02  0.25957346226E+02  0.00000000000E+00 0.  1.
         13    1    3    3    0    0  0.10164596410E+02  0.20345061325E+02 -0.92484423493E+02  0.95239745533E+02  0.00000000000E+00 0. -1.
<mgrwt>
<rscale>  0 0.91066474E+02</rscale>
<asrwt>0</asrwt>
<pdfrwt beam="2">  1        4 0.15474599E-01 0.91066474E+02</pdfrwt>
<pdfrwt beam="1">  1       -4 0.31711073E-02 0.91066474E+02</pdfrwt>
<totfact> 0.25287773E+04</totfact>
</mgrwt>
</event>
<event>
 5    1  0.1265228E+001  0.9172584E+02  0.7546771E-02  0.1298725E+00
          1   -1    0    0  501    0  0.00000000000E+00  0.00000000000E+00  0.10414188917E+03  0.10414188917E+03  0.00000000000E+00 0. -1.
         -1   -1    0    0    0  501 -0.00000000000E+00 -0.00000000000E+00 -0.20197514079E+02  0.20197514079E+02  0.00000000000E+00 0.  1.
         23    2    1    2    0    0  0.00000000000E+00  0.00000000000E+00  0.83944375096E+02  0.12433940325E+03  0.91725836553E+02 0.  0.
        -13    1    3    3    0    0 -0.32318529599E+02  0.28847610604E+02  0.21560606389E+02  0.48389376322E+02  0.00000000000E+00 0.  1.
         13    1    3    3    0    0  0.32318529599E+02 -0.28847610604E+02  0.62383768706E+02  0.75950026932E+02  0.00000000000E+00 0. -1.
<mgrwt>
<rscale>  0 0.91725837E+02</rscale>
<asrwt>0</asrwt>
<pdfrwt beam="1">  1        1 0.16021829E-01 0.91725837E+02</pdfrwt>
<pdfrwt beam="2">  1       -1 0.31073099E-02 0.91725837E+02</pdfrwt>
<totfact> 0.10345514E+05</totfact>
</mgrwt>
</event>
<event>
 5    1  0.1265228E+001  0.9175209E+02  0.7546771E-02  0.1298663E+00
         -1   -1    0    0    0  501 -0.00000000000E+00  0.00000000000E+00  0.10379994458E+03  0.10379994458E+03  0.00000000000E+00 0.  1.
          1   -1    0    0  501    0  0.00000000000E+00 -0.00000000000E+00 -0.20275652011E+02  0.20275652011E+02  0.00000000000E+00 0. -1.
         23    2    1    2    0    0  0.00000000000E+00  0.00000000000E+00  0.83524292572E+02  0.12407559659E+03  0.91752091096E+02 0.  0.
        -11    1    3    3    0    0  0.12881032619E+02  0.32867930760E+02  0.21423128538E+01  0.35366811817E+02  0.00000000000E+00 0. -1.
         11    1    3    3    0    0 -0.12881032619E+02 -0.32867930760E+02  0.81381979718E+02  0.88708784777E+02  0.00000000000E+00 0.  1.
<mgrwt>
<rscale>  0 0.91752091E+02</rscale>
<asrwt>0</asrwt>
<pdfrwt beam="2">  1        1 0.31193311E-02 0.91752091E+02</pdfrwt>
<pdfrwt beam="1">  1       -1 0.15969222E-01 0.91752091E+02</pdfrwt>
<totfact> 0.79502366E+04</totfact>
</mgrwt>
</event>
<event>
 5    1  0.1265228E+001  0.8972704E+02  0.7546771E-02  0.1303514E+00
          1   -1    0    0  501    0  0.00000000000E+00  0.00000000000E+00  0.25755426434E+03  0.25755426434E+03  0.00000000000E+00 0. -1.
         -1   -1    0    0    0  501 -0.00000000000E+00 -0.00000000000E+00 -0.78148016737E+01  0.78148016737E+01  0.00000000000E+00 0.  1.
         23    2    1    2    0    0  0.00000000000E+00  0.00000000000E+00  0.24973946267E+03  0.26536906601E+03  0.89727041543E+02 0.  0.
        -13    1    3    3    0    0 -0.35416148930E+02 -0.22818072377E+02  0.17047375477E+03  0.17560258852E+03  0.00000000000E+00 0. -1.
         13    1    3    3    0    0  0.35416148930E+02  0.22818072377E+02  0.79265707898E+02  0.89766477488E+02  0.00000000000E+00 0.  1.
<mgrwt>
<rscale>  0 0.89727042E+02</rscale>
<asrwt>0</asrwt>
<pdfrwt beam="1">  1        1 0.39623726E-01 0.89727042E+02</pdfrwt>
<pdfrwt beam="2">  1       -1 0.12022774E-02 0.89727042E+02</pdfrwt>
<totfact> 0.12982101E+05</totfact>
</mgrwt>
</event>
<event>
 5    1  0.1265228E+001  0.8867083E+02  0.7546771E-02  0.1306103E+00
         -2   -1    0    0    0  501 -0.00000000000E+00  0.00000000000E+00  0.26889082878E+03  0.26889082878E+03  0.00000000000E+00 0. -1.
          2   -1    0    0  501    0  0.00000000000E+00 -0.00000000000E+00 -0.73101385040E+01  0.73101385040E+01  0.00000000000E+00 0.  1.
         23    2    1    2    0    0  0.00000000000E+00  0.00000000000E+00  0.26158069028E+03  0.27620096729E+03  0.88670834006E+02 0.  0.
        -13    1    3    3    0    0 -0.32575850566E+02 -0.28984200141E+02  0.10580127663E+03  0.11443417337E+03  0.00000000000E+00 0.  1.
         13    1    3    3    0    0  0.32575850566E+02  0.28984200141E+02  0.15577941365E+03  0.16176679392E+03  0.00000000000E+00 0. -1.
<mgrwt>
<rscale>  0 0.88670834E+02</rscale>
<asrwt>0</asrwt>
<pdfrwt beam="2">  1        2 0.11246369E-02 0.88670834E+02</pdfrwt>
<pdfrwt beam="1">  1       -2 0.41367812E-01 0.88670834E+02</pdfrwt>
<totfact> 0.58137212E+04</totfact>
</mgrwt>
</event>
<event>
 5    1  0.1265228E+001  0.9230288E+02  0.7546771E-02  0.1297369E+00
         -1   -1    0    0    0  501 -0.00000000000E+00  0.00000000000E+00  0.17908250283E+02  0.17908250283E+02  0.00000000000E+00 0.  1.
          1   -1    0    0  501    0  0.00000000000E+00 -0.00000000000E+00 -0.11893710283E+03  0.11893710283E+03  0.00000000000E+00 0. -1.
         23    2    1    2    0    0  0.00000000000E+00  0.00000000000E+00 -0.10102885255E+03  0.13684535312E+03  0.92302879814E+02 0.  0.
        -11    1    3    3    0    0  0.16357856258E+02 -0.13724707963E+02  0.10144345385E+02  0.23640110264E+02  0.00000000000E+00 0.  1.
         11    1    3    3    0    0 -0.16357856258E+02  0.13724707963E+02 -0.11117319794E+03  0.11320524285E+03  0.00000000000E+00 0. -1.
<mgrwt>
<rscale>  0 0.92302880E+02</rscale>
<asrwt>0</asrwt>
<pdfrwt beam="2">  1        1 0.18298015E-01 0.92302880E+02</pdfrwt>
<pdfrwt beam="1">  1       -1 0.27551156E-02 0.92302880E+02</pdfrwt>
<totfact> 0.10404389E+05</totfact>
</mgrwt>
</event>
<event>
 5    1  0.1265228E+001  0.9104091E+02  0.7546771E-02  0.1300350E+00
          2   -1    0    0  501    0  0.00000000000E+00  0.00000000000E+00  0.10791420802E+02  0.10791420802E+02  0.00000000000E+00 0. -1.
         -2   -1    0    0    0  501 -0.00000000000E+00 -0.00000000000E+00 -0.19201473056E+03  0.19201473056E+03  0.00000000000E+00 0.  1.
         23    2    1    2    0    0  0.00000000000E+00  0.00000000000E+00 -0.18122330976E+03  0.20280615136E+03  0.91040908556E+02 0.  0.
        -11    1    3    3    0    0 -0.11684849551E+02  0.40036922890E+02 -0.13123907804E+03  0.13770688620E+03  0.00000000000E+00 0.  1.
         11    1    3    3    0    0  0.11684849551E+02 -0.40036922890E+02 -0.49984231715E+02  0.65099265155E+02  0.00000000000E+00 0. -1.
<mgrwt>
<rscale>  0 0.91040909E+02</rscale>
<asrwt>0</asrwt>
<pdfrwt beam="1">  1        2 0.16602188E-02 0.91040909E+02</pdfrwt>
<pdfrwt beam="2">  1       -2 0.29540724E-01 0.91040909E+02</pdfrwt>
<totfact> 0.63656451E+04</totfact>
</mgrwt>
</event>
<event>
 5    1  0.1265228E+001  0.9086124E+02  0.7546771E-02  0.1300779E+00
         -1   -1    0    0    0  501 -0.00000000000E+00  0.00000000000E+00  0.15261596317E+02  0.15261596317E+02  0.00000000000E+00 0.  1.
          1   -1    0    0  501    0  0.00000000000E+00 -0.00000000000E+00 -0.13523756039E+03  0.13523756039E+03  0.00000000000E+00 0. -1.
         23    2    1    2    0    0  0.00000000000E+00  0.00000000000E+00 -0.11997596408E+03  0.15049915671E+03  0.90861236038E+02 0.  0.
        -11    1    3    3    0    0 -0.43991353925E+02  0.10165411370E+02 -0.51645725931E+02  0.68599240633E+02  0.00000000000E+00 0.  1.
         11    1    3    3    0    0  0.43991353925E+02 -0.10165411370E+02 -0.68330238145E+02  0.81899916077E+02  0.00000000000E+00 0. -1.
<mgrwt>
<rscale>  0 0.90861236E+02</rscale>
<asrwt>0</asrwt>
<pdfrwt beam="2">  1        1 0.20805778E-01 0.90861236E+02</pdfrwt>
<pdfrwt beam="1">  1       -1 0.23479380E-02 0.90861236E+02</pdfrwt>
<totfact> 0.11107757E+05</totfact>
</mgrwt>
</event>
<event>
 5    1  0.1265228E+001  0.9439820E+02  0.7546771E-02  0.1292537E+00
          1   -1    0    0  501    0  0.00000000000E+00  0.00000000000E+00  0.78667413010E+01  0.78667413010E+01  0.00000000000E+00 0. -1.
         -1   -1    0    0    0  501 -0.00000000000E+00 -0.00000000000E+00 -0.28318650278E+03  0.28318650278E+03  0.00000000000E+00 0.  1.
         23    2    1    2    0    0  0.00000000000E+00  0.00000000000E+00 -0.27531976148E+03  0.29105324408E+03  0.94398198231E+02 0.  0.
        -11    1    3    3    0    0  0.40929123316E+02  0.37739757801E+00 -0.65192394388E+02  0.76976514928E+02  0.00000000000E+00 0. -1.
         11    1    3    3    0    0 -0.40929123316E+02 -0.37739757801E+00 -0.21012736709E+03  0.21407672915E+03  0.00000000000E+00 0.  1.
<mgrwt>
<rscale>  0 0.94398198E+02</rscale>
<asrwt>0</asrwt>
<pdfrwt beam="1">  1        1 0.12102679E-02 0.94398198E+02</pdfrwt>
<pdfrwt beam="2">  1       -1 0.43567155E-01 0.94398198E+02</pdfrwt>
<totfact> 0.56561332E+04</totfact>
</mgrwt>
</event>
<event>
 5    1  0.1265228E+001  0.9268552E+02  0.7546771E-02  0.1296476E+00
          3   -1    0    0  501    0  0.00000000000E+00  0.00000000000E+00  0.18068485468E+03  0.18068485468E+03  0.00000000000E+00 0. -1.
         -3   -1    0    0    0  501 -0.00000000000E+00 -0.00000000000E+00 -0.11886173837E+02  0.11886173837E+02  0.00000000000E+00 0.  1.
         23    2    1    2    0    0  0.00000000000E+00  0.00000000000E+00  0.16879868084E+03  0.19257102852E+03  0.92685524057E+02 0.  0.
        -13    1    3    3    0    0  0.26578520998E+02 -0.98367575966E+01  0.16058178833E+03  0.16306345490E+03  0.00000000000E+00 0. -1.
         13    1    3    3    0    0 -0.26578520998E+02  0.98367575966E+01  0.82168925091E+01  0.29507573620E+02  0.00000000000E+00 0.  1.
<mgrwt>
<rscale>  0 0.92685524E+02</rscale>
<asrwt>0</asrwt>
<pdfrwt beam="1">  1        3 0.27797668E-01 0.92685524E+02</pdfrwt>
<pdfrwt beam="2">  1       -3 0.18286423E-02 0.92685524E+02</pdfrwt>
<totfact> 0.27632620E+04</totfact>
</mgrwt>
</event>
<event>
 5    1  0.1265228E+001  0.1080771E+03  0.7546771E-02  0.1264173E+00
          1   -1    0    0  501    0  0.00000000000E+00  0.00000000000E+00  0.19467438442E+03  0.19467438442E+03  0.00000000000E+00 0. -1.
         -1   -1    0    0    0  501 -0.00000000000E+00 -0.00000000000E+00 -0.15000240810E+02  0.15000240810E+02  0.00000000000E+00 0.  1.
         23    2    1    2    0    0  0.00000000000E+00  0.00000000000E+00  0.17967414361E+03  0.20967462523E+03  0.10807705854E+03 0.  0.
        -11    1    3    3    0    0  0.46545622390E+00 -0.44794985023E+02  0.31205405238E+02  0.54594730962E+02  0.00000000000E+00 0.  1.
         11    1    3    3    0    0 -0.46545622390E+00  0.44794985023E+02  0.14846873837E+03  0.15507989426E+03  0.00000000000E+00 0. -1.
<mgrwt>
<rscale>  0 0.10807706E+03</rscale>
<asrwt>0</asrwt>
<pdfrwt beam="1">  1        1 0.29949903E-01 0.10807706E+03</pdfrwt>
<pdfrwt beam="2">  1       -1 0.23077295E-02 0.10807706E+03</pdfrwt>
<totfact> 0.74298439E+04</totfact>
</mgrwt>
</event>
<event>
 5    1  0.1265228E+001  0.8793270E+02  0.7546771E-02  0.1307937E+00
         -2   -1    0    0    0  501 -0.00000000000E+00  0.00000000000E+00  0.18980915704E+03  0.18980915704E+03  0.00000000000E+00 0.  1.
          2   -1    0    0  501    0  0.00000000000E+00 -0.00000000000E+00 -0.10184124761E+02  0.10184124761E+02  0.00000000000E+00 0. -1.
         23    2    1    2    0    0  0.00000000000E+00  0.00000000000E+00  0.17962503228E+03  0.19999328180E+03  0.87932704635E+02 0.  0.
        -11    1    3    3    0    0  0.57283212985E+01 -0.30624483078E+02  0.16036875979E+03  0.16336710730E+03  0.00000000000E+00 0.  1.
         11    1    3    3    0    0 -0.57283212985E+01  0.30624483078E+02  0.19256272481E+02  0.36626174501E+02  0.00000000000E+00 0. -1.
<mgrwt>
<rscale>  0 0.87932705E+02</rscale>
<asrwt>0</asrwt>
<pdfrwt beam="2">  1        2 0.15667886E-02 0.87932705E+02</pdfrwt>
<pdfrwt beam="1">  1       -2 0.29201406E-01 0.87932705E+02</pdfrwt>
<totfact> 0.69882990E+04</totfact>
</mgrwt>
</event>
<event>
 5    1  0.1265228E+001  0.9150861E+02  0.7546771E-02  0.1299239E+00
          2   -1    0    0  501    0  0.00000000000E+00  0.00000000000E+00  0.13080074100E+03  0.13080074100E+03  0.00000000000E+00 0. -1.
         -2   -1    0    0    0  501 -0.00000000000E+00 -0.00000000000E+00 -0.16004926782E+02  0.16004926782E+02  0.00000000000E+00 0.  1.
         23    2    1    2    0    0  0.00000000000E+00  0.00000000000E+00  0.11479581422E+03  0.14680566778E+03  0.91508606867E+02 0.  0.
        -13    1    3    3    0    0 -0.44167479476E+02 -0.37864787300E+01  0.75573276466E+02  0.87615202906E+02  0.00000000000E+00 0. -1.
         13    1    3    3    0    0  0.44167479476E+02  0.37864787300E+01  0.39222537751E+02  0.59190464874E+02  0.00000000000E+00 0.  1.
<mgrwt>
<rscale>  0 0.91508607E+02</rscale>
<asrwt>0</asrwt>
<pdfrwt beam="1">  1        2 0.20123190E-01 0.91508607E+02</pdfrwt>
<pdfrwt beam="2">  1       -2 0.24622965E-02 0.91508607E+02</pdfrwt>
<totfact> 0.13223239E+05</totfact>
</mgrwt>
</event>
<event>
 5    1  0.1265228E+001  0.9260220E+02  0.7546771E-02  0.1296670E+00
         -2   -1    0    0    0  501 -0.00000000000E+00  0.00000000000E+00  0.17291462069E+02  0.17291462069E+02  0.00000000000E+00 0.  1.
          2   -1    0    0  501    0  0.00000000000E+00 -0.00000000000E+00 -0.12397979249E+03  0.12397979249E+03  0.00000000000E+00 0. -1.
         23    2    1    2    0    0  0.00000000000E+00  0.00000000000E+00 -0.10668833042E+03  0.14127125456E+03  0.92602200390E+02 0.  0.
        -13    1    3    3    0    0  0.17930658112E+02 -0.22618146899E+02  0.18870515215E+01  0.28924903335E+02  0.00000000000E+00 0.  1.
         13    1    3    3    0    0 -0.17930658112E+02  0.22618146899E+02 -0.10857538195E+03  0.11234635123E+03  0.00000000000E+00 0. -1.
<mgrwt>
<rscale>  0 0.92602200E+02</rscale>
<asrwt>0</asrwt>
<pdfrwt beam="2">  1        2 0.19073814E-01 0.92602200E+02</pdfrwt>
<pdfrwt beam="1">  1       -2 0.26602250E-02 0.92602200E+02</pdfrwt>
<totfact> 0.12578262E+05</totfact>
</mgrwt>
</event>
<event>
 5    1  0.1265228E+001  0.9182810E+02  0.7546771E-02  0.1298484E+00
         -1   -1    0    0    0  501 -0.00000000000E+00  0.00000000000E+00  0.18352668095E+03  0.18352668095E+03  0.00000000000E+00 0.  1.
          1   -1    0    0  501    0  0.00000000000E+00 -0.00000000000E+00 -0.11486612715E+02  0.11486612715E+02  0.00000000000E+00 0. -1.
         23    2    1    2    0    0  0.00000000000E+00  0.00000000000E+00  0.17204006823E+03  0.19501329366E+03  0.91828098246E+02 0.  0.
        -11    1    3    3    0    0 -0.30013848215E+02 -0.21261069419E+02  0.14438199790E+03  0.14899337393E+03  0.00000000000E+00 0.  1.
         11    1    3    3    0    0  0.30013848215E+02  0.21261069419E+02  0.27658070331E+02  0.46019919730E+02  0.00000000000E+00 0. -1.
<mgrwt>
<rscale>  0 0.91828098E+02</rscale>
<asrwt>0</asrwt>
<pdfrwt beam="2">  1        1 0.17671713E-02 0.91828098E+02</pdfrwt>
<pdfrwt beam="1">  1       -1 0.28234872E-01 0.91828098E+02</pdfrwt>
<totfact> 0.69793485E+04</totfact>
</mgrwt>
</event>
<event>
 5    1  0.1265228E+001  0.8069165E+02  0.7546771E-02  0.1327100E+00
          1   -1    0    0  501    0  0.00000000000E+00  0.00000000000E+00  0.25659275732E+03  0.25659275732E+03  0.00000000000E+00 0. -1.
         -1   -1    0    0    0  501 -0.00000000000E+00 -0.00000000000E+00 -0.63438485318E+01  0.63438485318E+01  0.00000000000E+00 0.  1.
         23    2    1    2    0    0  0.00000000000E+00  0.00000000000E+00  0.25024890879E+03  0.26293660585E+03  0.80691649799E+02 0.  0.
        -13    1    3    3    0    0  0.39402525105E+02  0.81313409042E+01  0.13495848419E+03  0.14082780316E+03  0.00000000000E+00 0. -1.
         13    1    3    3    0    0 -0.39402525105E+02 -0.81313409042E+01  0.11529042461E+03  0.12210880269E+03  0.00000000000E+00 0.  1.
<mgrwt>
<rscale>  0 0.80691650E+02</rscale>
<asrwt>0</asrwt>
<pdfrwt beam="1">  1        1 0.39475801E-01 0.80691650E+02</pdfrwt>
<pdfrwt beam="2">  1       -1 0.97597689E-03 0.80691650E+02</pdfrwt>
<totfact> 0.17186320E+05</totfact>
</mgrwt>
</event>
<event>
 5    1  0.1265228E+001  0.8989834E+02  0.7546771E-02  0.1303098E+00
         -2   -1    0    0    0  501 -0.00000000000E+00  0.00000000000E+00  0.84505808693E+02  0.84505808693E+02  0.00000000000E+00 0. -1.
          2   -1    0    0  501    0  0.00000000000E+00 -0.00000000000E+00 -0.23908745985E+02  0.23908745985E+02  0.00000000000E+00 0.  1.
         23    2    1    2    0    0  0.00000000000E+00  0.00000000000E+00  0.60597062708E+02  0.10841455468E+03  0.89898340680E+02 0.  0.
        -13    1    3    3    0    0  0.26042795276E+02 -0.73276152272E+01  0.73587702370E+02  0.78403259312E+02  0.00000000000E+00 0. -1.
         13    1    3    3    0    0 -0.26042795276E+02  0.73276152272E+01 -0.12990639662E+02  0.30011295365E+02  0.00000000000E+00 0.  1.
<mgrwt>
<rscale>  0 0.89898341E+02</rscale>
<asrwt>0</asrwt>
<pdfrwt beam="2">  1        2 0.36782686E-02 0.89898341E+02</pdfrwt>
<pdfrwt beam="1">  1       -2 0.13000894E-01 0.89898341E+02</pdfrwt>
<totfact> 0.86756911E+04</totfact>
</mgrwt>
</event>
<event>
 5    1  0.1265228E+001  0.9256008E+02  0.7546771E-02  0.1296768E+00
          2   -1    0    0  501    0  0.00000000000E+00  0.00000000000E+00  0.35794401449E+03  0.35794401449E+03  0.00000000000E+00 0. -1.
         -2   -1    0    0    0  501 -0.00000000000E+00 -0.00000000000E+00 -0.59837349750E+01  0.59837349750E+01  0.00000000000E+00 0.  1.
         23    2    1    2    0    0  0.00000000000E+00  0.00000000000E+00  0.35196027951E+03  0.36392774946E+03  0.92560080349E+02 0.  0.
        -11    1    3    3    0    0  0.44433444100E+02 -0.12255341766E+02  0.15961810410E+03  0.16613989139E+03  0.00000000000E+00 0. -1.
         11    1    3    3    0    0 -0.44433444100E+02  0.12255341766E+02  0.19234217541E+03  0.19778785807E+03  0.00000000000E+00 0.  1.
<mgrwt>
<rscale>  0 0.92560080E+02</rscale>
<asrwt>0</asrwt>
<pdfrwt beam="1">  1        2 0.55068293E-01 0.92560080E+02</pdfrwt>
<pdfrwt beam="2">  1       -2 0.92057489E-03 0.92560080E+02</pdfrwt>
<totfact> 0.18422502E+05</totfact>
</mgrwt>
</event>
<event>
 5    1  0.1265228E+001  0.8684344E+02  0.7546771E-02  0.1310681E+00
         -2   -1    0    0    0  501 -0.00000000000E+00  0.00000000000E+00  0.77858563586E+02  0.77858563586E+02  0.00000000000E+00 0.  1.
          2   -1    0    0  501    0  0.00000000000E+00 -0.00000000000E+00 -0.24216295310E+02  0.24216295310E+02  0.00000000000E+00 0. -1.
         23    2    1    2    0    0  0.00000000000E+00  0.00000000000E+00  0.53642268276E+02  0.10207485890E+03  0.86843444617E+02 0.  0.
        -13    1    3    3    0    0  0.23896522044E+02  0.16393848222E+02 -0.11186747067E+02  0.31063569261E+02  0.00000000000E+00 0. -1.
         13    1    3    3    0    0 -0.23896522044E+02 -0.16393848222E+02  0.64829015343E+02  0.71011289635E+02  0.00000000000E+00 0.  1.
<mgrwt>
<rscale>  0 0.86843445E+02</rscale>
<asrwt>0</asrwt>
<pdfrwt beam="2">  1        2 0.37255839E-02 0.86843445E+02</pdfrwt>
<pdfrwt beam="1">  1       -2 0.11978240E-01 0.86843445E+02</pdfrwt>
<totfact> 0.96591023E+04</totfact>
</mgrwt>
</event>
<event>
 5    1  0.1265228E+001  0.8667618E+02  0.7546771E-02  0.1311106E+00
         -3   -1    0    0    0  501 -0.00000000000E+00  0.00000000000E+00  0.34908692485E+02  0.34908692485E+02  0.00000000000E+00 0.  1.
          3   -1    0    0  501    0  0.00000000000E+00 -0.00000000000E+00 -0.53802936622E+02  0.53802936622E+02  0.00000000000E+00 0. -1.
         23    2    1    2    0    0  0.00000000000E+00  0.00000000000E+00 -0.18894244138E+02  0.88711629107E+02  0.86676182872E+02 0.  0.
        -13    1    3    3    0    0 -0.32697834679E+02 -0.96180634533E+01 -0.36843892490E+02  0.50190915026E+02  0.00000000000E+00 0.  1.
         13    1    3    3    0    0  0.32697834679E+02  0.96180634533E+01  0.17949648352E+02  0.38520714081E+02  0.00000000000E+00 0. -1.
<mgrwt>
<rscale>  0 0.86676183E+02</rscale>
<asrwt>0</asrwt>
<pdfrwt beam="2">  1        3 0.82773748E-02 0.86676183E+02</pdfrwt>
<pdfrwt beam="1">  1       -3 0.53705681E-02 0.86676183E+02</pdfrwt>
<totfact> 0.40760138E+04</totfact>
</mgrwt>
</event>
<event>
 5    1  0.1265228E+001  0.8686459E+02  0.7546771E-02  0.1310627E+00
          4   -1    0    0  501    0  0.00000000000E+00  0.00000000000E+00  0.68660860636E+02  0.68660860636E+02  0.00000000000E+00 0. -1.
         -4   -1    0    0    0  501 -0.00000000000E+00 -0.00000000000E+00 -0.27473648475E+02  0.27473648475E+02  0.00000000000E+00 0.  1.
         23    2    1    2    0    0  0.00000000000E+00  0.00000000000E+00  0.41187212161E+02  0.96134509111E+02  0.86864592305E+02 0.  0.
        -13    1    3    3    0    0 -0.69947551370E+01  0.33974707464E+02  0.49520166072E+02  0.60460352253E+02  0.00000000000E+00 0. -1.
         13    1    3    3    0    0  0.69947551370E+01 -0.33974707464E+02 -0.83329539109E+01  0.35674156858E+02  0.00000000000E+00 0.  1.
<mgrwt>
<rscale>  0 0.86864592E+02</rscale>
<asrwt>0</asrwt>
<pdfrwt beam="1">  1        4 0.10563209E-01 0.86864592E+02</pdfrwt>
<pdfrwt beam="2">  1       -4 0.42267152E-02 0.86864592E+02</pdfrwt>
<totfact> 0.30428874E+04</totfact>
</mgrwt>
</event>
<event>
 5    1  0.1265228E+001  0.8958428E+02  0.7546771E-02  0.1303862E+00
          1   -1    0    0  501    0  0.00000000000E+00  0.00000000000E+00  0.30723188108E+03  0.30723188108E+03  0.00000000000E+00 0. -1.
         -1   -1    0    0    0  501 -0.00000000000E+00 -0.00000000000E+00 -0.65303634413E+01  0.65303634413E+01  0.00000000000E+00 0.  1.
         23    2    1    2    0    0  0.00000000000E+00  0.00000000000E+00  0.30070151764E+03  0.31376224452E+03  0.89584280858E+02 0.  0.
        -13    1    3    3    0    0 -0.22524694656E+02  0.38708894292E+02  0.15305348208E+03  0.15947134145E+03  0.00000000000E+00 0.  1.
         13    1    3    3    0    0  0.22524694656E+02 -0.38708894292E+02  0.14764803556E+03  0.15429090308E+03  0.00000000000E+00 0. -1.
<mgrwt>
<rscale>  0 0.89584281E+02</rscale>
<asrwt>0</asrwt>
<pdfrwt beam="1">  1        1 0.47266432E-01 0.89584281E+02</pdfrwt>
<pdfrwt beam="2">  1       -1 0.10046715E-02 0.89584281E+02</pdfrwt>
<totfact> 0.13487893E+05</totfact>
</mgrwt>
</event>
<event>
 5    1  0.1265228E+001  0.9187682E+02  0.7546771E-02  0.1298369E+00
         -3   -1    0    0    0  501 -0.00000000000E+00  0.00000000000E+00  0.34050597686E+02  0.34050597686E+02  0.00000000000E+00 0.  1.
          3   -1    0    0  501    0  0.00000000000E+00 -0.00000000000E+00 -0.61976516313E+02  0.61976516313E+02  0.00000000000E+00 0. -1.
         23    2    1    2    0    0  0.00000000000E+00  0.00000000000E+00 -0.27925918627E+02  0.96027113999E+02  0.91876818032E+02 0.  0.
        -11    1    3    3    0    0 -0.30993318177E+02 -0.63755532022E+01 -0.48770557857E+02  0.58136053907E+02  0.00000000000E+00 0. -1.
         11    1    3    3    0    0  0.30993318177E+02  0.63755532022E+01  0.20844639230E+02  0.37891060091E+02  0.00000000000E+00 0.  1.
<mgrwt>
<rscale>  0 0.91876818E+02</rscale>
<asrwt>0</asrwt>
<pdfrwt beam="2">  1        3 0.95348485E-02 0.91876818E+02</pdfrwt>
<pdfrwt beam="1">  1       -3 0.52385536E-02 0.91876818E+02</pdfrwt>
<totfact> 0.34246368E+04</totfact>
</mgrwt>
</event>
<event>
 5    1  0.1265228E+001  0.9236103E+02  0.7546771E-02  0.1297233E+00
         -2   -1    0    0    0  501 -0.00000000000E+00  0.00000000000E+00  0.92068364853E+01  0.92068364853E+01  0.00000000000E+00 0.  1.
          2   -1    0    0  501    0  0.00000000000E+00 -0.00000000000E+00 -0.23163657633E+03  0.23163657633E+03  0.00000000000E+00 0. -1.
         23    2    1    2    0    0  0.00000000000E+00  0.00000000000E+00 -0.22242973985E+03  0.24084341282E+03  0.92361032526E+02 0.  0.
        -13    1    3    3    0    0  0.41871238231E+02 -0.10383181286E+00 -0.60421025072E+02  0.73511302823E+02  0.00000000000E+00 0.  1.
         13    1    3    3    0    0 -0.41871238231E+02  0.10383181286E+00 -0.16200871478E+03  0.16733211000E+03  0.00000000000E+00 0. -1.
<mgrwt>
<rscale>  0 0.92361033E+02</rscale>
<asrwt>0</asrwt>
<pdfrwt beam="2">  1        2 0.35636395E-01 0.92361033E+02</pdfrwt>
<pdfrwt beam="1">  1       -2 0.14164365E-02 0.92361033E+02</pdfrwt>
<totfact> 0.15763832E+05</totfact>
</mgrwt>
</event>
<event>
 5    1  0.1265228E+001  0.9126334E+02  0.7546771E-02  0.1299821E+00
          1   -1    0    0  501    0  0.00000000000E+00  0.00000000000E+00  0.19451856672E+03  0.19451856672E+03  0.00000000000E+00 0. -1.
         -1   -1    0    0    0  501 -0.00000000000E+00 -0.00000000000E+00 -0.10704630682E+02  0.10704630682E+02  0.00000000000E+00 0.  1.
         23    2    1    2    0    0  0.00000000000E+00  0.00000000000E+00  0.18381393604E+03  0.20522319740E+03  0.91263342425E+02 0.  0.
        -13    1    3    3    0    0 -0.41903593123E+02  0.17022577229E+02  0.78308388602E+02  0.90431648097E+02  0.00000000000E+00 0.  1.
         13    1    3    3    0    0  0.41903593123E+02 -0.17022577229E+02  0.10550554744E+03  0.11479154931E+03  0.00000000000E+00 0. -1.
<mgrwt>
<rscale>  0 0.91263342E+02</rscale>
<asrwt>0</asrwt>
<pdfrwt beam="1">  1        1 0.29925931E-01 0.91263342E+02</pdfrwt>
<pdfrwt beam="2">  1       -1 0.16468664E-02 0.91263342E+02</pdfrwt>
<totfact> 0.11747098E+05</totfact>
</mgrwt>
</event>
<event>
 5    1  0.1265228E+001  0.8935337E+02  0.7546771E-02  0.1304425E+00
         -1   -1    0    0    0  501 -0.00000000000E+00  0.00000000000E+00  0.16530964830E+02  0.16530964830E+02  0.00000000000E+00 0.  1.
          1   -1    0    0  501    0  0.00000000000E+00 -0.00000000000E+00 -0.12074349094E+03  0.12074349094E+03  0.00000000000E+00 0. -1.
         23    2    1    2    0    0  0.00000000000E+00  0.00000000000E+00 -0.10421252611E+03  0.13727445577E+03  0.89353374914E+02 0.  0.
        -13    1    3    3    0    0 -0.24661435791E+02  0.32518417409E+02 -0.24182063984E+02  0.47438445427E+02  0.00000000000E+00 0.  1.
         13    1    3    3    0    0  0.24661435791E+02 -0.32518417409E+02 -0.80030462126E+02  0.89836010342E+02  0.00000000000E+00 0. -1.
<mgrwt>
<rscale>  0 0.89353375E+02</rscale>
<asrwt>0</asrwt>
<pdfrwt beam="2">  1        1 0.18575922E-01 0.89353375E+02</pdfrwt>
<pdfrwt beam="1">  1       -1 0.25432253E-02 0.89353375E+02</pdfrwt>
<totfact> 0.11391533E+05</totfact>
</mgrwt>
</event>
<event>
 5    1  0.1265228E+001  0.9020394E+02  0.7546771E-02  0.1302359E+00
          3   -1    0    0  501    0  0.00000000000E+00  0.00000000000E+00  0.57951447580E+01  0.57951447580E+01  0.00000000000E+00 0. -1.
         -3   -1    0    0    0  501 -0.00000000000E+00 -0.00000000000E+00 -0.35101586332E+03  0.35101586332E+03  0.00000000000E+00 0.  1.
         23    2    1    2    0    0  0.00000000000E+00  0.00000000000E+00 -0.34522071856E+03  0.35681100808E+03  0.90203940941E+02 0.  0.
        -11    1    3    3    0    0  0.33847051243E+02  0.29530764174E+02 -0.15654319245E+03  0.16286024688E+03  0.00000000000E+00 0.  1.
         11    1    3    3    0    0 -0.33847051243E+02 -0.29530764174E+02 -0.18867752611E+03  0.19395076120E+03  0.00000000000E+00 0. -1.
<mgrwt>
<rscale>  0 0.90203941E+02</rscale>
<asrwt>0</asrwt>
<pdfrwt beam="1">  1        3 0.89156037E-03 0.90203941E+02</pdfrwt>
<pdfrwt beam="2">  1       -3 0.54002462E-01 0.90203941E+02</pdfrwt>
<totfact> 0.22615239E+04</totfact>
</mgrwt>
</event>
<event>
 5    1  0.1265228E+001  0.9056947E+02  0.7546771E-02  0.1301478E+00
          2   -1    0    0  501    0  0.00000000000E+00  0.00000000000E+00  0.20285224046E+03  0.20285224046E+03  0.00000000000E+00 0.  1.
         -2   -1    0    0    0  501 -0.00000000000E+00 -0.00000000000E+00 -0.10109364451E+02  0.10109364451E+02  0.00000000000E+00 0. -1.
         23    2    1    2    0    0  0.00000000000E+00  0.00000000000E+00  0.19274287601E+03  0.21296160491E+03  0.90569470098E+02 0.  0.
        -11    1    3    3    0    0 -0.37821396368E+02 -0.12097202332E+02  0.45183692657E+02  0.60152858698E+02  0.00000000000E+00 0. -1.
         11    1    3    3    0    0  0.37821396368E+02  0.12097202332E+02  0.14755918335E+03  0.15280874621E+03  0.00000000000E+00 0.  1.
<mgrwt>
<rscale>  0 0.90569470E+02</rscale>
<asrwt>0</asrwt>
<pdfrwt beam="1">  1        2 0.31208034E-01 0.90569470E+02</pdfrwt>
<pdfrwt beam="2">  1       -2 0.15552870E-02 0.90569470E+02</pdfrwt>
<totfact> 0.15829431E+05</totfact>
</mgrwt>
</event>
<event>
 5    1  0.1265228E+001  0.9468923E+02  0.7546771E-02  0.1291878E+00
          3   -1    0    0  501    0  0.00000000000E+00  0.00000000000E+00  0.13488565311E+02  0.13488565311E+02  0.00000000000E+00 0. -1.
         -3   -1    0    0    0  501 -0.00000000000E+00 -0.00000000000E+00 -0.16617872178E+03  0.16617872178E+03  0.00000000000E+00 0.  1.
         23    2    1    2    0    0  0.00000000000E+00  0.00000000000E+00 -0.15269015647E+03  0.17966728709E+03  0.94689229419E+02 0.  0.
        -11    1    3    3    0    0 -0.19213089442E+02 -0.28308170070E+02 -0.14248644427E+02  0.37061019503E+02  0.00000000000E+00 0. -1.
         11    1    3    3    0    0  0.19213089442E+02  0.28308170070E+02 -0.13844151205E+03  0.14260626759E+03  0.00000000000E+00 0.  1.
<mgrwt>
<rscale>  0 0.94689229E+02</rscale>
<asrwt>0</asrwt>
<pdfrwt beam="1">  1        3 0.20751639E-02 0.94689229E+02</pdfrwt>
<pdfrwt beam="2">  1       -3 0.25565957E-01 0.94689229E+02</pdfrwt>
<totfact> 0.26702331E+04</totfact>
</mgrwt>
</event>
<event>
 5    1  0.1265228E+001  0.9213431E+02  0.7546771E-02  0.1297764E+00
         -2   -1    0    0    0  501 -0.00000000000E+00  0.00000000000E+00  0.58281157838E+01  0.58281157838E+01  0.00000000000E+00 0. -1.
          2   -1    0    0  501    0  0.00000000000E+00 -0.00000000000E+00 -0.36412842079E+03  0.36412842079E+03  0.00000000000E+00 0.  1.
         23    2    1    2    0    0  0.00000000000E+00  0.00000000000E+00 -0.35830030501E+03  0.36995653657E+03  0.92134306239E+02 0.  0.
        -13    1    3    3    0    0  0.29061574259E+02  0.31767788817E+02 -0.11336425556E+03  0.12126508955E+03  0.00000000000E+00 0. -1.
         13    1    3    3    0    0 -0.29061574259E+02 -0.31767788817E+02 -0.24493604945E+03  0.24869144702E+03  0.00000000000E+00 0.  1.
<mgrwt>
<rscale>  0 0.92134306E+02</rscale>
<asrwt>0</asrwt>
<pdfrwt beam="2">  1        2 0.56019739E-01 0.92134306E+02</pdfrwt>
<pdfrwt beam="1">  1       -2 0.89663348E-03 0.92134306E+02</pdfrwt>
<totfact> 0.18767030E+05</totfact>
</mgrwt>
</event>
<event>
 5    1  0.1265228E+001  0.9010182E+02  0.7546771E-02  0.1302605E+00
         -1   -1    0    0    0  501 -0.00000000000E+00  0.00000000000E+00  0.14767552445E+02  0.14767552445E+02  0.00000000000E+00 0.  1.
          1   -1    0    0  501    0  0.00000000000E+00 -0.00000000000E+00 -0.13743538684E+03  0.13743538684E+03  0.00000000000E+00 0. -1.
         23    2    1    2    0    0  0.00000000000E+00  0.00000000000E+00 -0.12266783440E+03  0.15220293929E+03  0.90101815364E+02 0.  0.
        -13    1    3    3    0    0  0.31999395993E+02 -0.49857696655E+01 -0.11423590446E+03  0.11873778300E+03  0.00000000000E+00 0. -1.
         13    1    3    3    0    0 -0.31999395993E+02  0.49857696655E+01 -0.84319299372E+01  0.33465156290E+02  0.00000000000E+00 0.  1.
<mgrwt>
<rscale>  0 0.90101815E+02</rscale>
<asrwt>0</asrwt>
<pdfrwt beam="2">  1        1 0.21143906E-01 0.90101815E+02</pdfrwt>
<pdfrwt beam="1">  1       -1 0.22719311E-02 0.90101815E+02</pdfrwt>
<totfact> 0.11395147E+05</totfact>
</mgrwt>
</event>
<event>
 5    1  0.1265228E+001  0.9004172E+02  0.7546771E-02  0.1302751E+00
         -1   -1    0    0    0  501 -0.00000000000E+00  0.00000000000E+00  0.83727014488E+02  0.83727014488E+02  0.00000000000E+00 0.  1.
          1   -1    0    0  501    0  0.00000000000E+00 -0.00000000000E+00 -0.24208167778E+02  0.24208167778E+02  0.00000000000E+00 0. -1.
         23    2    1    2    0    0  0.00000000000E+00  0.00000000000E+00  0.59518846711E+02  0.10793518227E+03  0.90041715093E+02 0.  0.
        -11    1    3    3    0    0  0.17473134454E+02 -0.18267848766E+02  0.74416571721E+02  0.78592944167E+02  0.00000000000E+00 0.  1.
         11    1    3    3    0    0 -0.17473134454E+02  0.18267848766E+02 -0.14897725010E+02  0.29342238099E+02  0.00000000000E+00 0. -1.
<mgrwt>
<rscale>  0 0.90041715E+02</rscale>
<asrwt>0</asrwt>
<pdfrwt beam="2">  1        1 0.37243335E-02 0.90041715E+02</pdfrwt>
<pdfrwt beam="1">  1       -1 0.12881079E-01 0.90041715E+02</pdfrwt>
<totfact> 0.86734222E+04</totfact>
</mgrwt>
</event>
<event>
 5    1  0.1265228E+001  0.9126078E+02  0.7546771E-02  0.1299827E+00
         -1   -1    0    0    0  501 -0.00000000000E+00  0.00000000000E+00  0.63090288267E+02  0.63090288267E+02  0.00000000000E+00 0.  1.
          1   -1    0    0  501    0  0.00000000000E+00 -0.00000000000E+00 -0.33002426383E+02  0.33002426383E+02  0.00000000000E+00 0. -1.
         23    2    1    2    0    0  0.00000000000E+00  0.00000000000E+00  0.30087861883E+02  0.96092714650E+02  0.91260782245E+02 0.  0.
        -11    1    3    3    0    0 -0.26407220689E+02  0.26415644712E+02 -0.12554616541E+02  0.39404898002E+02  0.00000000000E+00 0. -1.
         11    1    3    3    0    0  0.26407220689E+02 -0.26415644712E+02  0.42642478424E+02  0.56687816647E+02  0.00000000000E+00 0.  1.
<mgrwt>
<rscale>  0 0.91260782E+02</rscale>
<asrwt>0</asrwt>
<pdfrwt beam="2">  1        1 0.50772964E-02 0.91260782E+02</pdfrwt>
<pdfrwt beam="1">  1       -1 0.97061982E-02 0.91260782E+02</pdfrwt>
<totfact> 0.87780248E+04</totfact>
</mgrwt>
</event>
<event>
 5    1  0.1265228E+001  0.9192994E+02  0.7546771E-02  0.1298244E+00
         -4   -1    0    0    0  501 -0.00000000000E+00  0.00000000000E+00  0.14854989835E+02  0.14854989835E+02  0.00000000000E+00 0. -1.
          4   -1    0    0  501    0  0.00000000000E+00 -0.00000000000E+00 -0.14222683976E+03  0.14222683976E+03  0.00000000000E+00 0.  1.
         23    2    1    2    0    0  0.00000000000E+00  0.00000000000E+00 -0.12737184993E+03  0.15708182960E+03  0.91929935472E+02 0.  0.
        -13    1    3    3    0    0 -0.29221626727E+02  0.34477578470E+02 -0.49372321432E+02  0.66934542721E+02  0.00000000000E+00 0. -1.
         13    1    3    3    0    0  0.29221626727E+02 -0.34477578470E+02 -0.77999528494E+02  0.90147286876E+02  0.00000000000E+00 0.  1.
<mgrwt>
<rscale>  0 0.91929935E+02</rscale>
<asrwt>0</asrwt>
<pdfrwt beam="2">  1        4 0.21881052E-01 0.91929935E+02</pdfrwt>
<pdfrwt beam="1">  1       -4 0.22853831E-02 0.91929935E+02</pdfrwt>
<totfact> 0.22811221E+04</totfact>
</mgrwt>
</event>
<event>
 5    1  0.1265228E+001  0.9011770E+02  0.7546771E-02  0.1302567E+00
          3   -1    0    0  501    0  0.00000000000E+00  0.00000000000E+00  0.12090901878E+03  0.12090901878E+03  0.00000000000E+00 0. -1.
         -3   -1    0    0    0  501 -0.00000000000E+00 -0.00000000000E+00 -0.16791965146E+02  0.16791965146E+02  0.00000000000E+00 0.  1.
         23    2    1    2    0    0  0.00000000000E+00  0.00000000000E+00  0.10411705364E+03  0.13770098393E+03  0.90117701463E+02 0.  0.
        -11    1    3    3    0    0  0.43479200693E+02 -0.26308552236E+01  0.69676302595E+02  0.82171463632E+02  0.00000000000E+00 0.  1.
         11    1    3    3    0    0 -0.43479200693E+02  0.26308552236E+01  0.34440751040E+02  0.55529520296E+02  0.00000000000E+00 0. -1.
<mgrwt>
<rscale>  0 0.90117701E+02</rscale>
<asrwt>0</asrwt>
<pdfrwt beam="1">  1        3 0.18601387E-01 0.90117701E+02</pdfrwt>
<pdfrwt beam="2">  1       -3 0.25833793E-02 0.90117701E+02</pdfrwt>
<totfact> 0.33106846E+04</totfact>
</mgrwt>
</event>
<event>
 5    1  0.1265228E+001  0.8799296E+02  0.7546771E-02  0.1307786E+00
          2   -1    0    0  501    0  0.00000000000E+00  0.00000000000E+00  0.17402797898E+02  0.17402797898E+02  0.00000000000E+00 0. -1.
         -2   -1    0    0    0  501 -0.00000000000E+00 -0.00000000000E+00 -0.11122866884E+03  0.11122866884E+03  0.00000000000E+00 0.  1.
         23    2    1    2    0    0  0.00000000000E+00  0.00000000000E+00 -0.93825870937E+02  0.12863146673E+03  0.87992955268E+02 0.  0.
        -11    1    3    3    0    0 -0.30293509815E+02 -0.30952344060E+02 -0.58231161222E+02  0.72571430170E+02  0.00000000000E+00 0. -1.
         11    1    3    3    0    0  0.30293509815E+02  0.30952344060E+02 -0.35594709715E+02  0.56060036563E+02  0.00000000000E+00 0.  1.
<mgrwt>
<rscale>  0 0.87992955E+02</rscale>
<asrwt>0</asrwt>
<pdfrwt beam="1">  1        2 0.26773534E-02 0.87992955E+02</pdfrwt>
<pdfrwt beam="2">  1       -2 0.17112103E-01 0.87992955E+02</pdfrwt>
<totfact> 0.84434214E+04</totfact>
</mgrwt>
</event>
<event>
 5    1  0.1265228E+001  0.8987801E+02  0.7546771E-02  0.1303147E+00
         -4   -1    0    0    0  501 -0.00000000000E+00  0.00000000000E+00  0.17179033090E+03  0.17179033090E+03  0.00000000000E+00 0.  1.
          4   -1    0    0  501    0  0.00000000000E+00 -0.00000000000E+00 -0.11755690809E+02  0.11755690809E+02  0.00000000000E+00 0. -1.
         23    2    1    2    0    0  0.00000000000E+00  0.00000000000E+00  0.16003464010E+03  0.18354602171E+03  0.89878006520E+02 0.  0.
        -11    1    3    3    0    0 -0.36529341069E+02  0.53414602608E+01  0.27688770686E+02  0.46147502411E+02  0.00000000000E+00 0. -1.
         11    1    3    3    0    0  0.36529341069E+02 -0.53414602608E+01  0.13234586941E+03  0.13739851930E+03  0.00000000000E+00 0.  1.
<mgrwt>
<rscale>  0 0.89878007E+02</rscale>
<asrwt>0</asrwt>
<pdfrwt beam="2">  1        4 0.18085679E-02 0.89878007E+02</pdfrwt>
<pdfrwt beam="1">  1       -4 0.26429280E-01 0.89878007E+02</pdfrwt>
<totfact> 0.22957654E+04</totfact>
</mgrwt>
</event>
<event>
 5    1  0.1265228E+001  0.9094668E+02  0.7546771E-02  0.1300575E+00
         -1   -1    0    0    0  501 -0.00000000000E+00  0.00000000000E+00  0.19600005524E+02  0.19600005524E+02  0.00000000000E+00 0.  1.
          1   -1    0    0  501    0  0.00000000000E+00 -0.00000000000E+00 -0.10550123781E+03  0.10550123781E+03  0.00000000000E+00 0. -1.
         23    2    1    2    0    0  0.00000000000E+00  0.00000000000E+00 -0.85901232288E+02  0.12510124334E+03  0.90946684247E+02 0.  0.
        -13    1    3    3    0    0  0.20779146719E+02 -0.33188398069E+02 -0.74754633234E+02  0.84388967850E+02  0.00000000000E+00 0. -1.
         13    1    3    3    0    0 -0.20779146719E+02  0.33188398069E+02 -0.11146599054E+02  0.40712275486E+02  0.00000000000E+00 0.  1.
<mgrwt>
<rscale>  0 0.90946684E+02</rscale>
<asrwt>0</asrwt>
<pdfrwt beam="2">  1        1 0.16230960E-01 0.90946684E+02</pdfrwt>
<pdfrwt beam="1">  1       -1 0.30153855E-02 0.90946684E+02</pdfrwt>
<totfact> 0.10611966E+05</totfact>
</mgrwt>
</event>
<event>
 5    1  0.1265228E+001  0.9115458E+02  0.7546771E-02  0.1300080E+00
          2   -1    0    0  501    0  0.00000000000E+00  0.00000000000E+00  0.45822632391E+02  0.45822632391E+02  0.00000000000E+00 0. -1.
         -2   -1    0    0    0  501 -0.00000000000E+00 -0.00000000000E+00 -0.45333262633E+02  0.45333262633E+02  0.00000000000E+00 0.  1.
         23    2    1    2    0    0  0.00000000000E+00  0.00000000000E+00  0.48936975744E+00  0.91155895024E+02  0.91154581426E+02 0.  0.
        -11    1    3    3    0    0 -0.18891293871E+02  0.40339351989E+02  0.98959962050E+01  0.45629760506E+02  0.00000000000E+00 0. -1.
         11    1    3    3    0    0  0.18891293871E+02 -0.40339351989E+02 -0.94066264475E+01  0.45526134518E+02  0.00000000000E+00 0.  1.
<mgrwt>
<rscale>  0 0.91154581E+02</rscale>
<asrwt>0</asrwt>
<pdfrwt beam="1">  1        2 0.70496357E-02 0.91154581E+02</pdfrwt>
<pdfrwt beam="2">  1       -2 0.69743481E-02 0.91154581E+02</pdfrwt>
<totfact> 0.98875261E+04</totfact>
</mgrwt>
</event>
<event>
 5    1  0.1265228E+001  0.8951866E+02  0.7546771E-02  0.1304022E+00
         -2   -1    0    0    0  501 -0.00000000000E+00  0.00000000000E+00  0.16247982563E+02  0.16247982563E+02  0.00000000000E+00 0.  1.
          2   -1    0    0  501    0  0.00000000000E+00 -0.00000000000E+00 -0.12330131695E+03  0.12330131695E+03  0.00000000000E+00 0. -1.
         23    2    1    2    0    0  0.00000000000E+00  0.00000000000E+00 -0.10705333439E+03  0.13954929952E+03  0.89518660576E+02 0.  0.
        -11    1    3    3    0    0 -0.25661606106E+01  0.23950422560E+02  0.52825617676E+01  0.24659954986E+02  0.00000000000E+00 0.  1.
         11    1    3    3    0    0  0.25661606106E+01 -0.23950422560E+02 -0.11233589616E+03  0.11488934453E+03  0.00000000000E+00 0. -1.
<mgrwt>
<rscale>  0 0.89518661E+02</rscale>
<asrwt>0</asrwt>
<pdfrwt beam="2">  1        2 0.18969434E-01 0.89518661E+02</pdfrwt>
<pdfrwt beam="1">  1       -2 0.24996896E-02 0.89518661E+02</pdfrwt>
<totfact> 0.13772430E+05</totfact>
</mgrwt>
</event>
<event>
 5    1  0.1265228E+001  0.8972418E+02  0.7546771E-02  0.1303521E+00
          1   -1    0    0  501    0  0.00000000000E+00  0.00000000000E+00  0.20211151230E+03  0.20211151230E+03  0.00000000000E+00 0. -1.
         -1   -1    0    0    0  501 -0.00000000000E+00 -0.00000000000E+00 -0.99579042232E+01  0.99579042232E+01  0.00000000000E+00 0.  1.
         23    2    1    2    0    0  0.00000000000E+00  0.00000000000E+00  0.19215360808E+03  0.21206941653E+03  0.89724179169E+02 0.  0.
        -11    1    3    3    0    0  0.31016946411E+02 -0.98031850442E+01  0.16909750136E+03  0.17219790466E+03  0.00000000000E+00 0. -1.
         11    1    3    3    0    0 -0.31016946411E+02  0.98031850442E+01  0.23056106718E+02  0.39871511868E+02  0.00000000000E+00 0.  1.
<mgrwt>
<rscale>  0 0.89724179E+02</rscale>
<asrwt>0</asrwt>
<pdfrwt beam="1">  1        1 0.31094076E-01 0.89724179E+02</pdfrwt>
<pdfrwt beam="2">  1       -1 0.15319854E-02 0.89724179E+02</pdfrwt>
<totfact> 0.12386060E+05</totfact>
</mgrwt>
</event>
<event>
 5    1  0.1265228E+001  0.7654662E+02  0.7546771E-02  0.1339147E+00
         -1   -1    0    0    0  501 -0.00000000000E+00  0.00000000000E+00  0.10318690254E+03  0.10318690254E+03  0.00000000000E+00 0.  1.
          1   -1    0    0  501    0  0.00000000000E+00 -0.00000000000E+00 -0.14196047989E+02  0.14196047989E+02  0.00000000000E+00 0. -1.
         23    2    1    2    0    0  0.00000000000E+00  0.00000000000E+00  0.88990854549E+02  0.11738295053E+03  0.76546619006E+02 0.  0.
        -13    1    3    3    0    0 -0.28729410611E+02  0.14872796026E+02  0.75857580624E+02  0.82467882438E+02  0.00000000000E+00 0.  1.
         13    1    3    3    0    0  0.28729410611E+02 -0.14872796026E+02  0.13133273925E+02  0.34915068090E+02  0.00000000000E+00 0. -1.
<mgrwt>
<rscale>  0 0.76546619E+02</rscale>
<asrwt>0</asrwt>
<pdfrwt beam="2">  1        1 0.21840074E-02 0.76546619E+02</pdfrwt>
<pdfrwt beam="1">  1       -1 0.15874908E-01 0.76546619E+02</pdfrwt>
<totfact> 0.12673100E+05</totfact>
</mgrwt>
</event>
<event>
 5    1  0.1265228E+001  0.9023849E+02  0.7546771E-02  0.1302275E+00
          2   -1    0    0  501    0  0.00000000000E+00  0.00000000000E+00  0.11326620866E+03  0.11326620866E+03  0.00000000000E+00 0. -1.
         -2   -1    0    0    0  501 -0.00000000000E+00 -0.00000000000E+00 -0.17973111833E+02  0.17973111833E+02  0.00000000000E+00 0.  1.
         23    2    1    2    0    0  0.00000000000E+00  0.00000000000E+00  0.95293096830E+02  0.13123932050E+03  0.90238489242E+02 0.  0.
        -13    1    3    3    0    0 -0.31651438962E+02 -0.31301990559E+02  0.36947549037E+02  0.57851098358E+02  0.00000000000E+00 0.  1.
         13    1    3    3    0    0  0.31651438962E+02  0.31301990559E+02  0.58345547792E+02  0.73388222138E+02  0.00000000000E+00 0. -1.
<mgrwt>
<rscale>  0 0.90238489E+02</rscale>
<asrwt>0</asrwt>
<pdfrwt beam="1">  1        2 0.17425570E-01 0.90238489E+02</pdfrwt>
<pdfrwt beam="2">  1       -2 0.27650942E-02 0.90238489E+02</pdfrwt>
<totfact> 0.13116361E+05</totfact>
</mgrwt>
</event>
<event>
 5    1  0.1265228E+001  0.8588246E+02  0.7546771E-02  0.1313141E+00
          4   -1    0    0  501    0  0.00000000000E+00  0.00000000000E+00  0.22731396204E+03  0.22731396204E+03  0.00000000000E+00 0. -1.
         -4   -1    0    0    0  501 -0.00000000000E+00 -0.00000000000E+00 -0.81119052589E+01  0.81119052589E+01  0.00000000000E+00 0.  1.
         23    2    1    2    0    0  0.00000000000E+00  0.00000000000E+00  0.21920205678E+03  0.23542586730E+03  0.85882462100E+02 0.  0.
        -11    1    3    3    0    0 -0.30812913130E+01  0.36496993217E+02  0.48156236554E+02  0.60502462669E+02  0.00000000000E+00 0.  1.
         11    1    3    3    0    0  0.30812913130E+01 -0.36496993217E+02  0.17104582023E+03  0.17492340463E+03  0.00000000000E+00 0. -1.
<mgrwt>
<rscale>  0 0.85882462E+02</rscale>
<asrwt>0</asrwt>
<pdfrwt beam="1">  1        4 0.34971374E-01 0.85882462E+02</pdfrwt>
<pdfrwt beam="2">  1       -4 0.12479856E-02 0.85882462E+02</pdfrwt>
<totfact> 0.23432172E+04</totfact>
</mgrwt>
</event>
<event>
 5    1  0.1265228E+001  0.9242645E+02  0.7546771E-02  0.1297080E+00
         -1   -1    0    0    0  501 -0.00000000000E+00  0.00000000000E+00  0.24481240602E+03  0.24481240602E+03  0.00000000000E+00 0.  1.
          1   -1    0    0  501    0  0.00000000000E+00 -0.00000000000E+00 -0.87236672023E+01  0.87236672023E+01  0.00000000000E+00 0. -1.
         23    2    1    2    0    0  0.00000000000E+00  0.00000000000E+00  0.23608873882E+03  0.25353607323E+03  0.92426445504E+02 0.  0.
        -11    1    3    3    0    0  0.43104528527E+02 -0.16229378941E+02  0.12840623115E+03  0.13641683664E+03  0.00000000000E+00 0. -1.
         11    1    3    3    0    0 -0.43104528527E+02  0.16229378941E+02  0.10768250767E+03  0.11711923659E+03  0.00000000000E+00 0.  1.
<mgrwt>
<rscale>  0 0.92426446E+02</rscale>
<asrwt>0</asrwt>
<pdfrwt beam="2">  1        1 0.13421028E-02 0.92426446E+02</pdfrwt>
<pdfrwt beam="1">  1       -1 0.37663442E-01 0.92426446E+02</pdfrwt>
<totfact> 0.62943213E+04</totfact>
</mgrwt>
</event>
<event>
 5    1  0.1265228E+001  0.9188215E+02  0.7546771E-02  0.1298357E+00
         -3   -1    0    0    0  501 -0.00000000000E+00  0.00000000000E+00  0.29699185089E+03  0.29699185089E+03  0.00000000000E+00 0.  1.
          3   -1    0    0  501    0  0.00000000000E+00 -0.00000000000E+00 -0.71065326828E+01  0.71065326828E+01  0.00000000000E+00 0. -1.
         23    2    1    2    0    0  0.00000000000E+00  0.00000000000E+00  0.28988531820E+03  0.30409838357E+03  0.91882148317E+02 0.  0.
        -13    1    3    3    0    0  0.44918077083E+02  0.71599941511E+01  0.16631062249E+03  0.17241845121E+03  0.00000000000E+00 0.  1.
         13    1    3    3    0    0 -0.44918077083E+02 -0.71599941511E+01  0.12357469572E+03  0.13167993236E+03  0.00000000000E+00 0. -1.
<mgrwt>
<rscale>  0 0.91882148E+02</rscale>
<asrwt>0</asrwt>
<pdfrwt beam="2">  1        3 0.10933129E-02 0.91882148E+02</pdfrwt>
<pdfrwt beam="1">  1       -3 0.45691044E-01 0.91882148E+02</pdfrwt>
<totfact> 0.23376197E+04</totfact>
</mgrwt>
</event>
<event>
 5    1  0.1265228E+001  0.8370459E+02  0.7546771E-02  0.1318855E+00
          2   -1    0    0  501    0  0.00000000000E+00  0.00000000000E+00  0.37515551242E+03  0.37515551242E+03  0.00000000000E+00 0. -1.
         -2   -1    0    0    0  501 -0.00000000000E+00 -0.00000000000E+00 -0.46690360337E+01  0.46690360337E+01  0.00000000000E+00 0.  1.
         23    2    1    2    0    0  0.00000000000E+00  0.00000000000E+00  0.37048647638E+03  0.37982454845E+03  0.83704590213E+02 0.  0.
        -11    1    3    3    0    0 -0.20594148576E+01 -0.40903567414E+02  0.22434939283E+03  0.22805699525E+03  0.00000000000E+00 0. -1.
         11    1    3    3    0    0  0.20594148576E+01  0.40903567414E+02  0.14613708355E+03  0.15176755320E+03  0.00000000000E+00 0.  1.
<mgrwt>
<rscale>  0 0.83704590E+02</rscale>
<asrwt>0</asrwt>
<pdfrwt beam="1">  1        2 0.57716209E-01 0.83704590E+02</pdfrwt>
<pdfrwt beam="2">  1       -2 0.71831353E-03 0.83704590E+02</pdfrwt>
<totfact> 0.24455339E+05</totfact>
</mgrwt>
</event>
<event>
 5    1  0.1265228E+001  0.8685568E+02  0.7546771E-02  0.1310650E+00
         -1   -1    0    0    0  501 -0.00000000000E+00  0.00000000000E+00  0.29224022269E+03  0.29224022269E+03  0.00000000000E+00 0.  1.
          1   -1    0    0  501    0  0.00000000000E+00 -0.00000000000E+00 -0.64535174688E+01  0.64535174688E+01  0.00000000000E+00 0. -1.
         23    2    1    2    0    0  0.00000000000E+00  0.00000000000E+00  0.28578670522E+03  0.29869374016E+03  0.86855682191E+02 0.  0.
        -13    1    3    3    0    0  0.21941040726E+02 -0.33612112221E+02  0.85885913918E+02  0.94802814123E+02  0.00000000000E+00 0. -1.
         13    1    3    3    0    0 -0.21941040726E+02  0.33612112221E+02  0.19990079130E+03  0.20389092604E+03  0.00000000000E+00 0.  1.
<mgrwt>
<rscale>  0 0.86855682E+02</rscale>
<asrwt>0</asrwt>
<pdfrwt beam="2">  1        1 0.99284907E-03 0.86855682E+02</pdfrwt>
<pdfrwt beam="1">  1       -1 0.44960024E-01 0.86855682E+02</pdfrwt>
<totfact> 0.69473627E+04</totfact>
</mgrwt>
</event>
<event>
 5    1  0.1265228E+001  0.9210566E+02  0.7546771E-02  0.1297831E+00
         -3   -1    0    0    0  501 -0.00000000000E+00  0.00000000000E+00  0.87877740424E+01  0.87877740424E+01  0.00000000000E+00 0.  1.
          3   -1    0    0  501    0  0.00000000000E+00 -0.00000000000E+00 -0.24134249842E+03  0.24134249842E+03  0.00000000000E+00 0. -1.
         23    2    1    2    0    0  0.00000000000E+00  0.00000000000E+00 -0.23255472438E+03  0.25013027246E+03  0.92105664168E+02 0.  0.
        -13    1    3    3    0    0  0.16155483007E+02 -0.36823698367E+02 -0.55317633476E+02  0.68388778071E+02  0.00000000000E+00 0.  1.
         13    1    3    3    0    0 -0.16155483007E+02  0.36823698367E+02 -0.17723709090E+03  0.18174149439E+03  0.00000000000E+00 0. -1.
<mgrwt>
<rscale>  0 0.92105664E+02</rscale>
<asrwt>0</asrwt>
<pdfrwt beam="2">  1        3 0.37129618E-01 0.92105664E+02</pdfrwt>
<pdfrwt beam="1">  1       -3 0.13519651E-02 0.92105664E+02</pdfrwt>
<totfact> 0.25394720E+04</totfact>
</mgrwt>
</event>
<event>
 5    1  0.1265228E+001  0.9269193E+02  0.7546771E-02  0.1296461E+00
          1   -1    0    0  501    0  0.00000000000E+00  0.00000000000E+00  0.64935309042E+02  0.64935309042E+02  0.00000000000E+00 0. -1.
         -1   -1    0    0    0  501 -0.00000000000E+00 -0.00000000000E+00 -0.33078278676E+02  0.33078278676E+02  0.00000000000E+00 0.  1.
         23    2    1    2    0    0  0.00000000000E+00  0.00000000000E+00  0.31857030367E+02  0.98013587718E+02  0.92691925180E+02 0.  0.
        -13    1    3    3    0    0 -0.41577545646E+02  0.97963916258E+01 -0.30839431241E+01  0.42827237782E+02  0.00000000000E+00 0.  1.
         13    1    3    3    0    0  0.41577545646E+02 -0.97963916258E+01  0.34940973491E+02  0.55186349936E+02  0.00000000000E+00 0. -1.
<mgrwt>
<rscale>  0 0.92691925E+02</rscale>
<asrwt>0</asrwt>
<pdfrwt beam="1">  1        1 0.99900475E-02 0.92691925E+02</pdfrwt>
<pdfrwt beam="2">  1       -1 0.50889660E-02 0.92691925E+02</pdfrwt>
<totfact> 0.93181365E+04</totfact>
</mgrwt>
</event>
<event>
 5    1  0.1265228E+001  0.9318270E+02  0.7546771E-02  0.1295322E+00
         -3   -1    0    0    0  501 -0.00000000000E+00  0.00000000000E+00  0.15812763363E+02  0.15812763363E+02  0.00000000000E+00 0.  1.
          3   -1    0    0  501    0  0.00000000000E+00 -0.00000000000E+00 -0.13727858691E+03  0.13727858691E+03  0.00000000000E+00 0. -1.
         23    2    1    2    0    0  0.00000000000E+00  0.00000000000E+00 -0.12146582355E+03  0.15309135027E+03  0.93182698171E+02 0.  0.
        -13    1    3    3    0    0 -0.29306400784E+02  0.15695682712E+02 -0.11436183464E+03  0.11909596469E+03  0.00000000000E+00 0. -1.
         13    1    3    3    0    0  0.29306400784E+02 -0.15695682712E+02 -0.71039889073E+01  0.33995385586E+02  0.00000000000E+00 0.  1.
<mgrwt>
<rscale>  0 0.93182698E+02</rscale>
<asrwt>0</asrwt>
<pdfrwt beam="2">  1        3 0.21119782E-01 0.93182698E+02</pdfrwt>
<pdfrwt beam="1">  1       -3 0.24327329E-02 0.93182698E+02</pdfrwt>
<totfact> 0.29333733E+04</totfact>
</mgrwt>
</event>
<event>
 5    1  0.1265228E+001  0.9386033E+02  0.7546771E-02  0.1293764E+00
          2   -1    0    0  501    0  0.00000000000E+00  0.00000000000E+00  0.46594881597E+02  0.46594881597E+02  0.00000000000E+00 0. -1.
         -2   -1    0    0    0  501 -0.00000000000E+00 -0.00000000000E+00 -0.47267857714E+02  0.47267857714E+02  0.00000000000E+00 0.  1.
         23    2    1    2    0    0  0.00000000000E+00  0.00000000000E+00 -0.67297611778E+00  0.93862739311E+02  0.93860326731E+02 0.  0.
        -13    1    3    3    0    0 -0.35459841785E+02 -0.26354065492E+02 -0.16164184169E+02  0.47044850911E+02  0.00000000000E+00 0.  1.
         13    1    3    3    0    0  0.35459841785E+02  0.26354065492E+02  0.15491208051E+02  0.46817888400E+02  0.00000000000E+00 0. -1.
<mgrwt>
<rscale>  0 0.93860327E+02</rscale>
<asrwt>0</asrwt>
<pdfrwt beam="1">  1        2 0.71684433E-02 0.93860327E+02</pdfrwt>
<pdfrwt beam="2">  1       -2 0.72719781E-02 0.93860327E+02</pdfrwt>
<totfact> 0.91291675E+04</totfact>
</mgrwt>
</event>
<event>
 5    1  0.1265228E+001  0.9118843E+02  0.7546771E-02  0.1299999E+00
         -2   -1    0    0    0  501 -0.00000000000E+00  0.00000000000E+00  0.25696213802E+02  0.25696213802E+02  0.00000000000E+00 0.  1.
          2   -1    0    0  501    0  0.00000000000E+00 -0.00000000000E+00 -0.80900341138E+02  0.80900341138E+02  0.00000000000E+00 0. -1.
         23    2    1    2    0    0  0.00000000000E+00  0.00000000000E+00 -0.55204127336E+02  0.10659655494E+03  0.91188430463E+02 0.  0.
        -11    1    3    3    0    0 -0.82244619823E+01 -0.40647758395E+02 -0.54547699965E+01  0.41828657081E+02  0.00000000000E+00 0.  1.
         11    1    3    3    0    0  0.82244619823E+01  0.40647758395E+02 -0.49749357340E+02  0.64767897860E+02  0.00000000000E+00 0. -1.
<mgrwt>
<rscale>  0 0.91188430E+02</rscale>
<asrwt>0</asrwt>
<pdfrwt beam="2">  1        2 0.12446206E-01 0.91188430E+02</pdfrwt>
<pdfrwt beam="1">  1       -2 0.39532637E-02 0.91188430E+02</pdfrwt>
<totfact> 0.11518379E+05</totfact>
</mgrwt>
</event>
<event>
 5    1  0.1265228E+001  0.9251895E+02  0.7546771E-02  0.1296864E+00
          2   -1    0    0  501    0  0.00000000000E+00  0.00000000000E+00  0.92179600923E+02  0.92179600923E+02  0.00000000000E+00 0. -1.
         -2   -1    0    0    0  501 -0.00000000000E+00 -0.00000000000E+00 -0.23214888702E+02  0.23214888702E+02  0.00000000000E+00 0.  1.
         23    2    1    2    0    0  0.00000000000E+00  0.00000000000E+00  0.68964712222E+02  0.11539448962E+03  0.92518953215E+02 0.  0.
        -13    1    3    3    0    0 -0.36075073144E+02  0.70702189688E+01  0.69506401006E+02  0.78629121065E+02  0.00000000000E+00 0. -1.
         13    1    3    3    0    0  0.36075073144E+02 -0.70702189688E+01 -0.54168878480E+00  0.36765368560E+02  0.00000000000E+00 0.  1.
<mgrwt>
<rscale>  0 0.92518953E+02</rscale>
<asrwt>0</asrwt>
<pdfrwt beam="1">  1        2 0.14181477E-01 0.92518953E+02</pdfrwt>
<pdfrwt beam="2">  1       -2 0.35715214E-02 0.92518953E+02</pdfrwt>
<totfact> 0.11496053E+05</totfact>
</mgrwt>
</event>
<event>
 5    1  0.1265228E+001  0.9207864E+02  0.7546771E-02  0.1297895E+00
          2   -1    0    0  501    0  0.00000000000E+00  0.00000000000E+00  0.96337486062E+02  0.96337486062E+02  0.00000000000E+00 0. -1.
         -2   -1    0    0    0  501 -0.00000000000E+00 -0.00000000000E+00 -0.22002015265E+02  0.22002015265E+02  0.00000000000E+00 0.  1.
         23    2    1    2    0    0  0.00000000000E+00  0.00000000000E+00  0.74335470797E+02  0.11833950133E+03  0.92078636804E+02 0.  0.
        -13    1    3    3    0    0 -0.36164487213E+02 -0.27492416029E+02  0.27557412340E+02  0.53132984571E+02  0.00000000000E+00 0.  1.
         13    1    3    3    0    0  0.36164487213E+02  0.27492416029E+02  0.46778058457E+02  0.65206516757E+02  0.00000000000E+00 0. -1.
<mgrwt>
<rscale>  0 0.92078637E+02</rscale>
<asrwt>0</asrwt>
<pdfrwt beam="1">  1        2 0.14821151E-01 0.92078637E+02</pdfrwt>
<pdfrwt beam="2">  1       -2 0.33849255E-02 0.92078637E+02</pdfrwt>
<totfact> 0.11804488E+05</totfact>
</mgrwt>
</event>
<event>
 5    1  0.1265228E+001  0.6995791E+02  0.7546771E-02  0.1360236E+00
         -2   -1    0    0    0  501 -0.00000000000E+00  0.00000000000E+00  0.35677199697E+02  0.35677199697E+02  0.00000000000E+00 0. -1.
          2   -1    0    0  501    0  0.00000000000E+00 -0.00000000000E+00 -0.34294371480E+02  0.34294371480E+02  0.00000000000E+00 0.  1.
         23    2    1    2    0    0  0.00000000000E+00  0.00000000000E+00  0.13828282173E+01  0.69971571176E+02  0.69957905622E+02 0.  0.
        -11    1    3    3    0    0  0.16736124308E+02 -0.11067799442E+02 -0.27966112849E+02  0.34419435051E+02  0.00000000000E+00 0.  1.
         11    1    3    3    0    0 -0.16736124308E+02  0.11067799442E+02  0.29348941066E+02  0.35552136125E+02  0.00000000000E+00 0. -1.
<mgrwt>
<rscale>  0 0.69957906E+02</rscale>
<asrwt>0</asrwt>
<pdfrwt beam="2">  1        2 0.52760571E-02 0.69957906E+02</pdfrwt>
<pdfrwt beam="1">  1       -2 0.54888000E-02 0.69957906E+02</pdfrwt>
<totfact> 0.19481733E+05</totfact>
</mgrwt>
</event>
<event>
 5    1  0.1265228E+001  0.9232127E+02  0.7546771E-02  0.1297326E+00
          2   -1    0    0  501    0  0.00000000000E+00  0.00000000000E+00  0.19039083715E+02  0.19039083715E+02  0.00000000000E+00 0. -1.
         -2   -1    0    0    0  501 -0.00000000000E+00 -0.00000000000E+00 -0.11191736331E+03  0.11191736331E+03  0.00000000000E+00 0.  1.
         23    2    1    2    0    0  0.00000000000E+00  0.00000000000E+00 -0.92878279596E+02  0.13095644703E+03  0.92321266223E+02 0.  0.
        -13    1    3    3    0    0  0.20405573729E+02  0.25904622135E+02 -0.92257940074E+02  0.97974304763E+02  0.00000000000E+00 0.  1.
         13    1    3    3    0    0 -0.20405573729E+02 -0.25904622135E+02 -0.62033952284E+00  0.32982142264E+02  0.00000000000E+00 0. -1.
<mgrwt>
<rscale>  0 0.92321266E+02</rscale>
<asrwt>0</asrwt>
<pdfrwt beam="1">  1        2 0.29290898E-02 0.92321266E+02</pdfrwt>
<pdfrwt beam="2">  1       -2 0.17218056E-01 0.92321266E+02</pdfrwt>
<totfact> 0.74737087E+04</totfact>
</mgrwt>
</event>
<event>
 5    1  0.1265228E+001  0.9136164E+02  0.7546771E-02  0.1299587E+00
         -2   -1    0    0    0  501 -0.00000000000E+00  0.00000000000E+00  0.48968613414E+01  0.48968613414E+01  0.00000000000E+00 0.  1.
          2   -1    0    0  501    0  0.00000000000E+00 -0.00000000000E+00 -0.42613769954E+03  0.42613769954E+03  0.00000000000E+00 0. -1.
         23    2    1    2    0    0  0.00000000000E+00  0.00000000000E+00 -0.42124083820E+03  0.43103456088E+03  0.91361638054E+02 0.  0.
        -11    1    3    3    0    0 -0.21045394553E+02 -0.40264933080E+02 -0.23303104282E+03  0.23741870268E+03  0.00000000000E+00 0. -1.
         11    1    3    3    0    0  0.21045394553E+02  0.40264933080E+02 -0.18820979538E+03  0.19361585820E+03  0.00000000000E+00 0.  1.
<mgrwt>
<rscale>  0 0.91361638E+02</rscale>
<asrwt>0</asrwt>
<pdfrwt beam="2">  1        2 0.65559674E-01 0.91361638E+02</pdfrwt>
<pdfrwt beam="1">  1       -2 0.75336296E-03 0.91361638E+02</pdfrwt>
<totfact> 0.20305427E+05</totfact>
</mgrwt>
</event>
<event>
 5    1  0.1265228E+001  0.9353125E+02  0.7546771E-02  0.1294519E+00
         -3   -1    0    0    0  501 -0.00000000000E+00  0.00000000000E+00  0.56810851203E+01  0.56810851203E+01  0.00000000000E+00 0.  1.
          3   -1    0    0  501    0  0.00000000000E+00 -0.00000000000E+00 -0.38496587509E+03  0.38496587509E+03  0.00000000000E+00 0. -1.
         23    2    1    2    0    0  0.00000000000E+00  0.00000000000E+00 -0.37928478997E+03  0.39064696021E+03  0.93531254771E+02 0.  0.
        -11    1    3    3    0    0  0.39050176260E+02  0.25708832261E+02 -0.19414772176E+03  0.19969776711E+03  0.00000000000E+00 0. -1.
         11    1    3    3    0    0 -0.39050176260E+02 -0.25708832261E+02 -0.18513706821E+03  0.19094919310E+03  0.00000000000E+00 0.  1.
<mgrwt>
<rscale>  0 0.93531255E+02</rscale>
<asrwt>0</asrwt>
<pdfrwt beam="2">  1        3 0.59225529E-01 0.93531255E+02</pdfrwt>
<pdfrwt beam="1">  1       -3 0.87401295E-03 0.93531255E+02</pdfrwt>
<totfact> 0.19518684E+04</totfact>
</mgrwt>
</event>
<event>
 5    1  0.1265228E+001  0.9032254E+02  0.7546771E-02  0.1302072E+00
         -2   -1    0    0    0  501 -0.00000000000E+00  0.00000000000E+00  0.14744278979E+02  0.14744278979E+02  0.00000000000E+00 0.  1.
          2   -1    0    0  501    0  0.00000000000E+00 -0.00000000000E+00 -0.13832757046E+03  0.13832757046E+03  0.00000000000E+00 0. -1.
         23    2    1    2    0    0  0.00000000000E+00  0.00000000000E+00 -0.12358329148E+03  0.15307184944E+03  0.90322539586E+02 0.  0.
        -13    1    3    3    0    0 -0.11214573692E+02  0.27039590918E+02 -0.12007229712E+03  0.12358908801E+03  0.00000000000E+00 0. -1.
         13    1    3    3    0    0  0.11214573692E+02 -0.27039590918E+02 -0.35109943647E+01  0.29482761430E+02  0.00000000000E+00 0.  1.
<mgrwt>
<rscale>  0 0.90322540E+02</rscale>
<asrwt>0</asrwt>
<pdfrwt beam="2">  1        2 0.21281165E-01 0.90322540E+02</pdfrwt>
<pdfrwt beam="1">  1       -2 0.22683506E-02 0.90322540E+02</pdfrwt>
<totfact> 0.13957189E+05</totfact>
</mgrwt>
</event>
<event>
 5    1  0.1265228E+001  0.9221829E+02  0.7546771E-02  0.1297567E+00
          2   -1    0    0  501    0  0.00000000000E+00  0.00000000000E+00  0.68462492596E+02  0.68462492596E+02  0.00000000000E+00 0. -1.
         -2   -1    0    0    0  501 -0.00000000000E+00 -0.00000000000E+00 -0.31054280161E+02  0.31054280161E+02  0.00000000000E+00 0.  1.
         23    2    1    2    0    0  0.00000000000E+00  0.00000000000E+00  0.37408212436E+02  0.99516772757E+02  0.92218293751E+02 0.  0.
        -13    1    3    3    0    0 -0.23162825594E+02 -0.22326588113E+02 -0.16941302419E+02  0.36359328293E+02  0.00000000000E+00 0.  1.
         13    1    3    3    0    0  0.23162825594E+02  0.22326588113E+02  0.54349514855E+02  0.63157444464E+02  0.00000000000E+00 0. -1.
<mgrwt>
<rscale>  0 0.92218294E+02</rscale>
<asrwt>0</asrwt>
<pdfrwt beam="1">  1        2 0.10532691E-01 0.92218294E+02</pdfrwt>
<pdfrwt beam="2">  1       -2 0.47775816E-02 0.92218294E+02</pdfrwt>
<totfact> 0.10649387E+05</totfact>
</mgrwt>
</event>
<event>
 5    1  0.1265228E+001  0.9410934E+02  0.7546771E-02  0.1293195E+00
          2   -1    0    0  501    0  0.00000000000E+00  0.00000000000E+00  0.72090436311E+02  0.72090436311E+02  0.00000000000E+00 0. -1.
         -2   -1    0    0    0  501 -0.00000000000E+00 -0.00000000000E+00 -0.30713395320E+02  0.30713395320E+02  0.00000000000E+00 0.  1.
         23    2    1    2    0    0  0.00000000000E+00  0.00000000000E+00  0.41377040990E+02  0.10280383163E+03  0.94109342134E+02 0.  0.
        -13    1    3    3    0    0 -0.10244045561E+02  0.19232148827E+02  0.66246773810E+02  0.69738447489E+02  0.00000000000E+00 0. -1.
         13    1    3    3    0    0  0.10244045561E+02 -0.19232148827E+02 -0.24869732820E+02  0.33065384142E+02  0.00000000000E+00 0.  1.
<mgrwt>
<rscale>  0 0.94109342E+02</rscale>
<asrwt>0</asrwt>
<pdfrwt beam="1">  1        2 0.11090836E-01 0.94109342E+02</pdfrwt>
<pdfrwt beam="2">  1       -2 0.47251378E-02 0.94109342E+02</pdfrwt>
<totfact> 0.10205674E+05</totfact>
</mgrwt>
</event>
<event>
 5    1  0.1265228E+001  0.9091753E+02  0.7546771E-02  0.1300645E+00
          1   -1    0    0  501    0  0.00000000000E+00  0.00000000000E+00  0.10794718551E+02  0.10794718551E+02  0.00000000000E+00 0. -1.
         -1   -1    0    0    0  501 -0.00000000000E+00 -0.00000000000E+00 -0.19143615653E+03  0.19143615653E+03  0.00000000000E+00 0.  1.
         23    2    1    2    0    0  0.00000000000E+00  0.00000000000E+00 -0.18064143797E+03  0.20223087508E+03  0.90917532526E+02 0.  0.
        -11    1    3    3    0    0 -0.29546026064E+02  0.34080121386E+02 -0.10291859621E+03  0.11236841093E+03  0.00000000000E+00 0. -1.
         11    1    3    3    0    0  0.29546026064E+02 -0.34080121386E+02 -0.77722841767E+02  0.89862464145E+02  0.00000000000E+00 0.  1.
<mgrwt>
<rscale>  0 0.90917533E+02</rscale>
<asrwt>0</asrwt>
<pdfrwt beam="1">  1        1 0.16607260E-02 0.90917533E+02</pdfrwt>
<pdfrwt beam="2">  1       -1 0.29451716E-01 0.90917533E+02</pdfrwt>
<totfact> 0.70808621E+04</totfact>
</mgrwt>
</event>
<event>
 5    1  0.1265228E+001  0.9917939E+02  0.7546771E-02  0.1282031E+00
         -3   -1    0    0    0  501 -0.00000000000E+00  0.00000000000E+00  0.96676183460E+02  0.96676183460E+02  0.00000000000E+00 0.  1.
          3   -1    0    0  501    0  0.00000000000E+00 -0.00000000000E+00 -0.25436854411E+02  0.25436854411E+02  0.00000000000E+00 0. -1.
         23    2    1    2    0    0  0.00000000000E+00  0.00000000000E+00  0.71239329048E+02  0.12211303787E+03  0.99179393096E+02 0.  0.
        -13    1    3    3    0    0  0.72769778428E+01 -0.46849711287E+02  0.17722750206E+02  0.50615666834E+02  0.00000000000E+00 0. -1.
         13    1    3    3    0    0 -0.72769778428E+01  0.46849711287E+02  0.53516578842E+02  0.71497371037E+02  0.00000000000E+00 0.  1.
<mgrwt>
<rscale>  0 0.99179393E+02</rscale>
<asrwt>0</asrwt>
<pdfrwt beam="2">  1        3 0.39133623E-02 0.99179393E+02</pdfrwt>
<pdfrwt beam="1">  1       -3 0.14873259E-01 0.99179393E+02</pdfrwt>
<totfact> 0.26306293E+04</totfact>
</mgrwt>
</event>
<event>
 5    1  0.1265228E+001  0.1068306E+03  0.7546771E-02  0.1266554E+00
         -4   -1    0    0    0  501 -0.00000000000E+00  0.00000000000E+00  0.33818634437E+03  0.33818634437E+03  0.00000000000E+00 0.  1.
          4   -1    0    0  501    0  0.00000000000E+00 -0.00000000000E+00 -0.84367568203E+01  0.84367568203E+01  0.00000000000E+00 0. -1.
         23    2    1    2    0    0  0.00000000000E+00  0.00000000000E+00  0.32974958755E+03  0.34662310119E+03  0.10683063133E+03 0.  0.
        -13    1    3    3    0    0 -0.50474041775E+02 -0.16009740566E+02  0.18764610413E+03  0.19497436006E+03  0.00000000000E+00 0.  1.
         13    1    3    3    0    0  0.50474041775E+02  0.16009740566E+02  0.14210348343E+03  0.15164874114E+03  0.00000000000E+00 0. -1.
<mgrwt>
<rscale>  0 0.10683063E+03</rscale>
<asrwt>0</asrwt>
<pdfrwt beam="2">  1        4 0.12979628E-02 0.10683063E+03</pdfrwt>
<pdfrwt beam="1">  1       -4 0.52028658E-01 0.10683063E+03</pdfrwt>
<totfact> 0.10779735E+04</totfact>
</mgrwt>
</event>
<event>
 5    1  0.1265228E+001  0.9484937E+02  0.7546771E-02  0.1291516E+00
         -2   -1    0    0    0  501 -0.00000000000E+00  0.00000000000E+00  0.10560595076E+02  0.10560595076E+02  0.00000000000E+00 0.  1.
          2   -1    0    0  501    0  0.00000000000E+00 -0.00000000000E+00 -0.21297103794E+03  0.21297103794E+03  0.00000000000E+00 0. -1.
         23    2    1    2    0    0  0.00000000000E+00  0.00000000000E+00 -0.20241044287E+03  0.22353163302E+03  0.94849373106E+02 0.  0.
        -13    1    3    3    0    0 -0.28878379769E+02  0.35678179363E+02 -0.12930907800E+03  0.13721417913E+03  0.00000000000E+00 0. -1.
         13    1    3    3    0    0  0.28878379769E+02 -0.35678179363E+02 -0.73101364865E+02  0.86317453888E+02  0.00000000000E+00 0.  1.
<mgrwt>
<rscale>  0 0.94849373E+02</rscale>
<asrwt>0</asrwt>
<pdfrwt beam="2">  1        2 0.32764774E-01 0.94849373E+02</pdfrwt>
<pdfrwt beam="1">  1       -2 0.16247070E-02 0.94849373E+02</pdfrwt>
<totfact> 0.14226702E+05</totfact>
</mgrwt>
</event>
<event>
 5    1  0.1265228E+001  0.9089719E+02  0.7546771E-02  0.1300693E+00
         -1   -1    0    0    0  501 -0.00000000000E+00  0.00000000000E+00  0.10109438903E+02  0.10109438903E+02  0.00000000000E+00 0.  1.
          1   -1    0    0  501    0  0.00000000000E+00 -0.00000000000E+00 -0.20432139647E+03  0.20432139647E+03  0.00000000000E+00 0. -1.
         23    2    1    2    0    0  0.00000000000E+00  0.00000000000E+00 -0.19421195757E+03  0.21443083538E+03  0.90897187510E+02 0.  0.
        -11    1    3    3    0    0 -0.34339965550E+02  0.16155645038E+02 -0.15609805844E+03  0.16064508069E+03  0.00000000000E+00 0. -1.
         11    1    3    3    0    0  0.34339965550E+02 -0.16155645038E+02 -0.38113899131E+02  0.53785754690E+02  0.00000000000E+00 0.  1.
<mgrwt>
<rscale>  0 0.90897188E+02</rscale>
<asrwt>0</asrwt>
<pdfrwt beam="2">  1        1 0.31434057E-01 0.90897188E+02</pdfrwt>
<pdfrwt beam="1">  1       -1 0.15552985E-02 0.90897188E+02</pdfrwt>
<totfact> 0.11988146E+05</totfact>
</mgrwt>
</event>
<event>
 5    1  0.1265228E+001  0.9096192E+02  0.7546771E-02  0.1300539E+00
          1   -1    0    0  501    0  0.00000000000E+00  0.00000000000E+00  0.27558859254E+02  0.27558859254E+02  0.00000000000E+00 0. -1.
         -1   -1    0    0    0  501 -0.00000000000E+00 -0.00000000000E+00 -0.75058168431E+02  0.75058168431E+02  0.00000000000E+00 0.  1.
         23    2    1    2    0    0  0.00000000000E+00  0.00000000000E+00 -0.47499309177E+02  0.10261702768E+03  0.90961915099E+02 0.  0.
        -11    1    3    3    0    0 -0.26124057659E+02  0.64449865168E+01  0.17616236159E+02  0.32161094760E+02  0.00000000000E+00 0. -1.
         11    1    3    3    0    0  0.26124057659E+02 -0.64449865168E+01 -0.65115545336E+02  0.70455932924E+02  0.00000000000E+00 0.  1.
<mgrwt>
<rscale>  0 0.90961915E+02</rscale>
<asrwt>0</asrwt>
<pdfrwt beam="1">  1        1 0.42398246E-02 0.90961915E+02</pdfrwt>
<pdfrwt beam="2">  1       -1 0.11547410E-01 0.90961915E+02</pdfrwt>
<totfact> 0.86075552E+04</totfact>
</mgrwt>
</event>
<event>
 5    1  0.1265228E+001  0.8978132E+02  0.7546771E-02  0.1303382E+00
         -2   -1    0    0    0  501 -0.00000000000E+00  0.00000000000E+00  0.30577726778E+02  0.30577726778E+02  0.00000000000E+00 0.  1.
          2   -1    0    0  501    0  0.00000000000E+00 -0.00000000000E+00 -0.65903247534E+02  0.65903247534E+02  0.00000000000E+00 0. -1.
         23    2    1    2    0    0  0.00000000000E+00  0.00000000000E+00 -0.35325520756E+02  0.96480974313E+02  0.89781323156E+02 0.  0.
        -11    1    3    3    0    0  0.33635359981E+02  0.70033453826E+01  0.13385950414E+02  0.36872319646E+02  0.00000000000E+00 0.  1.
         11    1    3    3    0    0 -0.33635359981E+02 -0.70033453826E+01 -0.48711471170E+02  0.59608654667E+02  0.00000000000E+00 0. -1.
<mgrwt>
<rscale>  0 0.89781323E+02</rscale>
<asrwt>0</asrwt>
<pdfrwt beam="2">  1        2 0.10138961E-01 0.89781323E+02</pdfrwt>
<pdfrwt beam="1">  1       -2 0.47042657E-02 0.89781323E+02</pdfrwt>
<totfact> 0.11360141E+05</totfact>
</mgrwt>
</event>
<event>
 5    1  0.1265228E+001  0.8986218E+02  0.7546771E-02  0.1303186E+00
         -2   -1    0    0    0  501 -0.00000000000E+00  0.00000000000E+00  0.42007691333E+02  0.42007691333E+02  0.00000000000E+00 0.  1.
          2   -1    0    0  501    0  0.00000000000E+00 -0.00000000000E+00 -0.48057930340E+02  0.48057930340E+02  0.00000000000E+00 0. -1.
         23    2    1    2    0    0  0.00000000000E+00  0.00000000000E+00 -0.60502390070E+01  0.90065621673E+02  0.89862176778E+02 0.  0.
        -11    1    3    3    0    0  0.27833939163E+02  0.24808021412E+02  0.22104270736E+02  0.43344721483E+02  0.00000000000E+00 0.  1.
         11    1    3    3    0    0 -0.27833939163E+02 -0.24808021412E+02 -0.28154509743E+02  0.46720900190E+02  0.00000000000E+00 0. -1.
<mgrwt>
<rscale>  0 0.89862177E+02</rscale>
<asrwt>0</asrwt>
<pdfrwt beam="2">  1        2 0.73935277E-02 0.89862177E+02</pdfrwt>
<pdfrwt beam="1">  1       -2 0.64627217E-02 0.89862177E+02</pdfrwt>
<totfact> 0.10427021E+05</totfact>
</mgrwt>
</event>
<event>
 5    1  0.1265228E+001  0.1152058E+03  0.7546771E-02  0.1251222E+00
          1   -1    0    0  501    0  0.00000000000E+00  0.00000000000E+00  0.38221457730E+03  0.38221457730E+03  0.00000000000E+00 0. -1.
         -1   -1    0    0    0  501 -0.00000000000E+00 -0.00000000000E+00 -0.86812301386E+01  0.86812301386E+01  0.00000000000E+00 0.  1.
         23    2    1    2    0    0  0.00000000000E+00  0.00000000000E+00  0.37353334716E+03  0.39089580744E+03  0.11520577603E+03 0.  0.
        -13    1    3    3    0    0 -0.43641117415E+02  0.32820397995E+02  0.24899576850E+03  0.25491296237E+03  0.00000000000E+00 0. -1.
         13    1    3    3    0    0  0.43641117415E+02 -0.32820397995E+02  0.12453757865E+03  0.13598284506E+03  0.00000000000E+00 0.  1.
<mgrwt>
<rscale>  0 0.11520578E+03</rscale>
<asrwt>0</asrwt>
<pdfrwt beam="1">  1        1 0.58802230E-01 0.11520578E+03</pdfrwt>
<pdfrwt beam="2">  1       -1 0.13355742E-02 0.11520578E+03</pdfrwt>
<totfact> 0.71371866E+04</totfact>
</mgrwt>
</event>
<event>
 5    1  0.1265228E+001  0.8981526E+02  0.7546771E-02  0.1303300E+00
         -2   -1    0    0    0  501 -0.00000000000E+00  0.00000000000E+00  0.15235146212E+02  0.15235146212E+02  0.00000000000E+00 0.  1.
          2   -1    0    0  501    0  0.00000000000E+00 -0.00000000000E+00 -0.13237124172E+03  0.13237124172E+03  0.00000000000E+00 0. -1.
         23    2    1    2    0    0  0.00000000000E+00  0.00000000000E+00 -0.11713609551E+03  0.14760638793E+03  0.89815259769E+02 0.  0.
        -11    1    3    3    0    0 -0.23879799714E+02 -0.27928696840E+02 -0.10099433128E+03  0.10747144687E+03  0.00000000000E+00 0. -1.
         11    1    3    3    0    0  0.23879799714E+02  0.27928696840E+02 -0.16141764225E+02  0.40134941059E+02  0.00000000000E+00 0.  1.
<mgrwt>
<rscale>  0 0.89815260E+02</rscale>
<asrwt>0</asrwt>
<pdfrwt beam="2">  1        2 0.20364807E-01 0.89815260E+02</pdfrwt>
<pdfrwt beam="1">  1       -2 0.23438686E-02 0.89815260E+02</pdfrwt>
<totfact> 0.13967677E+05</totfact>
</mgrwt>
</event>
<event>
 5    1  0.1265228E+001  0.9241611E+02  0.7546771E-02  0.1297104E+00
          1   -1    0    0  501    0  0.00000000000E+00  0.00000000000E+00  0.32196286937E+03  0.32196286937E+03  0.00000000000E+00 0. -1.
         -1   -1    0    0    0  501 -0.00000000000E+00 -0.00000000000E+00 -0.66317726007E+01  0.66317726007E+01  0.00000000000E+00 0.  1.
         23    2    1    2    0    0  0.00000000000E+00  0.00000000000E+00  0.31533109677E+03  0.32859464197E+03  0.92416114082E+02 0.  0.
        -13    1    3    3    0    0 -0.44936232219E+01  0.44895628855E+02  0.19311014387E+03  0.19831121452E+03  0.00000000000E+00 0. -1.
         13    1    3    3    0    0  0.44936232219E+01 -0.44895628855E+02  0.12222095290E+03  0.13028342745E+03  0.00000000000E+00 0.  1.
<mgrwt>
<rscale>  0 0.92416114E+02</rscale>
<asrwt>0</asrwt>
<pdfrwt beam="1">  1        1 0.49532737E-01 0.92416114E+02</pdfrwt>
<pdfrwt beam="2">  1       -1 0.10202730E-02 0.92416114E+02</pdfrwt>
<totfact> 0.12524990E+05</totfact>
</mgrwt>
</event>
<event>
 5    1  0.1265228E+001  0.9655303E+02  0.7546771E-02  0.1287716E+00
         -3   -1    0    0    0  501 -0.00000000000E+00  0.00000000000E+00  0.18699544908E+02  0.18699544908E+02  0.00000000000E+00 0.  1.
          3   -1    0    0  501    0  0.00000000000E+00 -0.00000000000E+00 -0.12463523031E+03  0.12463523031E+03  0.00000000000E+00 0. -1.
         23    2    1    2    0    0  0.00000000000E+00  0.00000000000E+00 -0.10593568541E+03  0.14333477522E+03  0.96553033850E+02 0.  0.
        -11    1    3    3    0    0 -0.12550618681E+02  0.32343945135E+02 -0.31319258125E+01  0.34834720832E+02  0.00000000000E+00 0.  1.
         11    1    3    3    0    0  0.12550618681E+02 -0.32343945135E+02 -0.10280375959E+03  0.10850005439E+03  0.00000000000E+00 0. -1.
<mgrwt>
<rscale>  0 0.96553034E+02</rscale>
<asrwt>0</asrwt>
<pdfrwt beam="2">  1        3 0.19174651E-01 0.96553034E+02</pdfrwt>
<pdfrwt beam="1">  1       -3 0.28768531E-02 0.96553034E+02</pdfrwt>
<totfact> 0.27139348E+04</totfact>
</mgrwt>
</event>
<event>
 5    1  0.1265228E+001  0.9361761E+02  0.7546771E-02  0.1294320E+00
         -3   -1    0    0    0  501 -0.00000000000E+00  0.00000000000E+00  0.87942230529E+02  0.87942230529E+02  0.00000000000E+00 0.  1.
          3   -1    0    0  501    0  0.00000000000E+00 -0.00000000000E+00 -0.24914815046E+02  0.24914815046E+02  0.00000000000E+00 0. -1.
         23    2    1    2    0    0  0.00000000000E+00  0.00000000000E+00  0.63027415483E+02  0.11285704558E+03  0.93617613907E+02 0.  0.
        -11    1    3    3    0    0  0.29836882394E+02 -0.16183290957E+02  0.70370183360E+02  0.78128747355E+02  0.00000000000E+00 0.  1.
         11    1    3    3    0    0 -0.29836882394E+02  0.16183290957E+02 -0.73427678772E+01  0.34728298220E+02  0.00000000000E+00 0. -1.
<mgrwt>
<rscale>  0 0.93617614E+02</rscale>
<asrwt>0</asrwt>
<pdfrwt beam="2">  1        3 0.38330485E-02 0.93617614E+02</pdfrwt>
<pdfrwt beam="1">  1       -3 0.13529574E-01 0.93617614E+02</pdfrwt>
<totfact> 0.31399211E+04</totfact>
</mgrwt>
</event>
<event>
 5    1  0.1265228E+001  0.9081708E+02  0.7546771E-02  0.1300885E+00
         -1   -1    0    0    0  501 -0.00000000000E+00  0.00000000000E+00  0.93324118003E+02  0.93324118003E+02  0.00000000000E+00 0.  1.
          1   -1    0    0  501    0  0.00000000000E+00 -0.00000000000E+00 -0.22094345778E+02  0.22094345778E+02  0.00000000000E+00 0. -1.
         23    2    1    2    0    0  0.00000000000E+00  0.00000000000E+00  0.71229772225E+02  0.11541846378E+03  0.90817076203E+02 0.  0.
        -13    1    3    3    0    0  0.11920466328E+02  0.28508538626E+02  0.77901353242E+02  0.83806056637E+02  0.00000000000E+00 0.  1.
         13    1    3    3    0    0 -0.11920466328E+02 -0.28508538626E+02 -0.66715810175E+01  0.31612407143E+02  0.00000000000E+00 0. -1.
<mgrwt>
<rscale>  0 0.90817076E+02</rscale>
<asrwt>0</asrwt>
<pdfrwt beam="2">  1        1 0.33991302E-02 0.90817076E+02</pdfrwt>
<pdfrwt beam="1">  1       -1 0.14357556E-01 0.90817076E+02</pdfrwt>
<totfact> 0.83247675E+04</totfact>
</mgrwt>
</event>
<event>
 5    1  0.1265228E+001  0.8169071E+02  0.7546771E-02  0.1324321E+00
         -3   -1    0    0    0  501 -0.00000000000E+00  0.00000000000E+00  0.11003086279E+03  0.11003086279E+03  0.00000000000E+00 0.  1.
          3   -1    0    0  501    0  0.00000000000E+00 -0.00000000000E+00 -0.15162500348E+02  0.15162500348E+02  0.00000000000E+00 0. -1.
         23    2    1    2    0    0  0.00000000000E+00  0.00000000000E+00  0.94868362444E+02  0.12519336314E+03  0.81690709272E+02 0.  0.
        -13    1    3    3    0    0 -0.13221299090E+02  0.35239217527E+02  0.71749661400E+02  0.81022337121E+02  0.00000000000E+00 0.  1.
         13    1    3    3    0    0  0.13221299090E+02 -0.35239217527E+02  0.23118701044E+02  0.44171026018E+02  0.00000000000E+00 0. -1.
<mgrwt>
<rscale>  0 0.81690709E+02</rscale>
<asrwt>0</asrwt>
<pdfrwt beam="2">  1        3 0.23326924E-02 0.81690709E+02</pdfrwt>
<pdfrwt beam="1">  1       -3 0.16927825E-01 0.81690709E+02</pdfrwt>
<totfact> 0.44224091E+04</totfact>
</mgrwt>
</event>
<event>
 5    1  0.1265228E+001  0.1077027E+03  0.7546771E-02  0.1264884E+00
         -2   -1    0    0    0  501 -0.00000000000E+00  0.00000000000E+00  0.49920031032E+01  0.49920031032E+01  0.00000000000E+00 0.  1.
          2   -1    0    0  501    0  0.00000000000E+00 -0.00000000000E+00 -0.58092318460E+03  0.58092318460E+03  0.00000000000E+00 0. -1.
         23    2    1    2    0    0  0.00000000000E+00  0.00000000000E+00 -0.57593118150E+03  0.58591518771E+03  0.10770274537E+03 0.  0.
        -13    1    3    3    0    0  0.31931658381E+02 -0.43304404027E+02 -0.27571853632E+03  0.28091922947E+03  0.00000000000E+00 0.  1.
         13    1    3    3    0    0 -0.31931658381E+02  0.43304404027E+02 -0.30021264518E+03  0.30499595824E+03  0.00000000000E+00 0. -1.
<mgrwt>
<rscale>  0 0.10770275E+03</rscale>
<asrwt>0</asrwt>
<pdfrwt beam="2">  1        2 0.89372776E-01 0.10770275E+03</pdfrwt>
<pdfrwt beam="1">  1       -2 0.76800066E-03 0.10770275E+03</pdfrwt>
<totfact> 0.14481641E+05</totfact>
</mgrwt>
</event>
<event>
 5    1  0.1265228E+001  0.9174988E+02  0.7546771E-02  0.1298669E+00
          3   -1    0    0  501    0  0.00000000000E+00  0.00000000000E+00  0.62344393093E+02  0.62344393093E+02  0.00000000000E+00 0. -1.
         -3   -1    0    0    0  501 -0.00000000000E+00 -0.00000000000E+00 -0.33756203444E+02  0.33756203444E+02  0.00000000000E+00 0.  1.
         23    2    1    2    0    0  0.00000000000E+00  0.00000000000E+00  0.28588189648E+02  0.96100596537E+02  0.91749877752E+02 0.  0.
        -13    1    3    3    0    0  0.30631516376E+00  0.10637372529E+02  0.61033679191E+02  0.61954479409E+02  0.00000000000E+00 0. -1.
         13    1    3    3    0    0 -0.30631516376E+00 -0.10637372529E+02 -0.32445489542E+02  0.34146117128E+02  0.00000000000E+00 0.  1.
<mgrwt>
<rscale>  0 0.91749878E+02</rscale>
<asrwt>0</asrwt>
<pdfrwt beam="1">  1        3 0.95914450E-02 0.91749878E+02</pdfrwt>
<pdfrwt beam="2">  1       -3 0.51932621E-02 0.91749878E+02</pdfrwt>
<totfact> 0.34370362E+04</totfact>
</mgrwt>
</event>
<event>
 5    1  0.1265228E+001  0.9077284E+02  0.7546771E-02  0.1300991E+00
         -3   -1    0    0    0  501 -0.00000000000E+00  0.00000000000E+00  0.10358838351E+02  0.10358838351E+02  0.00000000000E+00 0.  1.
          3   -1    0    0  501    0  0.00000000000E+00 -0.00000000000E+00 -0.19885696327E+03  0.19885696327E+03  0.00000000000E+00 0. -1.
         23    2    1    2    0    0  0.00000000000E+00  0.00000000000E+00 -0.18849812492E+03  0.20921580162E+03  0.90772840378E+02 0.  0.
        -11    1    3    3    0    0 -0.31605780704E+02  0.85415446414E+01 -0.21801020633E+02  0.39334054703E+02  0.00000000000E+00 0.  1.
         11    1    3    3    0    0  0.31605780704E+02 -0.85415446414E+01 -0.16669710429E+03  0.16988174692E+03  0.00000000000E+00 0. -1.
<mgrwt>
<rscale>  0 0.90772840E+02</rscale>
<asrwt>0</asrwt>
<pdfrwt beam="2">  1        3 0.30593377E-01 0.90772840E+02</pdfrwt>
<pdfrwt beam="1">  1       -3 0.15936675E-02 0.90772840E+02</pdfrwt>
<totfact> 0.28366407E+04</totfact>
</mgrwt>
</event>
<event>
 5    1  0.1265228E+001  0.6097975E+02  0.7546771E-02  0.1393766E+00
         -1   -1    0    0    0  501 -0.00000000000E+00  0.00000000000E+00  0.93288955040E+01  0.93288955040E+01  0.00000000000E+00 0.  1.
          1   -1    0    0  501    0  0.00000000000E+00 -0.00000000000E+00 -0.99650864778E+02  0.99650864778E+02  0.00000000000E+00 0. -1.
         23    2    1    2    0    0  0.00000000000E+00  0.00000000000E+00 -0.90321969274E+02  0.10897976028E+03  0.60979750882E+02 0.  0.
        -13    1    3    3    0    0  0.17585331871E+01 -0.27817615695E+02 -0.67246554960E+02  0.72794308404E+02  0.00000000000E+00 0. -1.
         13    1    3    3    0    0 -0.17585331871E+01  0.27817615695E+02 -0.23075414314E+02  0.36185451879E+02  0.00000000000E+00 0.  1.
<mgrwt>
<rscale>  0 0.60979751E+02</rscale>
<asrwt>0</asrwt>
<pdfrwt beam="2">  1        1 0.15330902E-01 0.60979751E+02</pdfrwt>
<pdfrwt beam="1">  1       -1 0.14352148E-02 0.60979751E+02</pdfrwt>
<totfact> 0.30382696E+05</totfact>
</mgrwt>
</event>
<event>
 5    1  0.1265228E+001  0.9160118E+02  0.7546771E-02  0.1299020E+00
          3   -1    0    0  501    0  0.00000000000E+00  0.00000000000E+00  0.80964623687E+02  0.80964623687E+02  0.00000000000E+00 0. -1.
         -3   -1    0    0    0  501 -0.00000000000E+00 -0.00000000000E+00 -0.25908775175E+02  0.25908775175E+02  0.00000000000E+00 0.  1.
         23    2    1    2    0    0  0.00000000000E+00  0.00000000000E+00  0.55055848512E+02  0.10687339886E+03  0.91601184103E+02 0.  0.
        -13    1    3    3    0    0  0.27730378180E+02  0.75039673283E+01  0.69146020724E+02  0.74876268481E+02  0.00000000000E+00 0. -1.
         13    1    3    3    0    0 -0.27730378180E+02 -0.75039673283E+01 -0.14090172212E+02  0.31997130382E+02  0.00000000000E+00 0.  1.
<mgrwt>
<rscale>  0 0.91601184E+02</rscale>
<asrwt>0</asrwt>
<pdfrwt beam="1">  1        3 0.12456096E-01 0.91601184E+02</pdfrwt>
<pdfrwt beam="2">  1       -3 0.39859654E-02 0.91601184E+02</pdfrwt>
<totfact> 0.33739245E+04</totfact>
</mgrwt>
</event>
<event>
 5    1  0.1265228E+001  0.9322289E+02  0.7546771E-02  0.1295229E+00
          2   -1    0    0  501    0  0.00000000000E+00  0.00000000000E+00  0.15238343703E+03  0.15238343703E+03  0.00000000000E+00 0. -1.
         -2   -1    0    0    0  501 -0.00000000000E+00 -0.00000000000E+00 -0.14257630294E+02  0.14257630294E+02  0.00000000000E+00 0.  1.
         23    2    1    2    0    0  0.00000000000E+00  0.00000000000E+00  0.13812580674E+03  0.16664106733E+03  0.93222887923E+02 0.  0.
        -13    1    3    3    0    0 -0.42885653656E+02 -0.16522490250E+02  0.55164188506E+02  0.71800136958E+02  0.00000000000E+00 0.  1.
         13    1    3    3    0    0  0.42885653656E+02  0.16522490250E+02  0.82961618230E+02  0.94840930367E+02  0.00000000000E+00 0. -1.
<mgrwt>
<rscale>  0 0.93222888E+02</rscale>
<asrwt>0</asrwt>
<pdfrwt beam="1">  1        2 0.23443604E-01 0.93222888E+02</pdfrwt>
<pdfrwt beam="2">  1       -2 0.21934817E-02 0.93222888E+02</pdfrwt>
<totfact> 0.13233199E+05</totfact>
</mgrwt>
</event>
<event>
 5    1  0.1265228E+001  0.9088973E+02  0.7546771E-02  0.1300711E+00
          1   -1    0    0  501    0  0.00000000000E+00  0.00000000000E+00  0.22227584832E+03  0.22227584832E+03  0.00000000000E+00 0. -1.
         -1   -1    0    0    0  501 -0.00000000000E+00 -0.00000000000E+00 -0.92913180872E+01  0.92913180872E+01  0.00000000000E+00 0.  1.
         23    2    1    2    0    0  0.00000000000E+00  0.00000000000E+00  0.21298453023E+03  0.23156716640E+03  0.90889726808E+02 0.  0.
        -13    1    3    3    0    0 -0.33886164762E+02  0.13814161447E+02  0.37837594423E+02  0.52638263369E+02  0.00000000000E+00 0. -1.
         13    1    3    3    0    0  0.33886164762E+02 -0.13814161447E+02  0.17514693581E+03  0.17892890304E+03  0.00000000000E+00 0.  1.
<mgrwt>
<rscale>  0 0.90889727E+02</rscale>
<asrwt>0</asrwt>
<pdfrwt beam="1">  1        1 0.34196280E-01 0.90889727E+02</pdfrwt>
<pdfrwt beam="2">  1       -1 0.14294337E-02 0.90889727E+02</pdfrwt>
<totfact> 0.12189047E+05</totfact>
</mgrwt>
</event>
<event>
 5    1  0.1265228E+001  0.1109526E+03  0.7546771E-02  0.1258816E+00
         -4   -1    0    0    0  501 -0.00000000000E+00  0.00000000000E+00  0.19127612165E+03  0.19127612165E+03  0.00000000000E+00 0. -1.
          4   -1    0    0  501    0  0.00000000000E+00 -0.00000000000E+00 -0.16089940950E+02  0.16089940950E+02  0.00000000000E+00 0.  1.
         23    2    1    2    0    0  0.00000000000E+00  0.00000000000E+00  0.17518618070E+03  0.20736606260E+03  0.11095262958E+03 0.  0.
        -11    1    3    3    0    0 -0.22771803043E+02 -0.42202120200E+02  0.13972494177E+03  0.14772485679E+03  0.00000000000E+00 0. -1.
         11    1    3    3    0    0  0.22771803043E+02  0.42202120200E+02  0.35461238930E+02  0.59641205803E+02  0.00000000000E+00 0.  1.
<mgrwt>
<rscale>  0 0.11095263E+03</rscale>
<asrwt>0</asrwt>
<pdfrwt beam="2">  1        4 0.24753757E-02 0.11095263E+03</pdfrwt>
<pdfrwt beam="1">  1       -4 0.29427094E-01 0.11095263E+03</pdfrwt>
<totfact> 0.12376997E+04</totfact>
</mgrwt>
</event>
<event>
 5    1  0.1265228E+001  0.9138663E+02  0.7546771E-02  0.1299528E+00
          1   -1    0    0  501    0  0.00000000000E+00  0.00000000000E+00  0.50388614001E+02  0.50388614001E+02  0.00000000000E+00 0. -1.
         -1   -1    0    0    0  501 -0.00000000000E+00 -0.00000000000E+00 -0.41435527737E+02  0.41435527737E+02  0.00000000000E+00 0.  1.
         23    2    1    2    0    0  0.00000000000E+00  0.00000000000E+00  0.89530862643E+01  0.91824141737E+02  0.91386625127E+02 0.  0.
        -11    1    3    3    0    0 -0.30029649730E+01  0.36391024767E+02  0.32077204993E+02  0.48603205269E+02  0.00000000000E+00 0.  1.
         11    1    3    3    0    0  0.30029649730E+01 -0.36391024767E+02 -0.23124118729E+02  0.43220936469E+02  0.00000000000E+00 0. -1.
<mgrwt>
<rscale>  0 0.91386625E+02</rscale>
<asrwt>0</asrwt>
<pdfrwt beam="1">  1        1 0.77520944E-02 0.91386625E+02</pdfrwt>
<pdfrwt beam="2">  1       -1 0.63746966E-02 0.91386625E+02</pdfrwt>
<totfact> 0.93271293E+04</totfact>
</mgrwt>
</event>
<event>
 5    1  0.1265228E+001  0.9214414E+02  0.7546771E-02  0.1297741E+00
         -4   -1    0    0    0  501 -0.00000000000E+00  0.00000000000E+00  0.69412595646E+02  0.69412595646E+02  0.00000000000E+00 0.  1.
          4   -1    0    0  501    0  0.00000000000E+00 -0.00000000000E+00 -0.30579979998E+02  0.30579979998E+02  0.00000000000E+00 0. -1.
         23    2    1    2    0    0  0.00000000000E+00  0.00000000000E+00  0.38832615648E+02  0.99992575644E+02  0.92144143308E+02 0.  0.
        -13    1    3    3    0    0 -0.35931240980E+02  0.38540683163E+01  0.50428945500E+02  0.62040200396E+02  0.00000000000E+00 0.  1.
         13    1    3    3    0    0  0.35931240980E+02 -0.38540683163E+01 -0.11596329852E+02  0.37952375248E+02  0.00000000000E+00 0. -1.
<mgrwt>
<rscale>  0 0.92144143E+02</rscale>
<asrwt>0</asrwt>
<pdfrwt beam="2">  1        4 0.47046123E-02 0.92144143E+02</pdfrwt>
<pdfrwt beam="1">  1       -4 0.10678861E-01 0.92144143E+02</pdfrwt>
<totfact> 0.25710577E+04</totfact>
</mgrwt>
</event>
<event>
 5    1  0.1265228E+001  0.9142414E+02  0.7546771E-02  0.1299439E+00
          3   -1    0    0  501    0  0.00000000000E+00  0.00000000000E+00  0.54971521482E+02  0.54971521482E+02  0.00000000000E+00 0. -1.
         -3   -1    0    0    0  501 -0.00000000000E+00 -0.00000000000E+00 -0.38012285455E+02  0.38012285455E+02  0.00000000000E+00 0.  1.
         23    2    1    2    0    0  0.00000000000E+00  0.00000000000E+00  0.16959236027E+02  0.92983806937E+02  0.91424136124E+02 0.  0.
        -13    1    3    3    0    0 -0.42097490412E+02  0.14616916411E+02 -0.18794347347E+01  0.44602524809E+02  0.00000000000E+00 0. -1.
         13    1    3    3    0    0  0.42097490412E+02 -0.14616916411E+02  0.18838670762E+02  0.48381282129E+02  0.00000000000E+00 0.  1.
<mgrwt>
<rscale>  0 0.91424136E+02</rscale>
<asrwt>0</asrwt>
<pdfrwt beam="1">  1        3 0.84571572E-02 0.91424136E+02</pdfrwt>
<pdfrwt beam="2">  1       -3 0.58480439E-02 0.91424136E+02</pdfrwt>
<totfact> 0.34941074E+04</totfact>
</mgrwt>
</event>
<event>
 5    1  0.1265228E+001  0.9477998E+02  0.7546771E-02  0.1291672E+00
         -1   -1    0    0    0  501 -0.00000000000E+00  0.00000000000E+00  0.16772605164E+02  0.16772605164E+02  0.00000000000E+00 0.  1.
          1   -1    0    0  501    0  0.00000000000E+00 -0.00000000000E+00 -0.13389756723E+03  0.13389756723E+03  0.00000000000E+00 0. -1.
         23    2    1    2    0    0  0.00000000000E+00  0.00000000000E+00 -0.11712496207E+03  0.15067017239E+03  0.94779977369E+02 0.  0.
        -13    1    3    3    0    0  0.15215013783E+02 -0.26881245060E+02 -0.11569635963E+03  0.11974867687E+03  0.00000000000E+00 0. -1.
         13    1    3    3    0    0 -0.15215013783E+02  0.26881245060E+02 -0.14286024343E+01  0.30921495522E+02  0.00000000000E+00 0.  1.
<mgrwt>
<rscale>  0 0.94779977E+02</rscale>
<asrwt>0</asrwt>
<pdfrwt beam="2">  1        1 0.20599626E-01 0.94779977E+02</pdfrwt>
<pdfrwt beam="1">  1       -1 0.25804008E-02 0.94779977E+02</pdfrwt>
<totfact> 0.98880221E+04</totfact>
</mgrwt>
</event>
<event>
 5    1  0.1265228E+001  0.9199935E+02  0.7546771E-02  0.1298081E+00
         -4   -1    0    0    0  501 -0.00000000000E+00  0.00000000000E+00  0.36207142086E+02  0.36207142086E+02  0.00000000000E+00 0. -1.
          4   -1    0    0  501    0  0.00000000000E+00 -0.00000000000E+00 -0.58440686122E+02  0.58440686122E+02  0.00000000000E+00 0.  1.
         23    2    1    2    0    0  0.00000000000E+00  0.00000000000E+00 -0.22233544036E+02  0.94647828207E+02  0.91999352737E+02 0.  0.
        -13    1    3    3    0    0 -0.92804051970E+01 -0.21347639157E+02 -0.51934155285E+02  0.56912249151E+02  0.00000000000E+00 0.  1.
         13    1    3    3    0    0  0.92804051970E+01  0.21347639157E+02  0.29700611249E+02  0.37735579057E+02  0.00000000000E+00 0. -1.
<mgrwt>
<rscale>  0 0.91999353E+02</rscale>
<asrwt>0</asrwt>
<pdfrwt beam="2">  1        4 0.89908747E-02 0.91999353E+02</pdfrwt>
<pdfrwt beam="1">  1       -4 0.55703296E-02 0.91999353E+02</pdfrwt>
<totfact> 0.26147915E+04</totfact>
</mgrwt>
</event>
<event>
 5    1  0.1265228E+001  0.9143779E+02  0.7546771E-02  0.1299407E+00
         -2   -1    0    0    0  501 -0.00000000000E+00  0.00000000000E+00  0.47556686794E+02  0.47556686794E+02  0.00000000000E+00 0.  1.
          2   -1    0    0  501    0  0.00000000000E+00 -0.00000000000E+00 -0.43952127578E+02  0.43952127578E+02  0.00000000000E+00 0. -1.
         23    2    1    2    0    0  0.00000000000E+00  0.00000000000E+00  0.36045592168E+01  0.91508814372E+02  0.91437794487E+02 0.  0.
        -11    1    3    3    0    0  0.44378350261E+02 -0.47021301841E+01  0.11743250293E+02  0.46145984956E+02  0.00000000000E+00 0. -1.
         11    1    3    3    0    0 -0.44378350261E+02  0.47021301841E+01 -0.81386910763E+01  0.45362829416E+02  0.00000000000E+00 0.  1.
<mgrwt>
<rscale>  0 0.91437794E+02</rscale>
<asrwt>0</asrwt>
<pdfrwt beam="2">  1        2 0.67618658E-02 0.91437794E+02</pdfrwt>
<pdfrwt beam="1">  1       -2 0.73164133E-02 0.91437794E+02</pdfrwt>
<totfact> 0.96942262E+04</totfact>
</mgrwt>
</event>
<event>
 5    1  0.1265228E+001  0.9185301E+02  0.7546771E-02  0.1298425E+00
          1   -1    0    0  501    0  0.00000000000E+00  0.00000000000E+00  0.20471858056E+03  0.20471858056E+03  0.00000000000E+00 0. -1.
         -1   -1    0    0    0  501 -0.00000000000E+00 -0.00000000000E+00 -0.10303138069E+02  0.10303138069E+02  0.00000000000E+00 0.  1.
         23    2    1    2    0    0  0.00000000000E+00  0.00000000000E+00  0.19441544249E+03  0.21502171863E+03  0.91853008677E+02 0.  0.
        -13    1    3    3    0    0  0.29398866453E+02 -0.38171595170E+01  0.17932008022E+03  0.18175410649E+03  0.00000000000E+00 0.  1.
         13    1    3    3    0    0 -0.29398866453E+02  0.38171595170E+01  0.15095362276E+02  0.33267612144E+02  0.00000000000E+00 0. -1.
<mgrwt>
<rscale>  0 0.91853009E+02</rscale>
<asrwt>0</asrwt>
<pdfrwt beam="1">  1        1 0.31495163E-01 0.91853009E+02</pdfrwt>
<pdfrwt beam="2">  1       -1 0.15850983E-02 0.91853009E+02</pdfrwt>
<totfact> 0.11660784E+05</totfact>
</mgrwt>
</event>
<event>
 5    1  0.1265228E+001  0.9063856E+02  0.7546771E-02  0.1301313E+00
          4   -1    0    0  501    0  0.00000000000E+00  0.00000000000E+00  0.24816759743E+02  0.24816759743E+02  0.00000000000E+00 0. -1.
         -4   -1    0    0    0  501 -0.00000000000E+00 -0.00000000000E+00 -0.82760080478E+02  0.82760080478E+02  0.00000000000E+00 0.  1.
         23    2    1    2    0    0  0.00000000000E+00  0.00000000000E+00 -0.57943320735E+02  0.10757684022E+03  0.90638557656E+02 0.  0.
        -11    1    3    3    0    0  0.40288498787E+02 -0.19133614538E+02 -0.38509509004E+02  0.58925721239E+02  0.00000000000E+00 0.  1.
         11    1    3    3    0    0 -0.40288498787E+02  0.19133614538E+02 -0.19433811731E+02  0.48651118982E+02  0.00000000000E+00 0. -1.
<mgrwt>
<rscale>  0 0.90638558E+02</rscale>
<asrwt>0</asrwt>
<pdfrwt beam="1">  1        4 0.38179630E-02 0.90638558E+02</pdfrwt>
<pdfrwt beam="2">  1       -4 0.12732320E-01 0.90638558E+02</pdfrwt>
<totfact> 0.26416536E+04</totfact>
</mgrwt>
</event>
<event>
 5    1  0.1265228E+001  0.9139851E+02  0.7546771E-02  0.1299500E+00
          1   -1    0    0  501    0  0.00000000000E+00  0.00000000000E+00  0.56300655141E+02  0.56300655141E+02  0.00000000000E+00 0. -1.
         -1   -1    0    0    0  501 -0.00000000000E+00 -0.00000000000E+00 -0.37094093299E+02  0.37094093299E+02  0.00000000000E+00 0.  1.
         23    2    1    2    0    0  0.00000000000E+00  0.00000000000E+00  0.19206561842E+02  0.93394748439E+02  0.91398506652E+02 0.  0.
        -13    1    3    3    0    0  0.44478432091E+02  0.54967298428E+01  0.47069703045E+00  0.44819265009E+02  0.00000000000E+00 0.  1.
         13    1    3    3    0    0 -0.44478432091E+02 -0.54967298428E+01  0.18735864812E+02  0.48575483430E+02  0.00000000000E+00 0. -1.
<mgrwt>
<rscale>  0 0.91398507E+02</rscale>
<asrwt>0</asrwt>
<pdfrwt beam="1">  1        1 0.86616393E-02 0.91398507E+02</pdfrwt>
<pdfrwt beam="2">  1       -1 0.57067836E-02 0.91398507E+02</pdfrwt>
<totfact> 0.94807031E+04</totfact>
</mgrwt>
</event>
<event>
 5    1  0.1265228E+001  0.9185519E+02  0.7546771E-02  0.1298420E+00
         -1   -1    0    0    0  501 -0.00000000000E+00  0.00000000000E+00  0.16680039139E+02  0.16680039139E+02  0.00000000000E+00 0.  1.
          1   -1    0    0  501    0  0.00000000000E+00 -0.00000000000E+00 -0.12645918550E+03  0.12645918550E+03  0.00000000000E+00 0. -1.
         23    2    1    2    0    0  0.00000000000E+00  0.00000000000E+00 -0.10977914636E+03  0.14313922463E+03  0.91855193943E+02 0.  0.
        -11    1    3    3    0    0 -0.18394396577E+02  0.41853679926E+02 -0.48050755985E+02  0.66324652276E+02  0.00000000000E+00 0.  1.
         11    1    3    3    0    0  0.18394396577E+02 -0.41853679926E+02 -0.61728390371E+02  0.76814572359E+02  0.00000000000E+00 0. -1.
<mgrwt>
<rscale>  0 0.91855194E+02</rscale>
<asrwt>0</asrwt>
<pdfrwt beam="2">  1        1 0.19455259E-01 0.91855194E+02</pdfrwt>
<pdfrwt beam="1">  1       -1 0.25661599E-02 0.91855194E+02</pdfrwt>
<totfact> 0.10656944E+05</totfact>
</mgrwt>
</event>
<event>
 5    1  0.1265228E+001  0.9170922E+02  0.7546771E-02  0.1298765E+00
          3   -1    0    0  501    0  0.00000000000E+00  0.00000000000E+00  0.15599683317E+02  0.15599683317E+02  0.00000000000E+00 0. -1.
         -3   -1    0    0    0  501 -0.00000000000E+00 -0.00000000000E+00 -0.13478767603E+03  0.13478767603E+03  0.00000000000E+00 0.  1.
         23    2    1    2    0    0  0.00000000000E+00  0.00000000000E+00 -0.11918799271E+03  0.15038735934E+03  0.91709215698E+02 0.  0.
        -11    1    3    3    0    0 -0.18398562612E+02 -0.32962435055E+02 -0.16907537760E+02  0.41362955214E+02  0.00000000000E+00 0. -1.
         11    1    3    3    0    0  0.18398562612E+02  0.32962435055E+02 -0.10228045495E+03  0.10902440413E+03  0.00000000000E+00 0.  1.
<mgrwt>
<rscale>  0 0.91709216E+02</rscale>
<asrwt>0</asrwt>
<pdfrwt beam="1">  1        3 0.23999513E-02 0.91709216E+02</pdfrwt>
<pdfrwt beam="2">  1       -3 0.20736565E-01 0.91709216E+02</pdfrwt>
<totfact> 0.30794108E+04</totfact>
</mgrwt>
</event>
<event>
 5    1  0.1265228E+001  0.8636819E+02  0.7546771E-02  0.1311893E+00
          1   -1    0    0  501    0  0.00000000000E+00  0.00000000000E+00  0.42520809923E+02  0.42520809923E+02  0.00000000000E+00 0. -1.
         -1   -1    0    0    0  501 -0.00000000000E+00 -0.00000000000E+00 -0.43857723299E+02  0.43857723299E+02  0.00000000000E+00 0.  1.
         23    2    1    2    0    0  0.00000000000E+00  0.00000000000E+00 -0.13369133761E+01  0.86378533222E+02  0.86368186644E+02 0.  0.
        -13    1    3    3    0    0 -0.31524937566E+02  0.27728394763E+01 -0.30054889860E+02  0.43644091602E+02  0.00000000000E+00 0.  1.
         13    1    3    3    0    0  0.31524937566E+02 -0.27728394763E+01  0.28717976484E+02  0.42734441620E+02  0.00000000000E+00 0. -1.
<mgrwt>
<rscale>  0 0.86368187E+02</rscale>
<asrwt>0</asrwt>
<pdfrwt beam="1">  1        1 0.65416631E-02 0.86368187E+02</pdfrwt>
<pdfrwt beam="2">  1       -1 0.67473420E-02 0.86368187E+02</pdfrwt>
<totfact> 0.10650467E+05</totfact>
</mgrwt>
</event>
<event>
 5    1  0.1265228E+001  0.1070344E+03  0.7546771E-02  0.1266162E+00
         -1   -1    0    0    0  501 -0.00000000000E+00  0.00000000000E+00  0.21441349329E+03  0.21441349329E+03  0.00000000000E+00 0.  1.
          1   -1    0    0  501    0  0.00000000000E+00 -0.00000000000E+00 -0.13357798440E+02  0.13357798440E+02  0.00000000000E+00 0. -1.
         23    2    1    2    0    0  0.00000000000E+00  0.00000000000E+00  0.20105569485E+03  0.22777129173E+03  0.10703442860E+03 0.  0.
        -11    1    3    3    0    0  0.30097832167E+02 -0.44251696290E+02  0.10054919208E+03  0.11390448698E+03  0.00000000000E+00 0.  1.
         11    1    3    3    0    0 -0.30097832167E+02  0.44251696290E+02  0.10050650277E+03  0.11386680475E+03  0.00000000000E+00 0. -1.
<mgrwt>
<rscale>  0 0.10703443E+03</rscale>
<asrwt>0</asrwt>
<pdfrwt beam="2">  1        1 0.20550461E-02 0.10703443E+03</pdfrwt>
<pdfrwt beam="1">  1       -1 0.32986689E-01 0.10703443E+03</pdfrwt>
<totfact> 0.44687554E+04</totfact>
</mgrwt>
</event>
<event>
 5    1  0.1265228E+001  0.8403284E+02  0.7546771E-02  0.1317981E+00
         -2   -1    0    0    0  501 -0.00000000000E+00  0.00000000000E+00  0.88522528431E+02  0.88522528431E+02  0.00000000000E+00 0.  1.
          2   -1    0    0  501    0  0.00000000000E+00 -0.00000000000E+00 -0.19942715267E+02  0.19942715267E+02  0.00000000000E+00 0. -1.
         23    2    1    2    0    0  0.00000000000E+00  0.00000000000E+00  0.68579813164E+02  0.10846524370E+03  0.84032840704E+02 0.  0.
        -11    1    3    3    0    0 -0.14493443708E+02  0.33301125072E+02  0.70201271171E+01  0.36990634305E+02  0.00000000000E+00 0. -1.
         11    1    3    3    0    0  0.14493443708E+02 -0.33301125072E+02  0.61559686047E+02  0.71474609392E+02  0.00000000000E+00 0.  1.
<mgrwt>
<rscale>  0 0.84032841E+02</rscale>
<asrwt>0</asrwt>
<pdfrwt beam="2">  1        2 0.30681101E-02 0.84032841E+02</pdfrwt>
<pdfrwt beam="1">  1       -2 0.13618850E-01 0.84032841E+02</pdfrwt>
<totfact> 0.10118152E+05</totfact>
</mgrwt>
</event>
<event>
 5    1  0.1265228E+001  0.9095650E+02  0.7546771E-02  0.1300552E+00
          1   -1    0    0  501    0  0.00000000000E+00  0.00000000000E+00  0.54774103073E+02  0.54774103073E+02  0.00000000000E+00 0. -1.
         -1   -1    0    0    0  501 -0.00000000000E+00 -0.00000000000E+00 -0.37760016915E+02  0.37760016915E+02  0.00000000000E+00 0.  1.
         23    2    1    2    0    0  0.00000000000E+00  0.00000000000E+00  0.17014086158E+02  0.92534119988E+02  0.90956496382E+02 0.  0.
        -13    1    3    3    0    0  0.45329910784E+01  0.31572523534E+02  0.41486889260E+02  0.52331006401E+02  0.00000000000E+00 0. -1.
         13    1    3    3    0    0 -0.45329910784E+01 -0.31572523534E+02 -0.24472803102E+02  0.40203113587E+02  0.00000000000E+00 0.  1.
<mgrwt>
<rscale>  0 0.90956496E+02</rscale>
<asrwt>0</asrwt>
<pdfrwt beam="1">  1        1 0.84267852E-02 0.90956496E+02</pdfrwt>
<pdfrwt beam="2">  1       -1 0.58092333E-02 0.90956496E+02</pdfrwt>
<totfact> 0.95698919E+04</totfact>
</mgrwt>
</event>
<event>
 5    1  0.1265228E+001  0.9050110E+02  0.7546771E-02  0.1301643E+00
         -1   -1    0    0    0  501 -0.00000000000E+00  0.00000000000E+00  0.64690270743E+01  0.64690270743E+01  0.00000000000E+00 0.  1.
          1   -1    0    0  501    0  0.00000000000E+00 -0.00000000000E+00 -0.31652557035E+03  0.31652557035E+03  0.00000000000E+00 0. -1.
         23    2    1    2    0    0  0.00000000000E+00  0.00000000000E+00 -0.31005654327E+03  0.32299459742E+03  0.90501104618E+02 0.  0.
        -13    1    3    3    0    0  0.33847369514E+02  0.29304655802E+02 -0.13156927483E+03  0.13897798874E+03  0.00000000000E+00 0.  1.
         13    1    3    3    0    0 -0.33847369514E+02 -0.29304655802E+02 -0.17848726844E+03  0.18401660868E+03  0.00000000000E+00 0. -1.
<mgrwt>
<rscale>  0 0.90501105E+02</rscale>
<asrwt>0</asrwt>
<pdfrwt beam="2">  1        1 0.48696246E-01 0.90501105E+02</pdfrwt>
<pdfrwt beam="1">  1       -1 0.99523485E-03 0.90501105E+02</pdfrwt>
<totfact> 0.13201427E+05</totfact>
</mgrwt>
</event>
<event>
 5    1  0.1265228E+001  0.9190032E+02  0.7546771E-02  0.1298314E+00
         -1   -1    0    0    0  501 -0.00000000000E+00  0.00000000000E+00  0.21732697772E+02  0.21732697772E+02  0.00000000000E+00 0.  1.
          1   -1    0    0  501    0  0.00000000000E+00 -0.00000000000E+00 -0.97153945592E+02  0.97153945592E+02  0.00000000000E+00 0. -1.
         23    2    1    2    0    0  0.00000000000E+00  0.00000000000E+00 -0.75421247820E+02  0.11888664336E+03  0.91900322891E+02 0.  0.
        -13    1    3    3    0    0  0.30806667464E+02  0.21092621911E+02 -0.30595053141E+01  0.37460779918E+02  0.00000000000E+00 0.  1.
         13    1    3    3    0    0 -0.30806667464E+02 -0.21092621911E+02 -0.72361742506E+02  0.81425863445E+02  0.00000000000E+00 0. -1.
<mgrwt>
<rscale>  0 0.91900323E+02</rscale>
<asrwt>0</asrwt>
<pdfrwt beam="2">  1        1 0.14946760E-01 0.91900323E+02</pdfrwt>
<pdfrwt beam="1">  1       -1 0.33434921E-02 0.91900323E+02</pdfrwt>
<totfact> 0.10173241E+05</totfact>
</mgrwt>
</event>
<event>
 5    1  0.1265228E+001  0.9027059E+02  0.7546771E-02  0.1302198E+00
          1   -1    0    0  501    0  0.00000000000E+00  0.00000000000E+00  0.19647670960E+02  0.19647670960E+02  0.00000000000E+00 0. -1.
         -1   -1    0    0    0  501 -0.00000000000E+00 -0.00000000000E+00 -0.10368633384E+03  0.10368633384E+03  0.00000000000E+00 0.  1.
         23    2    1    2    0    0  0.00000000000E+00  0.00000000000E+00 -0.84038662876E+02  0.12333400480E+03  0.90270592559E+02 0.  0.
        -13    1    3    3    0    0  0.37106939187E+02  0.17977787678E+02 -0.16935373394E+02  0.44575022800E+02  0.00000000000E+00 0. -1.
         13    1    3    3    0    0 -0.37106939187E+02 -0.17977787678E+02 -0.67103289483E+02  0.78758981996E+02  0.00000000000E+00 0.  1.
<mgrwt>
<rscale>  0 0.90270593E+02</rscale>
<asrwt>0</asrwt>
<pdfrwt beam="1">  1        1 0.30227187E-02 0.90270593E+02</pdfrwt>
<pdfrwt beam="2">  1       -1 0.15951743E-01 0.90270593E+02</pdfrwt>
<totfact> 0.82925751E+04</totfact>
</mgrwt>
</event>
<event>
 5    1  0.1265228E+001  0.9345071E+02  0.7546771E-02  0.1294704E+00
         -2   -1    0    0    0  501 -0.00000000000E+00  0.00000000000E+00  0.10129128326E+03  0.10129128326E+03  0.00000000000E+00 0.  1.
          2   -1    0    0  501    0  0.00000000000E+00 -0.00000000000E+00 -0.21554262374E+02  0.21554262374E+02  0.00000000000E+00 0. -1.
         23    2    1    2    0    0  0.00000000000E+00  0.00000000000E+00  0.79737020890E+02  0.12284554564E+03  0.93450712050E+02 0.  0.
        -13    1    3    3    0    0 -0.53865847127E+00 -0.27078470151E+02 -0.10183282860E+02  0.28934977942E+02  0.00000000000E+00 0. -1.
         13    1    3    3    0    0  0.53865847127E+00  0.27078470151E+02  0.89920303749E+02  0.93910567696E+02  0.00000000000E+00 0.  1.
<mgrwt>
<rscale>  0 0.93450712E+02</rscale>
<asrwt>0</asrwt>
<pdfrwt beam="2">  1        2 0.33160404E-02 0.93450712E+02</pdfrwt>
<pdfrwt beam="1">  1       -2 0.15583274E-01 0.93450712E+02</pdfrwt>
<totfact> 0.74767561E+04</totfact>
</mgrwt>
</event>
<event>
 5    1  0.1265228E+001  0.9102926E+02  0.7546771E-02  0.1300378E+00
         -2   -1    0    0    0  501 -0.00000000000E+00  0.00000000000E+00  0.14129947428E+02  0.14129947428E+02  0.00000000000E+00 0. -1.
          2   -1    0    0  501    0  0.00000000000E+00 -0.00000000000E+00 -0.14660929429E+03  0.14660929429E+03  0.00000000000E+00 0.  1.
         23    2    1    2    0    0  0.00000000000E+00  0.00000000000E+00 -0.13247934686E+03  0.16073924172E+03  0.91029261685E+02 0.  0.
        -11    1    3    3    0    0  0.31622217734E+02 -0.56248849350E+01 -0.92950277575E+01  0.33436529814E+02  0.00000000000E+00 0. -1.
         11    1    3    3    0    0 -0.31622217734E+02  0.56248849350E+01 -0.12318431910E+03  0.12730271190E+03  0.00000000000E+00 0.  1.
<mgrwt>
<rscale>  0 0.91029262E+02</rscale>
<asrwt>0</asrwt>
<pdfrwt beam="2">  1        2 0.22555275E-01 0.91029262E+02</pdfrwt>
<pdfrwt beam="1">  1       -2 0.21738381E-02 0.91029262E+02</pdfrwt>
<totfact> 0.13934167E+05</totfact>
</mgrwt>
</event>
<event>
 5    1  0.1265228E+001  0.9159711E+02  0.7546771E-02  0.1299030E+00
         -1   -1    0    0    0  501 -0.00000000000E+00  0.00000000000E+00  0.25607650834E+03  0.25607650834E+03  0.00000000000E+00 0. -1.
          1   -1    0    0  501    0  0.00000000000E+00 -0.00000000000E+00 -0.81909408162E+01  0.81909408162E+01  0.00000000000E+00 0.  1.
         23    2    1    2    0    0  0.00000000000E+00  0.00000000000E+00  0.24788556752E+03  0.26426744916E+03  0.91597107470E+02 0.  0.
        -13    1    3    3    0    0  0.13171946641E+02  0.43096527914E+02  0.14750487596E+03  0.15423520781E+03  0.00000000000E+00 0. -1.
         13    1    3    3    0    0 -0.13171946641E+02 -0.43096527914E+02  0.10038069157E+03  0.11003224135E+03  0.00000000000E+00 0.  1.
<mgrwt>
<rscale>  0 0.91597107E+02</rscale>
<asrwt>0</asrwt>
<pdfrwt beam="2">  1        1 0.12601449E-02 0.91597107E+02</pdfrwt>
<pdfrwt beam="1">  1       -1 0.39396380E-01 0.91597107E+02</pdfrwt>
<totfact> 0.63467525E+04</totfact>
</mgrwt>
</event>
<event>
 5    1  0.1265228E+001  0.9500557E+02  0.7546771E-02  0.1291164E+00
          2   -1    0    0  501    0  0.00000000000E+00  0.00000000000E+00  0.12356370546E+03  0.12356370546E+03  0.00000000000E+00 0. -1.
         -2   -1    0    0    0  501 -0.00000000000E+00 -0.00000000000E+00 -0.18261952180E+02  0.18261952180E+02  0.00000000000E+00 0.  1.
         23    2    1    2    0    0  0.00000000000E+00  0.00000000000E+00  0.10530175328E+03  0.14182565764E+03  0.95005567843E+02 0.  0.
        -13    1    3    3    0    0  0.19209526777E+02 -0.14254966482E+02 -0.86146331240E+01  0.25424828264E+02  0.00000000000E+00 0.  1.
         13    1    3    3    0    0 -0.19209526777E+02  0.14254966482E+02  0.11391638640E+03  0.11640082937E+03  0.00000000000E+00 0. -1.
<mgrwt>
<rscale>  0 0.95005568E+02</rscale>
<asrwt>0</asrwt>
<pdfrwt beam="1">  1        2 0.19009800E-01 0.95005568E+02</pdfrwt>
<pdfrwt beam="2">  1       -2 0.28095312E-02 0.95005568E+02</pdfrwt>
<totfact> 0.11711494E+05</totfact>
</mgrwt>
</event>
<event>
 5    1  0.1265228E+001  0.9059583E+02  0.7546771E-02  0.1301415E+00
         -3   -1    0    0    0  501 -0.00000000000E+00  0.00000000000E+00  0.10824736944E+03  0.10824736944E+03  0.00000000000E+00 0.  1.
          3   -1    0    0  501    0  0.00000000000E+00 -0.00000000000E+00 -0.18955666718E+02  0.18955666718E+02  0.00000000000E+00 0. -1.
         23    2    1    2    0    0  0.00000000000E+00  0.00000000000E+00  0.89291702725E+02  0.12720303616E+03  0.90595829006E+02 0.  0.
        -11    1    3    3    0    0 -0.32660225923E+02  0.79810771525E+01  0.87268460625E+02  0.93520971818E+02  0.00000000000E+00 0.  1.
         11    1    3    3    0    0  0.32660225923E+02 -0.79810771525E+01  0.20232420992E+01  0.33682064344E+02  0.00000000000E+00 0. -1.
<mgrwt>
<rscale>  0 0.90595829E+02</rscale>
<asrwt>0</asrwt>
<pdfrwt beam="2">  1        3 0.29162565E-02 0.90595829E+02</pdfrwt>
<pdfrwt beam="1">  1       -3 0.16653441E-01 0.90595829E+02</pdfrwt>
<totfact> 0.33335127E+04</totfact>
</mgrwt>
</event>
<event>
 5    1  0.1265228E+001  0.9026030E+02  0.7546771E-02  0.1302223E+00
          2   -1    0    0  501    0  0.00000000000E+00  0.00000000000E+00  0.92526847085E+02  0.92526847085E+02  0.00000000000E+00 0.  1.
         -2   -1    0    0    0  501 -0.00000000000E+00 -0.00000000000E+00 -0.22012320137E+02  0.22012320137E+02  0.00000000000E+00 0. -1.
         23    2    1    2    0    0  0.00000000000E+00  0.00000000000E+00  0.70514526948E+02  0.11453916722E+03  0.90260303109E+02 0.  0.
        -11    1    3    3    0    0  0.25918158932E+01 -0.15095916247E+02 -0.18613093801E+02  0.24105008978E+02  0.00000000000E+00 0. -1.
         11    1    3    3    0    0 -0.25918158932E+01  0.15095916247E+02  0.89127620750E+02  0.90434158245E+02  0.00000000000E+00 0.  1.
<mgrwt>
<rscale>  0 0.90260303E+02</rscale>
<asrwt>0</asrwt>
<pdfrwt beam="1">  1        2 0.14234899E-01 0.90260303E+02</pdfrwt>
<pdfrwt beam="2">  1       -2 0.33865108E-02 0.90260303E+02</pdfrwt>
<totfact> 0.12322521E+05</totfact>
</mgrwt>
</event>
<event>
 4    1  0.1265228E+001  0.2512712E+03  0.7546771E-02  0.1112504E+00
         -3   -1    0    0    0  501 -0.00000000000E+00  0.00000000000E+00  0.30289748324E+03  0.30289748324E+03  0.00000000000E+00 0.  1.
          3   -1    0    0  501    0  0.00000000000E+00 -0.00000000000E+00 -0.52111041285E+02  0.52111041285E+02  0.00000000000E+00 0. -1.
        -11    1    1    2    0    0  0.77068178453E+02  0.15753436099E+02  0.26379937998E+03  0.27527765575E+03  0.00000000000E+00 0.  1.
         11    1    1    2    0    0 -0.77068178453E+02 -0.15753436099E+02 -0.13012938026E+02  0.79730868771E+02  0.00000000000E+00 0. -1.
<mgrwt>
<rscale>  0 0.25127119E+03</rscale>
<asrwt>0</asrwt>
<pdfrwt beam="2">  1        3 0.80170835E-02 0.25127119E+03</pdfrwt>
<pdfrwt beam="1">  1       -3 0.46599612E-01 0.25127119E+03</pdfrwt>
<totfact> 0.12313213E+03</totfact>
</mgrwt>
</event>
<event>
 5    1  0.1265228E+001  0.8967281E+02  0.7546771E-02  0.1303646E+00
          1   -1    0    0  501    0  0.00000000000E+00  0.00000000000E+00  0.50103843912E+02  0.50103843912E+02  0.00000000000E+00 0. -1.
         -1   -1    0    0    0  501 -0.00000000000E+00 -0.00000000000E+00 -0.40122735895E+02  0.40122735895E+02  0.00000000000E+00 0.  1.
         23    2    1    2    0    0  0.00000000000E+00  0.00000000000E+00  0.99811080169E+01  0.90226579808E+02  0.89672811858E+02 0.  0.
        -11    1    3    3    0    0 -0.44615912958E+02 -0.15037676190E+01  0.91951503819E+01  0.45578413714E+02  0.00000000000E+00 0.  1.
         11    1    3    3    0    0  0.44615912958E+02  0.15037676190E+01  0.78595763503E+00  0.44648166094E+02  0.00000000000E+00 0. -1.
<mgrwt>
<rscale>  0 0.89672812E+02</rscale>
<asrwt>0</asrwt>
<pdfrwt beam="1">  1        1 0.77082837E-02 0.89672812E+02</pdfrwt>
<pdfrwt beam="2">  1       -1 0.61727286E-02 0.89672812E+02</pdfrwt>
<totfact> 0.98246710E+04</totfact>
</mgrwt>
</event>
<event>
 5    1  0.1265228E+001  0.8635570E+02  0.7546771E-02  0.1311925E+00
          1   -1    0    0  501    0  0.00000000000E+00  0.00000000000E+00  0.12495101527E+03  0.12495101527E+03  0.00000000000E+00 0. -1.
         -1   -1    0    0    0  501 -0.00000000000E+00 -0.00000000000E+00 -0.14920460790E+02  0.14920460790E+02  0.00000000000E+00 0.  1.
         23    2    1    2    0    0  0.00000000000E+00  0.00000000000E+00  0.11003055448E+03  0.13987147606E+03  0.86355699847E+02 0.  0.
        -13    1    3    3    0    0 -0.12593390973E+02 -0.38231371759E+02  0.29709598859E+02  0.50028907115E+02  0.00000000000E+00 0.  1.
         13    1    3    3    0    0  0.12593390973E+02  0.38231371759E+02  0.80320955621E+02  0.89842568945E+02  0.00000000000E+00 0. -1.
<mgrwt>
<rscale>  0 0.86355700E+02</rscale>
<asrwt>0</asrwt>
<pdfrwt beam="1">  1        1 0.19223232E-01 0.86355700E+02</pdfrwt>
<pdfrwt beam="2">  1       -1 0.22954556E-02 0.86355700E+02</pdfrwt>
<totfact> 0.12563502E+05</totfact>
</mgrwt>
</event>
<event>
 5    1  0.1265228E+001  0.9160077E+02  0.7546771E-02  0.1299021E+00
          1   -1    0    0  501    0  0.00000000000E+00  0.00000000000E+00  0.35134562815E+02  0.35134562815E+02  0.00000000000E+00 0. -1.
         -1   -1    0    0    0  501 -0.00000000000E+00 -0.00000000000E+00 -0.59704035382E+02  0.59704035382E+02  0.00000000000E+00 0.  1.
         23    2    1    2    0    0  0.00000000000E+00  0.00000000000E+00 -0.24569472567E+02  0.94838598197E+02  0.91600768151E+02 0.  0.
        -13    1    3    3    0    0  0.29685745477E+00 -0.45504305953E+02 -0.17659095497E+02  0.48811613766E+02  0.00000000000E+00 0. -1.
         13    1    3    3    0    0 -0.29685745477E+00  0.45504305953E+02 -0.69103770701E+01  0.46026984432E+02  0.00000000000E+00 0.  1.
<mgrwt>
<rscale>  0 0.91600768E+02</rscale>
<asrwt>0</asrwt>
<pdfrwt beam="1">  1        1 0.54053174E-02 0.91600768E+02</pdfrwt>
<pdfrwt beam="2">  1       -1 0.91852361E-02 0.91600768E+02</pdfrwt>
<totfact> 0.87710239E+04</totfact>
</mgrwt>
</event>
<event>
 5    1  0.1265228E+001  0.9132652E+02  0.7546771E-02  0.1299671E+00
         -3   -1    0    0    0  501 -0.00000000000E+00  0.00000000000E+00  0.56712154341E+02  0.56712154341E+02  0.00000000000E+00 0.  1.
          3   -1    0    0  501    0  0.00000000000E+00 -0.00000000000E+00 -0.36766958922E+02  0.36766958922E+02  0.00000000000E+00 0. -1.
         23    2    1    2    0    0  0.00000000000E+00  0.00000000000E+00  0.19945195419E+02  0.93479113263E+02  0.91326522961E+02 0.  0.
        -13    1    3    3    0    0 -0.13252079808E+02 -0.12513396774E+02 -0.32882258101E+02  0.37595819127E+02  0.00000000000E+00 0. -1.
         13    1    3    3    0    0  0.13252079808E+02  0.12513396774E+02  0.52827453520E+02  0.55883294136E+02  0.00000000000E+00 0.  1.
<mgrwt>
<rscale>  0 0.91326523E+02</rscale>
<asrwt>0</asrwt>
<pdfrwt beam="2">  1        3 0.56564552E-02 0.91326523E+02</pdfrwt>
<pdfrwt beam="1">  1       -3 0.87249468E-02 0.91326523E+02</pdfrwt>
<totfact> 0.35006187E+04</totfact>
</mgrwt>
</event>
<event>
 5    1  0.1265228E+001  0.9317878E+02  0.7546771E-02  0.1295331E+00
          1   -1    0    0  501    0  0.00000000000E+00  0.00000000000E+00  0.10249546946E+02  0.10249546946E+02  0.00000000000E+00 0. -1.
         -1   -1    0    0    0  501 -0.00000000000E+00 -0.00000000000E+00 -0.21177239565E+03  0.21177239565E+03  0.00000000000E+00 0.  1.
         23    2    1    2    0    0  0.00000000000E+00  0.00000000000E+00 -0.20152284870E+03  0.22202194260E+03  0.93178776793E+02 0.  0.
        -11    1    3    3    0    0 -0.21812834022E+01 -0.46046698992E+02 -0.11683655020E+03  0.12560189469E+03  0.00000000000E+00 0.  1.
         11    1    3    3    0    0  0.21812834022E+01  0.46046698992E+02 -0.84686298500E+02  0.96420047910E+02  0.00000000000E+00 0. -1.
<mgrwt>
<rscale>  0 0.93178777E+02</rscale>
<asrwt>0</asrwt>
<pdfrwt beam="1">  1        1 0.15768535E-02 0.93178777E+02</pdfrwt>
<pdfrwt beam="2">  1       -1 0.32580366E-01 0.93178777E+02</pdfrwt>
<totfact> 0.64510416E+04</totfact>
</mgrwt>
</event>
<event>
 5    1  0.1265228E+001  0.9331617E+02  0.7546771E-02  0.1295014E+00
          2   -1    0    0  501    0  0.00000000000E+00  0.00000000000E+00  0.53877578129E+02  0.53877578129E+02  0.00000000000E+00 0. -1.
         -2   -1    0    0    0  501 -0.00000000000E+00 -0.00000000000E+00 -0.40405990473E+02  0.40405990473E+02  0.00000000000E+00 0.  1.
         23    2    1    2    0    0  0.00000000000E+00  0.00000000000E+00  0.13471587655E+02  0.94283568602E+02  0.93316170273E+02 0.  0.
        -11    1    3    3    0    0 -0.15316070166E+02 -0.41754621307E+02 -0.75152691644E+01  0.45105539310E+02  0.00000000000E+00 0.  1.
         11    1    3    3    0    0  0.15316070166E+02  0.41754621307E+02  0.20986856820E+02  0.49178029292E+02  0.00000000000E+00 0. -1.
<mgrwt>
<rscale>  0 0.93316170E+02</rscale>
<asrwt>0</asrwt>
<pdfrwt beam="1">  1        2 0.82888582E-02 0.93316170E+02</pdfrwt>
<pdfrwt beam="2">  1       -2 0.62163062E-02 0.93316170E+02</pdfrwt>
<totfact> 0.96490839E+04</totfact>
</mgrwt>
</event>
<event>
 5    1  0.1265228E+001  0.7743900E+02  0.7546771E-02  0.1336480E+00
         -1   -1    0    0    0  501 -0.00000000000E+00  0.00000000000E+00  0.36666733583E+01  0.36666733583E+01  0.00000000000E+00 0.  1.
          1   -1    0    0  501    0  0.00000000000E+00 -0.00000000000E+00 -0.40887194297E+03  0.40887194297E+03  0.00000000000E+00 0. -1.
         23    2    1    2    0    0  0.00000000000E+00  0.00000000000E+00 -0.40520526962E+03  0.41253861633E+03  0.77439004649E+02 0.  0.
        -11    1    3    3    0    0  0.29690166379E+02 -0.24851934824E+02 -0.20114160053E+03  0.20483424545E+03  0.00000000000E+00 0.  1.
         11    1    3    3    0    0 -0.29690166379E+02  0.24851934824E+02 -0.20406366908E+03  0.20770437088E+03  0.00000000000E+00 0. -1.
<mgrwt>
<rscale>  0 0.77439005E+02</rscale>
<asrwt>0</asrwt>
<pdfrwt beam="2">  1        1 0.62903374E-01 0.77439005E+02</pdfrwt>
<pdfrwt beam="1">  1       -1 0.56410361E-03 0.77439005E+02</pdfrwt>
<totfact> 0.20808511E+05</totfact>
</mgrwt>
</event>
<event>
 5    1  0.1265228E+001  0.9229837E+02  0.7546771E-02  0.1297379E+00
          2   -1    0    0  501    0  0.00000000000E+00  0.00000000000E+00  0.12467422584E+03  0.12467422584E+03  0.00000000000E+00 0. -1.
         -2   -1    0    0    0  501 -0.00000000000E+00 -0.00000000000E+00 -0.17082500189E+02  0.17082500189E+02  0.00000000000E+00 0.  1.
         23    2    1    2    0    0  0.00000000000E+00  0.00000000000E+00  0.10759172565E+03  0.14175672603E+03  0.92298374557E+02 0.  0.
        -11    1    3    3    0    0 -0.24643649511E+02  0.34482368583E+02  0.25752169564E+02  0.49593522174E+02  0.00000000000E+00 0.  1.
         11    1    3    3    0    0  0.24643649511E+02 -0.34482368583E+02  0.81839556088E+02  0.92163203856E+02  0.00000000000E+00 0. -1.
<mgrwt>
<rscale>  0 0.92298375E+02</rscale>
<asrwt>0</asrwt>
<pdfrwt beam="1">  1        2 0.19180650E-01 0.92298375E+02</pdfrwt>
<pdfrwt beam="2">  1       -2 0.26280770E-02 0.92298375E+02</pdfrwt>
<totfact> 0.12715051E+05</totfact>
</mgrwt>
</event>
<event>
 5    1  0.1265228E+001  0.9009328E+02  0.7546771E-02  0.1302626E+00
          2   -1    0    0  501    0  0.00000000000E+00  0.00000000000E+00  0.42850548635E+02  0.42850548635E+02  0.00000000000E+00 0. -1.
         -2   -1    0    0    0  501 -0.00000000000E+00 -0.00000000000E+00 -0.47355277200E+02  0.47355277200E+02  0.00000000000E+00 0.  1.
         23    2    1    2    0    0  0.00000000000E+00  0.00000000000E+00 -0.45047285648E+01  0.90205825836E+02  0.90093276304E+02 0.  0.
        -11    1    3    3    0    0  0.40541029743E+02 -0.11681168200E+02  0.13552627987E+02  0.44313637951E+02  0.00000000000E+00 0.  1.
         11    1    3    3    0    0 -0.40541029743E+02  0.11681168200E+02 -0.18057356552E+02  0.45892187884E+02  0.00000000000E+00 0. -1.
<mgrwt>
<rscale>  0 0.90093276E+02</rscale>
<asrwt>0</asrwt>
<pdfrwt beam="1">  1        2 0.65923922E-02 0.90093276E+02</pdfrwt>
<pdfrwt beam="2">  1       -2 0.72854272E-02 0.90093276E+02</pdfrwt>
<totfact> 0.10050059E+05</totfact>
</mgrwt>
</event>
<event>
 4    1  0.1265228E+001  0.5414915E+02  0.7546771E-02  0.1424166E+00
          2   -1    0    0  501    0  0.00000000000E+00  0.00000000000E+00  0.41324368269E+02  0.41324368269E+02  0.00000000000E+00 0. -1.
         -2   -1    0    0    0  501 -0.00000000000E+00 -0.00000000000E+00 -0.17738508379E+02  0.17738508379E+02  0.00000000000E+00 0.  1.
        -13    1    1    2    0    0  0.25583366397E+02  0.77512681010E+01  0.16477020610E+02  0.31401958563E+02  0.00000000000E+00 0.  1.
         13    1    1    2    0    0 -0.25583366397E+02 -0.77512681010E+01  0.71088392798E+01  0.27660918085E+02  0.00000000000E+00 0. -1.
<mgrwt>
<rscale>  0 0.54149152E+02</rscale>
<asrwt>0</asrwt>
<pdfrwt beam="1">  1        2 0.63575951E-02 0.54149152E+02</pdfrwt>
<pdfrwt beam="2">  1       -2 0.27290013E-02 0.54149152E+02</pdfrwt>
<totfact> 0.40250120E+05</totfact>
</mgrwt>
</event>
<event>
 5    1  0.1265228E+001  0.9128425E+02  0.7546771E-02  0.1299771E+00
          1   -1    0    0  501    0  0.00000000000E+00  0.00000000000E+00  0.10163996184E+02  0.10163996184E+02  0.00000000000E+00 0. -1.
         -1   -1    0    0    0  501 -0.00000000000E+00 -0.00000000000E+00 -0.20495911311E+03  0.20495911311E+03  0.00000000000E+00 0.  1.
         23    2    1    2    0    0  0.00000000000E+00  0.00000000000E+00 -0.19479511693E+03  0.21512310929E+03  0.91284251512E+02 0.  0.
        -11    1    3    3    0    0  0.36430572638E+02  0.26264801019E+02 -0.11656859345E+03  0.12492102855E+03  0.00000000000E+00 0.  1.
         11    1    3    3    0    0 -0.36430572638E+02 -0.26264801019E+02 -0.78226523480E+02  0.90202080747E+02  0.00000000000E+00 0. -1.
<mgrwt>
<rscale>  0 0.91284252E+02</rscale>
<asrwt>0</asrwt>
<pdfrwt beam="1">  1        1 0.15636917E-02 0.91284252E+02</pdfrwt>
<pdfrwt beam="2">  1       -1 0.31532172E-01 0.91284252E+02</pdfrwt>
<totfact> 0.68724120E+04</totfact>
</mgrwt>
</event>
<event>
 5    1  0.1265228E+001  0.8984537E+02  0.7546771E-02  0.1303227E+00
         -2   -1    0    0    0  501 -0.00000000000E+00  0.00000000000E+00  0.38725028546E+02  0.38725028546E+02  0.00000000000E+00 0.  1.
          2   -1    0    0  501    0  0.00000000000E+00 -0.00000000000E+00 -0.52112229025E+02  0.52112229025E+02  0.00000000000E+00 0. -1.
         23    2    1    2    0    0  0.00000000000E+00  0.00000000000E+00 -0.13387200479E+02  0.90837257571E+02  0.89845368419E+02 0.  0.
        -13    1    3    3    0    0  0.14209047742E+02  0.30275619491E+02  0.23629802118E+02  0.40949697452E+02  0.00000000000E+00 0.  1.
         13    1    3    3    0    0 -0.14209047742E+02 -0.30275619491E+02 -0.37017002597E+02  0.49887560118E+02  0.00000000000E+00 0. -1.
<mgrwt>
<rscale>  0 0.89845368E+02</rscale>
<asrwt>0</asrwt>
<pdfrwt beam="2">  1        2 0.80172659E-02 0.89845368E+02</pdfrwt>
<pdfrwt beam="1">  1       -2 0.59576968E-02 0.89845368E+02</pdfrwt>
<totfact> 0.10653542E+05</totfact>
</mgrwt>
</event>
<event>
 5    1  0.1265228E+001  0.9768338E+02  0.7546771E-02  0.1285244E+00
         -2   -1    0    0    0  501 -0.00000000000E+00  0.00000000000E+00  0.17639809800E+02  0.17639809800E+02  0.00000000000E+00 0.  1.
          2   -1    0    0  501    0  0.00000000000E+00 -0.00000000000E+00 -0.13523450236E+03  0.13523450236E+03  0.00000000000E+00 0. -1.
         23    2    1    2    0    0  0.00000000000E+00  0.00000000000E+00 -0.11759469256E+03  0.15287431216E+03  0.97683384463E+02 0.  0.
        -11    1    3    3    0    0  0.31955320385E+02 -0.21478490653E+02 -0.11768102649E+02  0.40261101594E+02  0.00000000000E+00 0.  1.
         11    1    3    3    0    0 -0.31955320385E+02  0.21478490653E+02 -0.10582658991E+03  0.11261321056E+03  0.00000000000E+00 0. -1.
<mgrwt>
<rscale>  0 0.97683384E+02</rscale>
<asrwt>0</asrwt>
<pdfrwt beam="2">  1        2 0.20805308E-01 0.97683384E+02</pdfrwt>
<pdfrwt beam="1">  1       -2 0.27138169E-02 0.97683384E+02</pdfrwt>
<totfact> 0.11180726E+05</totfact>
</mgrwt>
</event>
<event>
 5    1  0.1265228E+001  0.9159699E+02  0.7546771E-02  0.1299030E+00
          4   -1    0    0  501    0  0.00000000000E+00  0.00000000000E+00  0.73522998100E+01  0.73522998100E+01  0.00000000000E+00 0. -1.
         -4   -1    0    0    0  501 -0.00000000000E+00 -0.00000000000E+00 -0.28528519736E+03  0.28528519736E+03  0.00000000000E+00 0.  1.
         23    2    1    2    0    0  0.00000000000E+00  0.00000000000E+00 -0.27793289755E+03  0.29263749717E+03  0.91596993452E+02 0.  0.
        -11    1    3    3    0    0 -0.18284907143E+02 -0.41252686538E+02 -0.16399659302E+03  0.17009116525E+03  0.00000000000E+00 0.  1.
         11    1    3    3    0    0  0.18284907143E+02  0.41252686538E+02 -0.11393630453E+03  0.12254633192E+03  0.00000000000E+00 0. -1.
<mgrwt>
<rscale>  0 0.91596993E+02</rscale>
<asrwt>0</asrwt>
<pdfrwt beam="1">  1        4 0.11311230E-02 0.91596993E+02</pdfrwt>
<pdfrwt beam="2">  1       -4 0.43890033E-01 0.91596993E+02</pdfrwt>
<totfact> 0.17827401E+04</totfact>
</mgrwt>
</event>
<event>
 5    1  0.1265228E+001  0.9021637E+02  0.7546771E-02  0.1302329E+00
          1   -1    0    0  501    0  0.00000000000E+00  0.00000000000E+00  0.16074208760E+03  0.16074208760E+03  0.00000000000E+00 0. -1.
         -1   -1    0    0    0  501 -0.00000000000E+00 -0.00000000000E+00 -0.12658466013E+02  0.12658466013E+02  0.00000000000E+00 0.  1.
         23    2    1    2    0    0  0.00000000000E+00  0.00000000000E+00  0.14808362159E+03  0.17340055361E+03  0.90216367754E+02 0.  0.
        -11    1    3    3    0    0 -0.16726902427E+02 -0.31213053031E+02  0.12774603286E+03  0.13256354271E+03  0.00000000000E+00 0. -1.
         11    1    3    3    0    0  0.16726902427E+02  0.31213053031E+02  0.20337588730E+02  0.40837010905E+02  0.00000000000E+00 0.  1.
<mgrwt>
<rscale>  0 0.90216368E+02</rscale>
<asrwt>0</asrwt>
<pdfrwt beam="1">  1        1 0.24729550E-01 0.90216368E+02</pdfrwt>
<pdfrwt beam="2">  1       -1 0.19474564E-02 0.90216368E+02</pdfrwt>
<totfact> 0.11686011E+05</totfact>
</mgrwt>
</event>
<event>
 5    1  0.1265228E+001  0.9061835E+02  0.7546771E-02  0.1301361E+00
         -2   -1    0    0    0  501 -0.00000000000E+00  0.00000000000E+00  0.17313208121E+02  0.17313208121E+02  0.00000000000E+00 0.  1.
          2   -1    0    0  501    0  0.00000000000E+00 -0.00000000000E+00 -0.11857545287E+03  0.11857545287E+03  0.00000000000E+00 0. -1.
         23    2    1    2    0    0  0.00000000000E+00  0.00000000000E+00 -0.10126224475E+03  0.13588866100E+03  0.90618353409E+02 0.  0.
        -13    1    3    3    0    0  0.23172612444E+02  0.27188687336E+02 -0.92423896510E+02  0.99087695163E+02  0.00000000000E+00 0. -1.
         13    1    3    3    0    0 -0.23172612444E+02 -0.27188687336E+02 -0.88383482440E+01  0.36800965833E+02  0.00000000000E+00 0.  1.
<mgrwt>
<rscale>  0 0.90618353E+02</rscale>
<asrwt>0</asrwt>
<pdfrwt beam="2">  1        2 0.18242378E-01 0.90618353E+02</pdfrwt>
<pdfrwt beam="1">  1       -2 0.26635704E-02 0.90618353E+02</pdfrwt>
<totfact> 0.13155975E+05</totfact>
</mgrwt>
</event>
<event>
 5    1  0.1265228E+001  0.9078787E+02  0.7546771E-02  0.1300955E+00
         -2   -1    0    0    0  501 -0.00000000000E+00  0.00000000000E+00  0.30930156694E+02  0.30930156694E+02  0.00000000000E+00 0.  1.
          2   -1    0    0  501    0  0.00000000000E+00 -0.00000000000E+00 -0.66621364217E+02  0.66621364217E+02  0.00000000000E+00 0. -1.
         23    2    1    2    0    0  0.00000000000E+00  0.00000000000E+00 -0.35691207523E+02  0.97551520912E+02  0.90787867789E+02 0.  0.
        -13    1    3    3    0    0 -0.40283507999E+02  0.10615926632E+02  0.15296911127E+01  0.41686914852E+02  0.00000000000E+00 0.  1.
         13    1    3    3    0    0  0.40283507999E+02 -0.10615926632E+02 -0.37220898636E+02  0.55864606060E+02  0.00000000000E+00 0. -1.
<mgrwt>
<rscale>  0 0.90787868E+02</rscale>
<asrwt>0</asrwt>
<pdfrwt beam="2">  1        2 0.10249441E-01 0.90787868E+02</pdfrwt>
<pdfrwt beam="1">  1       -2 0.47584857E-02 0.90787868E+02</pdfrwt>
<totfact> 0.11043766E+05</totfact>
</mgrwt>
</event>
<event>
 5    1  0.1265228E+001  0.8976791E+02  0.7546771E-02  0.1303415E+00
          1   -1    0    0  501    0  0.00000000000E+00  0.00000000000E+00  0.13465055400E+03  0.13465055400E+03  0.00000000000E+00 0. -1.
         -1   -1    0    0    0  501 -0.00000000000E+00 -0.00000000000E+00 -0.14961463744E+02  0.14961463744E+02  0.00000000000E+00 0.  1.
         23    2    1    2    0    0  0.00000000000E+00  0.00000000000E+00  0.11968909025E+03  0.14961201774E+03  0.89767909227E+02 0.  0.
        -11    1    3    3    0    0  0.33828600409E+02  0.23359421528E+02  0.29820131405E+02  0.50786583039E+02  0.00000000000E+00 0.  1.
         11    1    3    3    0    0 -0.33828600409E+02 -0.23359421528E+02  0.89868958845E+02  0.98825434700E+02  0.00000000000E+00 0. -1.
<mgrwt>
<rscale>  0 0.89767909E+02</rscale>
<asrwt>0</asrwt>
<pdfrwt beam="1">  1        1 0.20715469E-01 0.89767909E+02</pdfrwt>
<pdfrwt beam="2">  1       -1 0.23017637E-02 0.89767909E+02</pdfrwt>
<totfact> 0.11467737E+05</totfact>
</mgrwt>
</event>
<event>
 5    1  0.1265228E+001  0.9133016E+02  0.7546771E-02  0.1299662E+00
          2   -1    0    0  501    0  0.00000000000E+00  0.00000000000E+00  0.18127314689E+03  0.18127314689E+03  0.00000000000E+00 0. -1.
         -2   -1    0    0    0  501 -0.00000000000E+00 -0.00000000000E+00 -0.11503632671E+02  0.11503632671E+02  0.00000000000E+00 0.  1.
         23    2    1    2    0    0  0.00000000000E+00  0.00000000000E+00  0.16976951422E+03  0.19277677956E+03  0.91330163581E+02 0.  0.
        -13    1    3    3    0    0  0.22802201192E+02  0.38934937936E+02  0.99724810221E+02  0.10945733207E+03  0.00000000000E+00 0. -1.
         13    1    3    3    0    0 -0.22802201192E+02 -0.38934937936E+02  0.70044703998E+02  0.83319447486E+02  0.00000000000E+00 0.  1.
<mgrwt>
<rscale>  0 0.91330164E+02</rscale>
<asrwt>0</asrwt>
<pdfrwt beam="1">  1        2 0.27888174E-01 0.91330164E+02</pdfrwt>
<pdfrwt beam="2">  1       -2 0.17697898E-02 0.91330164E+02</pdfrwt>
<totfact> 0.14864371E+05</totfact>
</mgrwt>
</event>
<event>
 5    1  0.1265228E+001  0.9176757E+02  0.7546771E-02  0.1298627E+00
          2   -1    0    0  501    0  0.00000000000E+00  0.00000000000E+00  0.61050319029E+02  0.61050319029E+02  0.00000000000E+00 0. -1.
         -2   -1    0    0    0  501 -0.00000000000E+00 -0.00000000000E+00 -0.34485020710E+02  0.34485020710E+02  0.00000000000E+00 0.  1.
         23    2    1    2    0    0  0.00000000000E+00  0.00000000000E+00  0.26565298319E+02  0.95535339739E+02  0.91767565427E+02 0.  0.
        -11    1    3    3    0    0 -0.45289554181E+02 -0.66818794776E+01  0.10068783037E+02  0.46873997303E+02  0.00000000000E+00 0.  1.
         11    1    3    3    0    0  0.45289554181E+02  0.66818794776E+01  0.16496515282E+02  0.48661342437E+02  0.00000000000E+00 0. -1.
<mgrwt>
<rscale>  0 0.91767565E+02</rscale>
<asrwt>0</asrwt>
<pdfrwt beam="1">  1        2 0.93923568E-02 0.91767565E+02</pdfrwt>
<pdfrwt beam="2">  1       -2 0.53053878E-02 0.91767565E+02</pdfrwt>
<totfact> 0.10464043E+05</totfact>
</mgrwt>
</event>
<event>
 5    1  0.1265228E+001  0.9055891E+02  0.7546771E-02  0.1301504E+00
         -2   -1    0    0    0  501 -0.00000000000E+00  0.00000000000E+00  0.95090607855E+02  0.95090607855E+02  0.00000000000E+00 0.  1.
          2   -1    0    0  501    0  0.00000000000E+00 -0.00000000000E+00 -0.21560794180E+02  0.21560794180E+02  0.00000000000E+00 0. -1.
         23    2    1    2    0    0  0.00000000000E+00  0.00000000000E+00  0.73529813675E+02  0.11665140204E+03  0.90558909544E+02 0.  0.
        -11    1    3    3    0    0  0.21705030034E+02 -0.39486256118E+02  0.42519286365E+02  0.61952905210E+02  0.00000000000E+00 0.  1.
         11    1    3    3    0    0 -0.21705030034E+02  0.39486256118E+02  0.31010527309E+02  0.54698496826E+02  0.00000000000E+00 0. -1.
<mgrwt>
<rscale>  0 0.90558910E+02</rscale>
<asrwt>0</asrwt>
<pdfrwt beam="2">  1        2 0.33170453E-02 0.90558910E+02</pdfrwt>
<pdfrwt beam="1">  1       -2 0.14629324E-01 0.90558910E+02</pdfrwt>
<totfact> 0.82380257E+04</totfact>
</mgrwt>
</event>
<event>
 5    1  0.1265228E+001  0.9126322E+02  0.7546771E-02  0.1299821E+00
          1   -1    0    0  501    0  0.00000000000E+00  0.00000000000E+00  0.48632719822E+02  0.48632719822E+02  0.00000000000E+00 0. -1.
         -1   -1    0    0    0  501 -0.00000000000E+00 -0.00000000000E+00 -0.42815700768E+02  0.42815700768E+02  0.00000000000E+00 0.  1.
         23    2    1    2    0    0  0.00000000000E+00  0.00000000000E+00  0.58170190541E+01  0.91448420589E+02  0.91263223248E+02 0.  0.
        -13    1    3    3    0    0 -0.17232775115E+02 -0.36310046382E+02 -0.18742186656E+02  0.44347013057E+02  0.00000000000E+00 0.  1.
         13    1    3    3    0    0  0.17232775115E+02  0.36310046382E+02  0.24559205710E+02  0.47101407532E+02  0.00000000000E+00 0. -1.
<mgrwt>
<rscale>  0 0.91263223E+02</rscale>
<asrwt>0</asrwt>
<pdfrwt beam="1">  1        1 0.74819569E-02 0.91263223E+02</pdfrwt>
<pdfrwt beam="2">  1       -1 0.65870309E-02 0.91263223E+02</pdfrwt>
<totfact> 0.93127107E+04</totfact>
</mgrwt>
</event>
<event>
 5    1  0.1265228E+001  0.9165989E+02  0.7546771E-02  0.1298881E+00
         -2   -1    0    0    0  501 -0.00000000000E+00  0.00000000000E+00  0.18273397349E+03  0.18273397349E+03  0.00000000000E+00 0.  1.
          2   -1    0    0  501    0  0.00000000000E+00 -0.00000000000E+00 -0.11494217607E+02  0.11494217607E+02  0.00000000000E+00 0. -1.
         23    2    1    2    0    0  0.00000000000E+00  0.00000000000E+00  0.17123975588E+03  0.19422819109E+03  0.91659894295E+02 0.  0.
        -11    1    3    3    0    0 -0.25376866103E+02  0.29760645663E+02  0.34998044101E+02  0.52483754196E+02  0.00000000000E+00 0.  1.
         11    1    3    3    0    0  0.25376866103E+02 -0.29760645663E+02  0.13624171178E+03  0.14174443690E+03  0.00000000000E+00 0. -1.
<mgrwt>
<rscale>  0 0.91659894E+02</rscale>
<asrwt>0</asrwt>
<pdfrwt beam="2">  1        2 0.17683413E-02 0.91659894E+02</pdfrwt>
<pdfrwt beam="1">  1       -2 0.28112917E-01 0.91659894E+02</pdfrwt>
<totfact> 0.63868139E+04</totfact>
</mgrwt>
</event>
<event>
 5    1  0.1265228E+001  0.9180841E+02  0.7546771E-02  0.1298531E+00
          2   -1    0    0  501    0  0.00000000000E+00  0.00000000000E+00  0.34537136757E+02  0.34537136757E+02  0.00000000000E+00 0.  1.
         -2   -1    0    0    0  501 -0.00000000000E+00 -0.00000000000E+00 -0.61012475303E+02  0.61012475303E+02  0.00000000000E+00 0. -1.
         23    2    1    2    0    0  0.00000000000E+00  0.00000000000E+00 -0.26475338547E+02  0.95549612060E+02  0.91808413632E+02 0.  0.
        -13    1    3    3    0    0  0.25942016219E+02 -0.36947411765E+02 -0.21888848159E+02  0.50171915604E+02  0.00000000000E+00 0.  1.
         13    1    3    3    0    0 -0.25942016219E+02  0.36947411765E+02 -0.45864903874E+01  0.45377696456E+02  0.00000000000E+00 0. -1.
<mgrwt>
<rscale>  0 0.91808414E+02</rscale>
<asrwt>0</asrwt>
<pdfrwt beam="1">  1        2 0.53134057E-02 0.91808414E+02</pdfrwt>
<pdfrwt beam="2">  1       -2 0.93865345E-02 0.91808414E+02</pdfrwt>
<totfact> 0.89975086E+04</totfact>
</mgrwt>
</event>
<event>
 5    1  0.1265228E+001  0.9232162E+02  0.7546771E-02  0.1297325E+00
         -2   -1    0    0    0  501 -0.00000000000E+00  0.00000000000E+00  0.64982642870E+02  0.64982642870E+02  0.00000000000E+00 0.  1.
          2   -1    0    0  501    0  0.00000000000E+00 -0.00000000000E+00 -0.32790606775E+02  0.32790606775E+02  0.00000000000E+00 0. -1.
         23    2    1    2    0    0  0.00000000000E+00  0.00000000000E+00  0.32192036095E+02  0.97773249646E+02  0.92321618044E+02 0.  0.
        -11    1    3    3    0    0 -0.26128023187E+02  0.28040780151E+02 -0.11149818721E+02  0.39915879104E+02  0.00000000000E+00 0. -1.
         11    1    3    3    0    0  0.26128023187E+02 -0.28040780151E+02  0.43341854816E+02  0.57857370542E+02  0.00000000000E+00 0.  1.
<mgrwt>
<rscale>  0 0.92321618E+02</rscale>
<asrwt>0</asrwt>
<pdfrwt beam="2">  1        2 0.50447088E-02 0.92321618E+02</pdfrwt>
<pdfrwt beam="1">  1       -2 0.99973296E-02 0.92321618E+02</pdfrwt>
<totfact> 0.87301021E+04</totfact>
</mgrwt>
</event>
<event>
 5    1  0.1265228E+001  0.9410966E+02  0.7546771E-02  0.1293194E+00
          4   -1    0    0  501    0  0.00000000000E+00  0.00000000000E+00  0.22297212780E+03  0.22297212780E+03  0.00000000000E+00 0. -1.
         -4   -1    0    0    0  501 -0.00000000000E+00 -0.00000000000E+00 -0.99301954544E+01  0.99301954544E+01  0.00000000000E+00 0.  1.
         23    2    1    2    0    0  0.00000000000E+00  0.00000000000E+00  0.21304193234E+03  0.23290232325E+03  0.94109655400E+02 0.  0.
        -11    1    3    3    0    0 -0.96529005102E+01  0.31285264684E+02  0.22881217648E+02  0.39943665276E+02  0.00000000000E+00 0.  1.
         11    1    3    3    0    0  0.96529005102E+01 -0.31285264684E+02  0.19016071469E+03  0.19295865798E+03  0.00000000000E+00 0. -1.
<mgrwt>
<rscale>  0 0.94109655E+02</rscale>
<asrwt>0</asrwt>
<pdfrwt beam="1">  1        4 0.34303400E-01 0.94109655E+02</pdfrwt>
<pdfrwt beam="2">  1       -4 0.15277226E-02 0.94109655E+02</pdfrwt>
<totfact> 0.18452016E+04</totfact>
</mgrwt>
</event>
<event>
 5    1  0.1265228E+001  0.9062296E+02  0.7546771E-02  0.1301350E+00
         -1   -1    0    0    0  501 -0.00000000000E+00  0.00000000000E+00  0.89747701408E+01  0.89747701408E+01  0.00000000000E+00 0.  1.
          1   -1    0    0  501    0  0.00000000000E+00 -0.00000000000E+00 -0.22876690708E+03  0.22876690708E+03  0.00000000000E+00 0. -1.
         23    2    1    2    0    0  0.00000000000E+00  0.00000000000E+00 -0.21979213694E+03  0.23774167722E+03  0.90622964129E+02 0.  0.
        -11    1    3    3    0    0  0.45144699481E+02  0.13196677189E+01 -0.11947961444E+03  0.12773082510E+03  0.00000000000E+00 0. -1.
         11    1    3    3    0    0 -0.45144699481E+02 -0.13196677189E+01 -0.10031252250E+03  0.11001085212E+03  0.00000000000E+00 0.  1.
<mgrwt>
<rscale>  0 0.90622964E+02</rscale>
<asrwt>0</asrwt>
<pdfrwt beam="2">  1        1 0.35194906E-01 0.90622964E+02</pdfrwt>
<pdfrwt beam="1">  1       -1 0.13807340E-02 0.90622964E+02</pdfrwt>
<totfact> 0.12354363E+05</totfact>
</mgrwt>
</event>
<event>
 5    1  0.1265228E+001  0.8974108E+02  0.7546771E-02  0.1303480E+00
          1   -1    0    0  501    0  0.00000000000E+00  0.00000000000E+00  0.12642608139E+02  0.12642608139E+02  0.00000000000E+00 0. -1.
         -1   -1    0    0    0  501 -0.00000000000E+00 -0.00000000000E+00 -0.15925238515E+03  0.15925238515E+03  0.00000000000E+00 0.  1.
         23    2    1    2    0    0  0.00000000000E+00  0.00000000000E+00 -0.14660977701E+03  0.17189499329E+03  0.89741083138E+02 0.  0.
        -13    1    3    3    0    0 -0.32683476902E+02 -0.16134252425E+02 -0.23178429057E+02  0.43194482718E+02  0.00000000000E+00 0.  1.
         13    1    3    3    0    0  0.32683476902E+02  0.16134252425E+02 -0.12343134795E+03  0.12870051057E+03  0.00000000000E+00 0. -1.
<mgrwt>
<rscale>  0 0.89741083E+02</rscale>
<asrwt>0</asrwt>
<pdfrwt beam="1">  1        1 0.19450167E-02 0.89741083E+02</pdfrwt>
<pdfrwt beam="2">  1       -1 0.24500366E-01 0.89741083E+02</pdfrwt>
<totfact> 0.76827087E+04</totfact>
</mgrwt>
</event>
<event>
 4    1  0.1265228E+001  0.4951958E+02  0.7546771E-02  0.1447950E+00
          3   -1    0    0  501    0  0.00000000000E+00  0.00000000000E+00  0.32066870508E+02  0.32066870508E+02  0.00000000000E+00 0.  1.
         -3   -1    0    0    0  501 -0.00000000000E+00 -0.00000000000E+00 -0.19117776119E+02  0.19117776119E+02  0.00000000000E+00 0. -1.
        -13    1    1    2    0    0  0.14091027081E+02 -0.20334700865E+02  0.75030671917E+01  0.25852526390E+02  0.00000000000E+00 0.  1.
         13    1    1    2    0    0 -0.14091027081E+02  0.20334700865E+02  0.54460271970E+01  0.25332120237E+02  0.00000000000E+00 0. -1.
<mgrwt>
<rscale>  0 0.49519582E+02</rscale>
<asrwt>0</asrwt>
<pdfrwt beam="1">  1        3 0.49333647E-02 0.49519582E+02</pdfrwt>
<pdfrwt beam="2">  1       -3 0.29411963E-02 0.49519582E+02</pdfrwt>
<totfact> 0.19308116E+05</totfact>
</mgrwt>
</event>
<event>
 5    1  0.1265228E+001  0.8645262E+02  0.7546771E-02  0.1311677E+00
         -2   -1    0    0    0  501 -0.00000000000E+00  0.00000000000E+00  0.74975341764E+02  0.74975341764E+02  0.00000000000E+00 0.  1.
          2   -1    0    0  501    0  0.00000000000E+00 -0.00000000000E+00 -0.24921709875E+02  0.24921709875E+02  0.00000000000E+00 0. -1.
         23    2    1    2    0    0  0.00000000000E+00  0.00000000000E+00  0.50053631888E+02  0.99897051639E+02  0.86452616276E+02 0.  0.
        -13    1    3    3    0    0 -0.17514494119E+02 -0.22289810215E+02  0.62734784675E+02  0.68842184393E+02  0.00000000000E+00 0.  1.
         13    1    3    3    0    0  0.17514494119E+02  0.22289810215E+02 -0.12681152787E+02  0.31054867246E+02  0.00000000000E+00 0. -1.
<mgrwt>
<rscale>  0 0.86452616E+02</rscale>
<asrwt>0</asrwt>
<pdfrwt beam="2">  1        2 0.38341092E-02 0.86452616E+02</pdfrwt>
<pdfrwt beam="1">  1       -2 0.11534668E-01 0.86452616E+02</pdfrwt>
<totfact> 0.98647575E+04</totfact>
</mgrwt>
</event>
<event>
 5    1  0.1265228E+001  0.9332941E+02  0.7546771E-02  0.1294984E+00
         -2   -1    0    0    0  501 -0.00000000000E+00  0.00000000000E+00  0.27281213684E+02  0.27281213684E+02  0.00000000000E+00 0.  1.
          2   -1    0    0  501    0  0.00000000000E+00 -0.00000000000E+00 -0.79820293973E+02  0.79820293973E+02  0.00000000000E+00 0. -1.
         23    2    1    2    0    0  0.00000000000E+00  0.00000000000E+00 -0.52539080288E+02  0.10710150766E+03  0.93329405789E+02 0.  0.
        -11    1    3    3    0    0  0.13867642781E+02 -0.46233880570E+01 -0.77124998361E+02  0.78498105746E+02  0.00000000000E+00 0. -1.
         11    1    3    3    0    0 -0.13867642781E+02  0.46233880570E+01  0.24585918073E+02  0.28603401912E+02  0.00000000000E+00 0.  1.
<mgrwt>
<rscale>  0 0.93329406E+02</rscale>
<asrwt>0</asrwt>
<pdfrwt beam="2">  1        2 0.12280045E-01 0.93329406E+02</pdfrwt>
<pdfrwt beam="1">  1       -2 0.41971098E-02 0.93329406E+02</pdfrwt>
<totfact> 0.10755420E+05</totfact>
</mgrwt>
</event>
<event>
 5    1  0.1265228E+001  0.9031082E+02  0.7546771E-02  0.1302101E+00
         -2   -1    0    0    0  501 -0.00000000000E+00  0.00000000000E+00  0.51438521024E+01  0.51438521024E+01  0.00000000000E+00 0.  1.
          2   -1    0    0  501    0  0.00000000000E+00 -0.00000000000E+00 -0.39639771242E+03  0.39639771242E+03  0.00000000000E+00 0. -1.
         23    2    1    2    0    0  0.00000000000E+00  0.00000000000E+00 -0.39125386032E+03  0.40154156453E+03  0.90310823414E+02 0.  0.
        -13    1    3    3    0    0 -0.75097459932E+01 -0.44232197073E+02 -0.17289998870E+03  0.17862611689E+03  0.00000000000E+00 0. -1.
         13    1    3    3    0    0  0.75097459932E+01  0.44232197073E+02 -0.21835387162E+03  0.22291544763E+03  0.00000000000E+00 0.  1.
<mgrwt>
<rscale>  0 0.90310823E+02</rscale>
<asrwt>0</asrwt>
<pdfrwt beam="2">  1        2 0.60984280E-01 0.90310823E+02</pdfrwt>
<pdfrwt beam="1">  1       -2 0.79136165E-03 0.90310823E+02</pdfrwt>
<totfact> 0.20408164E+05</totfact>
</mgrwt>
</event>
<event>
 5    1  0.1265228E+001  0.9019386E+02  0.7546771E-02  0.1302383E+00
         -1   -1    0    0    0  501 -0.00000000000E+00  0.00000000000E+00  0.21782432795E+03  0.21782432795E+03  0.00000000000E+00 0.  1.
          1   -1    0    0  501    0  0.00000000000E+00 -0.00000000000E+00 -0.93365741498E+01  0.93365741498E+01  0.00000000000E+00 0. -1.
         23    2    1    2    0    0  0.00000000000E+00  0.00000000000E+00  0.20848775380E+03  0.22716090210E+03  0.90193857651E+02 0.  0.
        -11    1    3    3    0    0 -0.40596767020E+02  0.29734139062E+01  0.15313261059E+03  0.15845041845E+03  0.00000000000E+00 0.  1.
         11    1    3    3    0    0  0.40596767020E+02 -0.29734139062E+01  0.55355143211E+02  0.68710483645E+02  0.00000000000E+00 0. -1.
<mgrwt>
<rscale>  0 0.90193858E+02</rscale>
<asrwt>0</asrwt>
<pdfrwt beam="2">  1        1 0.14363962E-02 0.90193858E+02</pdfrwt>
<pdfrwt beam="1">  1       -1 0.33511431E-01 0.90193858E+02</pdfrwt>
<totfact> 0.69635878E+04</totfact>
</mgrwt>
</event>
<event>
 5    1  0.1265228E+001  0.7630889E+02  0.7546771E-02  0.1339865E+00
         -2   -1    0    0    0  501 -0.00000000000E+00  0.00000000000E+00  0.62697475365E+02  0.62697475365E+02  0.00000000000E+00 0.  1.
          2   -1    0    0  501    0  0.00000000000E+00 -0.00000000000E+00 -0.23218824103E+02  0.23218824103E+02  0.00000000000E+00 0. -1.
         23    2    1    2    0    0  0.00000000000E+00  0.00000000000E+00  0.39478651262E+02  0.85916299469E+02  0.76308889449E+02 0.  0.
        -11    1    3    3    0    0  0.33460707946E+02 -0.13650259311E+02  0.33520153894E+02  0.49290458231E+02  0.00000000000E+00 0.  1.
         11    1    3    3    0    0 -0.33460707946E+02  0.13650259311E+02  0.59584973682E+01  0.36625841238E+02  0.00000000000E+00 0. -1.
<mgrwt>
<rscale>  0 0.76308889E+02</rscale>
<asrwt>0</asrwt>
<pdfrwt beam="2">  1        2 0.35721268E-02 0.76308889E+02</pdfrwt>
<pdfrwt beam="1">  1       -2 0.96457653E-02 0.76308889E+02</pdfrwt>
<totfact> 0.13991472E+05</totfact>
</mgrwt>
</event>
<event>
 5    1  0.1265228E+001  0.1028132E+03  0.7546771E-02  0.1274489E+00
         -1   -1    0    0    0  501 -0.00000000000E+00  0.00000000000E+00  0.20281498943E+03  0.20281498943E+03  0.00000000000E+00 0.  1.
          1   -1    0    0  501    0  0.00000000000E+00 -0.00000000000E+00 -0.13029807938E+02  0.13029807938E+02  0.00000000000E+00 0. -1.
         23    2    1    2    0    0  0.00000000000E+00  0.00000000000E+00  0.18978518150E+03  0.21584479737E+03  0.10281323571E+03 0.  0.
        -11    1    3    3    0    0  0.27760936102E+02 -0.21699373376E+02  0.17347554672E+03  0.17701778919E+03  0.00000000000E+00 0.  1.
         11    1    3    3    0    0 -0.27760936102E+02  0.21699373376E+02  0.16309634775E+02  0.38827008186E+02  0.00000000000E+00 0. -1.
<mgrwt>
<rscale>  0 0.10281324E+03</rscale>
<asrwt>0</asrwt>
<pdfrwt beam="2">  1        1 0.20045860E-02 0.10281324E+03</pdfrwt>
<pdfrwt beam="1">  1       -1 0.31202304E-01 0.10281324E+03</pdfrwt>
<totfact> 0.50503227E+04</totfact>
</mgrwt>
</event>
<event>
 5    1  0.1265228E+001  0.7704040E+02  0.7546771E-02  0.1337667E+00
          4   -1    0    0  501    0  0.00000000000E+00  0.00000000000E+00  0.61751356254E+01  0.61751356254E+01  0.00000000000E+00 0.  1.
         -4   -1    0    0    0  501 -0.00000000000E+00 -0.00000000000E+00 -0.24028716439E+03  0.24028716439E+03  0.00000000000E+00 0. -1.
         23    2    1    2    0    0  0.00000000000E+00  0.00000000000E+00 -0.23411202876E+03  0.24646230001E+03  0.77040400547E+02 0.  0.
        -13    1    3    3    0    0 -0.14484075836E+01 -0.31240265635E+02 -0.45110864822E+02  0.54891185144E+02  0.00000000000E+00 0.  1.
         13    1    3    3    0    0  0.14484075836E+01  0.31240265635E+02 -0.18900116394E+03  0.19157111487E+03  0.00000000000E+00 0. -1.
<mgrwt>
<rscale>  0 0.77040401E+02</rscale>
<asrwt>0</asrwt>
<pdfrwt beam="1">  1        4 0.95002100E-03 0.77040401E+02</pdfrwt>
<pdfrwt beam="2">  1       -4 0.36967251E-01 0.77040401E+02</pdfrwt>
<totfact> 0.30532949E+04</totfact>
</mgrwt>
</event>
<event>
 5    1  0.1265228E+001  0.9122319E+02  0.7546771E-02  0.1299916E+00
         -2   -1    0    0    0  501 -0.00000000000E+00  0.00000000000E+00  0.12682206903E+02  0.12682206903E+02  0.00000000000E+00 0. -1.
          2   -1    0    0  501    0  0.00000000000E+00 -0.00000000000E+00 -0.16404222114E+03  0.16404222114E+03  0.00000000000E+00 0.  1.
         23    2    1    2    0    0  0.00000000000E+00  0.00000000000E+00 -0.15136001424E+03  0.17672442804E+03  0.91223185414E+02 0.  0.
        -11    1    3    3    0    0  0.15893847433E+02  0.29600735926E+02 -0.13544108739E+03  0.13954607163E+03  0.00000000000E+00 0.  1.
         11    1    3    3    0    0 -0.15893847433E+02 -0.29600735926E+02 -0.15918926844E+02  0.37178356411E+02  0.00000000000E+00 0. -1.
<mgrwt>
<rscale>  0 0.91223185E+02</rscale>
<asrwt>0</asrwt>
<pdfrwt beam="2">  1        2 0.25237265E-01 0.91223185E+02</pdfrwt>
<pdfrwt beam="1">  1       -2 0.19511087E-02 0.91223185E+02</pdfrwt>
<totfact> 0.14397741E+05</totfact>
</mgrwt>
</event>
<event>
 5    1  0.1265228E+001  0.9097163E+02  0.7546771E-02  0.1300516E+00
         -2   -1    0    0    0  501 -0.00000000000E+00  0.00000000000E+00  0.65533370603E+01  0.65533370603E+01  0.00000000000E+00 0.  1.
          2   -1    0    0  501    0  0.00000000000E+00 -0.00000000000E+00 -0.31571082590E+03  0.31571082590E+03  0.00000000000E+00 0. -1.
         23    2    1    2    0    0  0.00000000000E+00  0.00000000000E+00 -0.30915748884E+03  0.32226416296E+03  0.90971631967E+02 0.  0.
        -11    1    3    3    0    0  0.39073174160E+02 -0.60806520393E+01 -0.74950209744E+02  0.84742086409E+02  0.00000000000E+00 0.  1.
         11    1    3    3    0    0 -0.39073174160E+02  0.60806520393E+01 -0.23420727909E+03  0.23752207655E+03  0.00000000000E+00 0. -1.
<mgrwt>
<rscale>  0 0.90971632E+02</rscale>
<asrwt>0</asrwt>
<pdfrwt beam="2">  1        2 0.48570903E-01 0.90971632E+02</pdfrwt>
<pdfrwt beam="1">  1       -2 0.10082056E-02 0.90971632E+02</pdfrwt>
<totfact> 0.18420495E+05</totfact>
</mgrwt>
</event>
<event>
 5    1  0.1265228E+001  0.8748173E+02  0.7546771E-02  0.1309067E+00
          1   -1    0    0  501    0  0.00000000000E+00  0.00000000000E+00  0.47302256520E+02  0.47302256520E+02  0.00000000000E+00 0. -1.
         -1   -1    0    0    0  501 -0.00000000000E+00 -0.00000000000E+00 -0.40447607950E+02  0.40447607950E+02  0.00000000000E+00 0.  1.
         23    2    1    2    0    0  0.00000000000E+00  0.00000000000E+00  0.68546485700E+01  0.87749864470E+02  0.87481726706E+02 0.  0.
        -13    1    3    3    0    0 -0.41392399768E+02  0.12184866285E+02 -0.37683237849E+01  0.43312838617E+02  0.00000000000E+00 0. -1.
         13    1    3    3    0    0  0.41392399768E+02 -0.12184866285E+02  0.10622972355E+02  0.44437025852E+02  0.00000000000E+00 0.  1.
<mgrwt>
<rscale>  0 0.87481727E+02</rscale>
<asrwt>0</asrwt>
<pdfrwt beam="1">  1        1 0.72772703E-02 0.87481727E+02</pdfrwt>
<pdfrwt beam="2">  1       -1 0.62227089E-02 0.87481727E+02</pdfrwt>
<totfact> 0.10436542E+05</totfact>
</mgrwt>
</event>
<event>
 5    1  0.1265228E+001  0.9494732E+02  0.7546771E-02  0.1291295E+00
          1   -1    0    0  501    0  0.00000000000E+00  0.00000000000E+00  0.43513016376E+02  0.43513016376E+02  0.00000000000E+00 0. -1.
         -1   -1    0    0    0  501 -0.00000000000E+00 -0.00000000000E+00 -0.51794808245E+02  0.51794808245E+02  0.00000000000E+00 0.  1.
         23    2    1    2    0    0  0.00000000000E+00  0.00000000000E+00 -0.82817918690E+01  0.95307824621E+02  0.94947318853E+02 0.  0.
        -13    1    3    3    0    0 -0.29427239102E+02 -0.36465629211E+02  0.35066811151E+01  0.46989374623E+02  0.00000000000E+00 0. -1.
         13    1    3    3    0    0  0.29427239102E+02  0.36465629211E+02 -0.11788472984E+02  0.48318449999E+02  0.00000000000E+00 0.  1.
<mgrwt>
<rscale>  0 0.94947319E+02</rscale>
<asrwt>0</asrwt>
<pdfrwt beam="1">  1        1 0.66943102E-02 0.94947319E+02</pdfrwt>
<pdfrwt beam="2">  1       -1 0.79684320E-02 0.94947319E+02</pdfrwt>
<totfact> 0.81893176E+04</totfact>
</mgrwt>
</event>
<event>
 5    1  0.1265228E+001  0.9144255E+02  0.7546771E-02  0.1299395E+00
         -3   -1    0    0    0  501 -0.00000000000E+00  0.00000000000E+00  0.21089030363E+03  0.21089030363E+03  0.00000000000E+00 0.  1.
          3   -1    0    0  501    0  0.00000000000E+00 -0.00000000000E+00 -0.99124287543E+01  0.99124287543E+01  0.00000000000E+00 0. -1.
         23    2    1    2    0    0  0.00000000000E+00  0.00000000000E+00  0.20097787488E+03  0.22080273239E+03  0.91442552671E+02 0.  0.
        -13    1    3    3    0    0 -0.26511369234E+02 -0.31720671320E+02  0.14764481910E+03  0.15332333904E+03  0.00000000000E+00 0.  1.
         13    1    3    3    0    0  0.26511369234E+02  0.31720671320E+02  0.53333055779E+02  0.67479393346E+02  0.00000000000E+00 0. -1.
<mgrwt>
<rscale>  0 0.91442553E+02</rscale>
<asrwt>0</asrwt>
<pdfrwt beam="2">  1        3 0.15249892E-02 0.91442553E+02</pdfrwt>
<pdfrwt beam="1">  1       -3 0.32444659E-01 0.91442553E+02</pdfrwt>
<totfact> 0.27240408E+04</totfact>
</mgrwt>
</event>
<event>
 5    1  0.1265228E+001  0.9172765E+02  0.7546771E-02  0.1298721E+00
         -2   -1    0    0    0  501 -0.00000000000E+00  0.00000000000E+00  0.32064698408E+02  0.32064698408E+02  0.00000000000E+00 0.  1.
          2   -1    0    0  501    0  0.00000000000E+00 -0.00000000000E+00 -0.65601438652E+02  0.65601438652E+02  0.00000000000E+00 0. -1.
         23    2    1    2    0    0  0.00000000000E+00  0.00000000000E+00 -0.33536740244E+02  0.97666137060E+02  0.91727647861E+02 0.  0.
        -13    1    3    3    0    0 -0.17769696499E+02 -0.24192305194E+02  0.20153116661E+02  0.36154914679E+02  0.00000000000E+00 0.  1.
         13    1    3    3    0    0  0.17769696499E+02  0.24192305194E+02 -0.53689856906E+02  0.61511222381E+02  0.00000000000E+00 0. -1.
<mgrwt>
<rscale>  0 0.91727648E+02</rscale>
<asrwt>0</asrwt>
<pdfrwt beam="2">  1        2 0.10092529E-01 0.91727648E+02</pdfrwt>
<pdfrwt beam="1">  1       -2 0.49330306E-02 0.91727648E+02</pdfrwt>
<totfact> 0.10683822E+05</totfact>
</mgrwt>
</event>
<event>
 5    1  0.1265228E+001  0.8934826E+02  0.7546771E-02  0.1304438E+00
          1   -1    0    0  501    0  0.00000000000E+00  0.00000000000E+00  0.51715824908E+02  0.51715824908E+02  0.00000000000E+00 0. -1.
         -1   -1    0    0    0  501 -0.00000000000E+00 -0.00000000000E+00 -0.38591242088E+02  0.38591242088E+02  0.00000000000E+00 0.  1.
         23    2    1    2    0    0  0.00000000000E+00  0.00000000000E+00  0.13124582821E+02  0.90307066996E+02  0.89348260616E+02 0.  0.
        -11    1    3    3    0    0 -0.36468860956E+02  0.14439480656E+02  0.28176380986E+02  0.48294770592E+02  0.00000000000E+00 0. -1.
         11    1    3    3    0    0  0.36468860956E+02 -0.14439480656E+02 -0.15051798166E+02  0.42012296403E+02  0.00000000000E+00 0.  1.
<mgrwt>
<rscale>  0 0.89348261E+02</rscale>
<asrwt>0</asrwt>
<pdfrwt beam="1">  1        1 0.79562808E-02 0.89348261E+02</pdfrwt>
<pdfrwt beam="2">  1       -1 0.59371141E-02 0.89348261E+02</pdfrwt>
<totfact> 0.99708127E+04</totfact>
</mgrwt>
</event>
<event>
 5    1  0.1265228E+001  0.9315754E+02  0.7546771E-02  0.1295381E+00
          2   -1    0    0  501    0  0.00000000000E+00  0.00000000000E+00  0.38543668916E+02  0.38543668916E+02  0.00000000000E+00 0. -1.
         -2   -1    0    0    0  501 -0.00000000000E+00 -0.00000000000E+00 -0.56288932827E+02  0.56288932827E+02  0.00000000000E+00 0.  1.
         23    2    1    2    0    0  0.00000000000E+00  0.00000000000E+00 -0.17745263910E+02  0.94832601743E+02  0.93157543775E+02 0.  0.
        -11    1    3    3    0    0 -0.15827287942E+02  0.38751838649E+02 -0.29669709217E+02  0.51307891082E+02  0.00000000000E+00 0.  1.
         11    1    3    3    0    0  0.15827287942E+02 -0.38751838649E+02  0.11924445306E+02  0.43524710661E+02  0.00000000000E+00 0. -1.
<mgrwt>
<rscale>  0 0.93157544E+02</rscale>
<asrwt>0</asrwt>
<pdfrwt beam="1">  1        2 0.59297953E-02 0.93157544E+02</pdfrwt>
<pdfrwt beam="2">  1       -2 0.86598357E-02 0.93157544E+02</pdfrwt>
<totfact> 0.88740705E+04</totfact>
</mgrwt>
</event>
<event>
 5    1  0.1265228E+001  0.9293831E+02  0.7546771E-02  0.1295888E+00
          1   -1    0    0  501    0  0.00000000000E+00  0.00000000000E+00  0.29704749837E+02  0.29704749837E+02  0.00000000000E+00 0. -1.
         -1   -1    0    0    0  501 -0.00000000000E+00 -0.00000000000E+00 -0.72694845475E+02  0.72694845475E+02  0.00000000000E+00 0.  1.
         23    2    1    2    0    0  0.00000000000E+00  0.00000000000E+00 -0.42990095638E+02  0.10239959531E+03  0.92938306404E+02 0.  0.
        -11    1    3    3    0    0  0.13487404796E+02  0.44468482303E+02 -0.21673365571E+02  0.51274660230E+02  0.00000000000E+00 0.  1.
         11    1    3    3    0    0 -0.13487404796E+02 -0.44468482303E+02 -0.21316730067E+02  0.51124935083E+02  0.00000000000E+00 0. -1.
<mgrwt>
<rscale>  0 0.92938306E+02</rscale>
<asrwt>0</asrwt>
<pdfrwt beam="1">  1        1 0.45699616E-02 0.92938306E+02</pdfrwt>
<pdfrwt beam="2">  1       -1 0.11183822E-01 0.92938306E+02</pdfrwt>
<totfact> 0.81904566E+04</totfact>
</mgrwt>
</event>
<event>
 5    1  0.1265228E+001  0.9053017E+02  0.7546771E-02  0.1301573E+00
          1   -1    0    0  501    0  0.00000000000E+00  0.00000000000E+00  0.70736004417E+02  0.70736004417E+02  0.00000000000E+00 0. -1.
         -1   -1    0    0    0  501 -0.00000000000E+00 -0.00000000000E+00 -0.28965840686E+02  0.28965840686E+02  0.00000000000E+00 0.  1.
         23    2    1    2    0    0  0.00000000000E+00  0.00000000000E+00  0.41770163731E+02  0.99701845103E+02  0.90530168114E+02 0.  0.
        -13    1    3    3    0    0  0.17258065324E+02 -0.26085105567E+02 -0.15150745534E+02  0.34753685293E+02  0.00000000000E+00 0.  1.
         13    1    3    3    0    0 -0.17258065324E+02  0.26085105567E+02  0.56920909265E+02  0.64948159810E+02  0.00000000000E+00 0. -1.
<mgrwt>
<rscale>  0 0.90530168E+02</rscale>
<asrwt>0</asrwt>
<pdfrwt beam="1">  1        1 0.10882462E-01 0.90530168E+02</pdfrwt>
<pdfrwt beam="2">  1       -1 0.44562832E-02 0.90530168E+02</pdfrwt>
<totfact> 0.10078278E+05</totfact>
</mgrwt>
</event>
<event>
 5    1  0.1265228E+001  0.9254747E+02  0.7546771E-02  0.1296797E+00
          1   -1    0    0  501    0  0.00000000000E+00  0.00000000000E+00  0.10080647902E+02  0.10080647902E+02  0.00000000000E+00 0. -1.
         -1   -1    0    0    0  501 -0.00000000000E+00 -0.00000000000E+00 -0.21241279665E+03  0.21241279665E+03  0.00000000000E+00 0.  1.
         23    2    1    2    0    0  0.00000000000E+00  0.00000000000E+00 -0.20233214875E+03  0.22249344455E+03  0.92547471343E+02 0.  0.
        -13    1    3    3    0    0 -0.14337586677E+02 -0.43523903763E+02 -0.11662764277E+03  0.12530723702E+03  0.00000000000E+00 0.  1.
         13    1    3    3    0    0  0.14337586677E+02  0.43523903763E+02 -0.85704505978E+02  0.97186207536E+02  0.00000000000E+00 0. -1.
<mgrwt>
<rscale>  0 0.92547471E+02</rscale>
<asrwt>0</asrwt>
<pdfrwt beam="1">  1        1 0.15508690E-02 0.92547471E+02</pdfrwt>
<pdfrwt beam="2">  1       -1 0.32678890E-01 0.92547471E+02</pdfrwt>
<totfact> 0.65606829E+04</totfact>
</mgrwt>
</event>
<event>
 5    1  0.1265228E+001  0.9169239E+02  0.7546771E-02  0.1298804E+00
         -1   -1    0    0    0  501 -0.00000000000E+00  0.00000000000E+00  0.11835300091E+03  0.11835300091E+03  0.00000000000E+00 0.  1.
          1   -1    0    0  501    0  0.00000000000E+00 -0.00000000000E+00 -0.17759360526E+02  0.17759360526E+02  0.00000000000E+00 0. -1.
         23    2    1    2    0    0  0.00000000000E+00  0.00000000000E+00  0.10059364038E+03  0.13611236143E+03  0.91692390359E+02 0.  0.
        -13    1    3    3    0    0 -0.16611171571E+02 -0.10986340724E+02  0.11159638625E+03  0.11335953479E+03  0.00000000000E+00 0.  1.
         13    1    3    3    0    0  0.16611171571E+02  0.10986340724E+02 -0.11002745872E+02  0.22752826642E+02  0.00000000000E+00 0. -1.
<mgrwt>
<rscale>  0 0.91692390E+02</rscale>
<asrwt>0</asrwt>
<pdfrwt beam="2">  1        1 0.27322094E-02 0.91692390E+02</pdfrwt>
<pdfrwt beam="1">  1       -1 0.18208153E-01 0.91692390E+02</pdfrwt>
<totfact> 0.77611561E+04</totfact>
</mgrwt>
</event>
<event>
 5    1  0.1265228E+001  0.9404958E+02  0.7546771E-02  0.1293331E+00
         -2   -1    0    0    0  501 -0.00000000000E+00  0.00000000000E+00  0.10216806979E+02  0.10216806979E+02  0.00000000000E+00 0.  1.
          2   -1    0    0  501    0  0.00000000000E+00 -0.00000000000E+00 -0.21644049344E+03  0.21644049344E+03  0.00000000000E+00 0. -1.
         23    2    1    2    0    0  0.00000000000E+00  0.00000000000E+00 -0.20622368647E+03  0.22665730042E+03  0.94049577221E+02 0.  0.
        -11    1    3    3    0    0 -0.11372340171E+02 -0.44447303669E+02 -0.12797526223E+03  0.13595058171E+03  0.00000000000E+00 0.  1.
         11    1    3    3    0    0  0.11372340171E+02  0.44447303669E+02 -0.78248424237E+02  0.90706718715E+02  0.00000000000E+00 0. -1.
<mgrwt>
<rscale>  0 0.94049577E+02</rscale>
<asrwt>0</asrwt>
<pdfrwt beam="2">  1        2 0.33298533E-01 0.94049577E+02</pdfrwt>
<pdfrwt beam="1">  1       -2 0.15718167E-02 0.94049577E+02</pdfrwt>
<totfact> 0.14642485E+05</totfact>
</mgrwt>
</event>
<event>
 5    1  0.1265228E+001  0.9072178E+02  0.7546771E-02  0.1301113E+00
         -1   -1    0    0    0  501 -0.00000000000E+00  0.00000000000E+00  0.13218977152E+02  0.13218977152E+02  0.00000000000E+00 0.  1.
          1   -1    0    0  501    0  0.00000000000E+00 -0.00000000000E+00 -0.15565580162E+03  0.15565580162E+03  0.00000000000E+00 0. -1.
         23    2    1    2    0    0  0.00000000000E+00  0.00000000000E+00 -0.14243682447E+03  0.16887477878E+03  0.90721783166E+02 0.  0.
        -11    1    3    3    0    0  0.30022592486E+02 -0.32449423813E+02 -0.52300163815E+02  0.68480860834E+02  0.00000000000E+00 0.  1.
         11    1    3    3    0    0 -0.30022592486E+02  0.32449423813E+02 -0.90136660657E+02  0.10039391794E+03  0.00000000000E+00 0. -1.
<mgrwt>
<rscale>  0 0.90721783E+02</rscale>
<asrwt>0</asrwt>
<pdfrwt beam="2">  1        1 0.23947046E-01 0.90721783E+02</pdfrwt>
<pdfrwt beam="1">  1       -1 0.20336888E-02 0.90721783E+02</pdfrwt>
<totfact> 0.11443342E+05</totfact>
</mgrwt>
</event>
<event>
 5    1  0.1265228E+001  0.8742109E+02  0.7546771E-02  0.1309220E+00
         -1   -1    0    0    0  501 -0.00000000000E+00  0.00000000000E+00  0.23436093419E+02  0.23436093419E+02  0.00000000000E+00 0.  1.
          1   -1    0    0  501    0  0.00000000000E+00 -0.00000000000E+00 -0.81524332532E+02  0.81524332532E+02  0.00000000000E+00 0. -1.
         23    2    1    2    0    0  0.00000000000E+00  0.00000000000E+00 -0.58088239113E+02  0.10496042595E+03  0.87421092950E+02 0.  0.
        -11    1    3    3    0    0  0.29109918630E+02  0.41103903471E+01  0.97926882414E+01  0.30986761922E+02  0.00000000000E+00 0.  1.
         11    1    3    3    0    0 -0.29109918630E+02 -0.41103903471E+01 -0.67880927354E+02  0.73973664029E+02  0.00000000000E+00 0. -1.
<mgrwt>
<rscale>  0 0.87421093E+02</rscale>
<asrwt>0</asrwt>
<pdfrwt beam="2">  1        1 0.12542205E-01 0.87421093E+02</pdfrwt>
<pdfrwt beam="1">  1       -1 0.36055529E-02 0.87421093E+02</pdfrwt>
<totfact> 0.11335574E+05</totfact>
</mgrwt>
</event>
<event>
 5    1  0.1265228E+001  0.9085588E+02  0.7546771E-02  0.1300792E+00
          1   -1    0    0  501    0  0.00000000000E+00  0.00000000000E+00  0.20202854669E+02  0.20202854669E+02  0.00000000000E+00 0. -1.
         -1   -1    0    0    0  501 -0.00000000000E+00 -0.00000000000E+00 -0.10214881369E+03  0.10214881369E+03  0.00000000000E+00 0.  1.
         23    2    1    2    0    0  0.00000000000E+00  0.00000000000E+00 -0.81945959017E+02  0.12235166835E+03  0.90855877904E+02 0.  0.
        -11    1    3    3    0    0 -0.29311351663E+02  0.79968685094E+01 -0.86453151911E+02  0.91636525019E+02  0.00000000000E+00 0.  1.
         11    1    3    3    0    0  0.29311351663E+02 -0.79968685094E+01  0.45071928947E+01  0.30715143334E+02  0.00000000000E+00 0. -1.
<mgrwt>
<rscale>  0 0.90855878E+02</rscale>
<asrwt>0</asrwt>
<pdfrwt beam="1">  1        1 0.31081315E-02 0.90855878E+02</pdfrwt>
<pdfrwt beam="2">  1       -1 0.15715202E-01 0.90855878E+02</pdfrwt>
<totfact> 0.81787472E+04</totfact>
</mgrwt>
</event>
<event>
 5    1  0.1265228E+001  0.9179923E+02  0.7546771E-02  0.1298552E+00
         -3   -1    0    0    0  501 -0.00000000000E+00  0.00000000000E+00  0.75351588347E+02  0.75351588347E+02  0.00000000000E+00 0.  1.
          3   -1    0    0  501    0  0.00000000000E+00 -0.00000000000E+00 -0.27959262219E+02  0.27959262219E+02  0.00000000000E+00 0. -1.
         23    2    1    2    0    0  0.00000000000E+00  0.00000000000E+00  0.47392326128E+02  0.10331085057E+03  0.91799233488E+02 0.  0.
        -13    1    3    3    0    0 -0.36491989418E+02 -0.59718143919E+01  0.54298908921E+02  0.65693982745E+02  0.00000000000E+00 0. -1.
         13    1    3    3    0    0  0.36491989418E+02  0.59718143919E+01 -0.69065827930E+01  0.37616867822E+02  0.00000000000E+00 0.  1.
<mgrwt>
<rscale>  0 0.91799233E+02</rscale>
<asrwt>0</asrwt>
<pdfrwt beam="2">  1        3 0.43014250E-02 0.91799233E+02</pdfrwt>
<pdfrwt beam="1">  1       -3 0.11592552E-01 0.91799233E+02</pdfrwt>
<totfact> 0.33796212E+04</totfact>
</mgrwt>
</event>
<event>
 5    1  0.1265228E+001  0.9152025E+02  0.7546771E-02  0.1299211E+00
          4   -1    0    0  501    0  0.00000000000E+00  0.00000000000E+00  0.17664006659E+02  0.17664006659E+02  0.00000000000E+00 0. -1.
         -4   -1    0    0    0  501 -0.00000000000E+00 -0.00000000000E+00 -0.11854554302E+03  0.11854554302E+03  0.00000000000E+00 0.  1.
         23    2    1    2    0    0  0.00000000000E+00  0.00000000000E+00 -0.10088153636E+03  0.13620954967E+03  0.91520254834E+02 0.  0.
        -11    1    3    3    0    0 -0.67606619340E+01  0.45227216589E+02 -0.52922969354E+02  0.69943179478E+02  0.00000000000E+00 0.  1.
         11    1    3    3    0    0  0.67606619340E+01 -0.45227216589E+02 -0.47958567002E+02  0.66266370197E+02  0.00000000000E+00 0. -1.
<mgrwt>
<rscale>  0 0.91520255E+02</rscale>
<asrwt>0</asrwt>
<pdfrwt beam="1">  1        4 0.27175396E-02 0.91520255E+02</pdfrwt>
<pdfrwt beam="2">  1       -4 0.18237775E-01 0.91520255E+02</pdfrwt>
<totfact> 0.24138238E+04</totfact>
</mgrwt>
</event>
<event>
 5    1  0.1265228E+001  0.9140437E+02  0.7546771E-02  0.1299486E+00
          2   -1    0    0  501    0  0.00000000000E+00  0.00000000000E+00  0.21686349164E+03  0.21686349164E+03  0.00000000000E+00 0. -1.
         -2   -1    0    0    0  501 -0.00000000000E+00 -0.00000000000E+00 -0.96313561353E+01  0.96313561353E+01  0.00000000000E+00 0.  1.
         23    2    1    2    0    0  0.00000000000E+00  0.00000000000E+00  0.20723213550E+03  0.22649484777E+03  0.91404365775E+02 0.  0.
        -13    1    3    3    0    0  0.16371405810E+02 -0.29075919882E+02  0.18100004225E+03  0.18405012182E+03  0.00000000000E+00 0. -1.
         13    1    3    3    0    0 -0.16371405810E+02  0.29075919882E+02  0.26232093246E+02  0.42444725953E+02  0.00000000000E+00 0.  1.
<mgrwt>
<rscale>  0 0.91404366E+02</rscale>
<asrwt>0</asrwt>
<pdfrwt beam="1">  1        2 0.33363611E-01 0.91404366E+02</pdfrwt>
<pdfrwt beam="2">  1       -2 0.14817473E-02 0.91404366E+02</pdfrwt>
<totfact> 0.15823683E+05</totfact>
</mgrwt>
</event>
<event>
 4    1  0.1265228E+001  0.4206728E+02  0.7546771E-02  0.1493527E+00
          1   -1    0    0  501    0  0.00000000000E+00  0.00000000000E+00  0.31159917240E+02  0.31159917240E+02  0.00000000000E+00 0.  1.
         -1   -1    0    0    0  501 -0.00000000000E+00 -0.00000000000E+00 -0.14198173373E+02  0.14198173373E+02  0.00000000000E+00 0. -1.
        -13    1    1    2    0    0 -0.18345424803E+02 -0.23322191227E+00  0.19571682341E+02  0.26826474858E+02  0.00000000000E+00 0.  1.
         13    1    1    2    0    0  0.18345424803E+02  0.23322191227E+00 -0.26099384744E+01  0.18531615755E+02  0.00000000000E+00 0. -1.
<mgrwt>
<rscale>  0 0.42067275E+02</rscale>
<asrwt>0</asrwt>
<pdfrwt beam="1">  1        1 0.47938334E-02 0.42067275E+02</pdfrwt>
<pdfrwt beam="2">  1       -1 0.21843344E-02 0.42067275E+02</pdfrwt>
<totfact> 0.69303284E+05</totfact>
</mgrwt>
</event>
<event>
 5    1  0.1265228E+001  0.9141516E+02  0.7546771E-02  0.1299460E+00
          1   -1    0    0  501    0  0.00000000000E+00  0.00000000000E+00  0.63758270171E+02  0.63758270171E+02  0.00000000000E+00 0. -1.
         -1   -1    0    0    0  501 -0.00000000000E+00 -0.00000000000E+00 -0.32767247101E+02  0.32767247101E+02  0.00000000000E+00 0.  1.
         23    2    1    2    0    0  0.00000000000E+00  0.00000000000E+00  0.30991023071E+02  0.96525517272E+02  0.91415162712E+02 0.  0.
        -13    1    3    3    0    0 -0.93658599265E+01  0.10053966279E+02 -0.30534839749E+02  0.33483996306E+02  0.00000000000E+00 0.  1.
         13    1    3    3    0    0  0.93658599265E+01 -0.10053966279E+02  0.61525862820E+02  0.63041520967E+02  0.00000000000E+00 0. -1.
<mgrwt>
<rscale>  0 0.91415163E+02</rscale>
<asrwt>0</asrwt>
<pdfrwt beam="1">  1        1 0.98089646E-02 0.91415163E+02</pdfrwt>
<pdfrwt beam="2">  1       -1 0.50411150E-02 0.91415163E+02</pdfrwt>
<totfact> 0.96563377E+04</totfact>
</mgrwt>
</event>
<event>
 5    1  0.1265228E+001  0.9078759E+02  0.7546771E-02  0.1300956E+00
          1   -1    0    0  501    0  0.00000000000E+00  0.00000000000E+00  0.23277897126E+03  0.23277897126E+03  0.00000000000E+00 0. -1.
         -1   -1    0    0    0  501 -0.00000000000E+00 -0.00000000000E+00 -0.88521602986E+01  0.88521602986E+01  0.00000000000E+00 0.  1.
         23    2    1    2    0    0  0.00000000000E+00  0.00000000000E+00  0.22392681096E+03  0.24163113156E+03  0.90787593155E+02 0.  0.
        -11    1    3    3    0    0 -0.11947819119E+02  0.30215852386E+02  0.27595607952E+02  0.42629399425E+02  0.00000000000E+00 0.  1.
         11    1    3    3    0    0  0.11947819119E+02 -0.30215852386E+02  0.19633120301E+03  0.19900173213E+03  0.00000000000E+00 0. -1.
<mgrwt>
<rscale>  0 0.90787593E+02</rscale>
<asrwt>0</asrwt>
<pdfrwt beam="1">  1        1 0.35812145E-01 0.90787593E+02</pdfrwt>
<pdfrwt beam="2">  1       -1 0.13618710E-02 0.90787593E+02</pdfrwt>
<totfact> 0.12336352E+05</totfact>
</mgrwt>
</event>
<event>
 5    1  0.1265228E+001  0.9367337E+02  0.7546771E-02  0.1294192E+00
         -1   -1    0    0    0  501 -0.00000000000E+00  0.00000000000E+00  0.13120635812E+03  0.13120635812E+03  0.00000000000E+00 0.  1.
          1   -1    0    0  501    0  0.00000000000E+00 -0.00000000000E+00 -0.16719275295E+02  0.16719275295E+02  0.00000000000E+00 0. -1.
         23    2    1    2    0    0  0.00000000000E+00  0.00000000000E+00  0.11448708283E+03  0.14792563342E+03  0.93673373420E+02 0.  0.
        -11    1    3    3    0    0  0.24263304780E+02  0.40053156212E+02  0.58575986039E+02  0.74994062577E+02  0.00000000000E+00 0. -1.
         11    1    3    3    0    0 -0.24263304780E+02 -0.40053156212E+02  0.55911096790E+02  0.72931570843E+02  0.00000000000E+00 0.  1.
<mgrwt>
<rscale>  0 0.93673373E+02</rscale>
<asrwt>0</asrwt>
<pdfrwt beam="2">  1        1 0.25721963E-02 0.93673373E+02</pdfrwt>
<pdfrwt beam="1">  1       -1 0.20185593E-01 0.93673373E+02</pdfrwt>
<totfact> 0.71857013E+04</totfact>
</mgrwt>
</event>
<event>
 5    1  0.1265228E+001  0.9248504E+02  0.7546771E-02  0.1296943E+00
         -2   -1    0    0    0  501 -0.00000000000E+00  0.00000000000E+00  0.61236354215E+01  0.61236354215E+01  0.00000000000E+00 0.  1.
          2   -1    0    0  501    0  0.00000000000E+00 -0.00000000000E+00 -0.34919954867E+03  0.34919954867E+03  0.00000000000E+00 0. -1.
         23    2    1    2    0    0  0.00000000000E+00  0.00000000000E+00 -0.34307591325E+03  0.35532318409E+03  0.92485041503E+02 0.  0.
        -13    1    3    3    0    0 -0.20640126957E+02  0.41296200995E+02 -0.16138787737E+03  0.16786136548E+03  0.00000000000E+00 0. -1.
         13    1    3    3    0    0  0.20640126957E+02 -0.41296200995E+02 -0.18168803588E+03  0.18746181862E+03  0.00000000000E+00 0.  1.
<mgrwt>
<rscale>  0 0.92485042E+02</rscale>
<asrwt>0</asrwt>
<pdfrwt beam="2">  1        2 0.53723012E-01 0.92485042E+02</pdfrwt>
<pdfrwt beam="1">  1       -2 0.94209767E-03 0.92485042E+02</pdfrwt>
<totfact> 0.18295986E+05</totfact>
</mgrwt>
</event>
<event>
 5    1  0.1265228E+001  0.9134882E+02  0.7546771E-02  0.1299618E+00
         -2   -1    0    0    0  501 -0.00000000000E+00  0.00000000000E+00  0.90237130204E+02  0.90237130204E+02  0.00000000000E+00 0.  1.
          2   -1    0    0  501    0  0.00000000000E+00 -0.00000000000E+00 -0.23118551030E+02  0.23118551030E+02  0.00000000000E+00 0. -1.
         23    2    1    2    0    0  0.00000000000E+00  0.00000000000E+00  0.67118579174E+02  0.11335568123E+03  0.91348819356E+02 0.  0.
        -11    1    3    3    0    0 -0.28341858911E+02  0.13384812352E+02  0.74785485032E+02  0.81088118363E+02  0.00000000000E+00 0.  1.
         11    1    3    3    0    0  0.28341858911E+02 -0.13384812352E+02 -0.76669058581E+01  0.32267562871E+02  0.00000000000E+00 0. -1.
<mgrwt>
<rscale>  0 0.91348819E+02</rscale>
<asrwt>0</asrwt>
<pdfrwt beam="2">  1        2 0.35567002E-02 0.91348819E+02</pdfrwt>
<pdfrwt beam="1">  1       -2 0.13882635E-01 0.91348819E+02</pdfrwt>
<totfact> 0.81859238E+04</totfact>
</mgrwt>
</event>
<event>
 5    1  0.1265228E+001  0.9136457E+02  0.7546771E-02  0.1299580E+00
          1   -1    0    0  501    0  0.00000000000E+00  0.00000000000E+00  0.11421018374E+02  0.11421018374E+02  0.00000000000E+00 0. -1.
         -1   -1    0    0    0  501 -0.00000000000E+00 -0.00000000000E+00 -0.18272197469E+03  0.18272197469E+03  0.00000000000E+00 0.  1.
         23    2    1    2    0    0  0.00000000000E+00  0.00000000000E+00 -0.17130095631E+03  0.19414299306E+03  0.91364567098E+02 0.  0.
        -13    1    3    3    0    0 -0.51326714934E+01  0.39465583738E+02 -0.13330734656E+03  0.13912126101E+03  0.00000000000E+00 0.  1.
         13    1    3    3    0    0  0.51326714934E+01 -0.39465583738E+02 -0.37993609750E+02  0.55021732055E+02  0.00000000000E+00 0. -1.
<mgrwt>
<rscale>  0 0.91364567E+02</rscale>
<asrwt>0</asrwt>
<pdfrwt beam="1">  1        1 0.17570797E-02 0.91364567E+02</pdfrwt>
<pdfrwt beam="2">  1       -1 0.28111074E-01 0.91364567E+02</pdfrwt>
<totfact> 0.70803401E+04</totfact>
</mgrwt>
</event>
<event>
 5    1  0.1265228E+001  0.9108820E+02  0.7546771E-02  0.1300238E+00
         -2   -1    0    0    0  501 -0.00000000000E+00  0.00000000000E+00  0.11379916003E+02  0.11379916003E+02  0.00000000000E+00 0.  1.
          2   -1    0    0  501    0  0.00000000000E+00 -0.00000000000E+00 -0.18227419416E+03  0.18227419416E+03  0.00000000000E+00 0. -1.
         23    2    1    2    0    0  0.00000000000E+00  0.00000000000E+00 -0.17089427815E+03  0.19365411016E+03  0.91088199435E+02 0.  0.
        -11    1    3    3    0    0  0.35397599283E+02 -0.28635919812E+02 -0.83061573467E+02  0.94721860863E+02  0.00000000000E+00 0. -1.
         11    1    3    3    0    0 -0.35397599283E+02  0.28635919812E+02 -0.87832704687E+02  0.98932249298E+02  0.00000000000E+00 0.  1.
<mgrwt>
<rscale>  0 0.91088199E+02</rscale>
<asrwt>0</asrwt>
<pdfrwt beam="2">  1        2 0.28042182E-01 0.91088199E+02</pdfrwt>
<pdfrwt beam="1">  1       -2 0.17507564E-02 0.91088199E+02</pdfrwt>
<totfact> 0.15000639E+05</totfact>
</mgrwt>
</event>
<event>
 5    1  0.1265228E+001  0.9015267E+02  0.7546771E-02  0.1302482E+00
          1   -1    0    0  501    0  0.00000000000E+00  0.00000000000E+00  0.81189778092E+02  0.81189778092E+02  0.00000000000E+00 0.  1.
         -1   -1    0    0    0  501 -0.00000000000E+00 -0.00000000000E+00 -0.25026254433E+02  0.25026254433E+02  0.00000000000E+00 0. -1.
         23    2    1    2    0    0  0.00000000000E+00  0.00000000000E+00  0.56163523659E+02  0.10621603253E+03  0.90152671484E+02 0.  0.
        -13    1    3    3    0    0  0.24334861270E+02  0.29591136268E+02  0.56063345332E+02  0.67903751800E+02  0.00000000000E+00 0.  1.
         13    1    3    3    0    0 -0.24334861270E+02 -0.29591136268E+02  0.10017832669E+00  0.38312280725E+02  0.00000000000E+00 0. -1.
<mgrwt>
<rscale>  0 0.90152671E+02</rscale>
<asrwt>0</asrwt>
<pdfrwt beam="1">  1        1 0.12490735E-01 0.90152671E+02</pdfrwt>
<pdfrwt beam="2">  1       -1 0.38501930E-02 0.90152671E+02</pdfrwt>
<totfact> 0.10415320E+05</totfact>
</mgrwt>
</event>
<event>
 5    1  0.1265228E+001  0.8975843E+02  0.7546771E-02  0.1303438E+00
          2   -1    0    0  501    0  0.00000000000E+00  0.00000000000E+00  0.90398712617E+01  0.90398712617E+01  0.00000000000E+00 0.  1.
         -2   -1    0    0    0  501 -0.00000000000E+00 -0.00000000000E+00 -0.22280671357E+03  0.22280671357E+03  0.00000000000E+00 0. -1.
         23    2    1    2    0    0  0.00000000000E+00  0.00000000000E+00 -0.21376684231E+03  0.23184658483E+03  0.89758431514E+02 0.  0.
        -13    1    3    3    0    0 -0.42691093129E+02  0.46734609274E+01 -0.14053924230E+03  0.14695458243E+03  0.00000000000E+00 0.  1.
         13    1    3    3    0    0  0.42691093129E+02 -0.46734609274E+01 -0.73227600007E+02  0.84892002405E+02  0.00000000000E+00 0. -1.
<mgrwt>
<rscale>  0 0.89758432E+02</rscale>
<asrwt>0</asrwt>
<pdfrwt beam="1">  1        2 0.13907495E-02 0.89758432E+02</pdfrwt>
<pdfrwt beam="2">  1       -2 0.34277953E-01 0.89758432E+02</pdfrwt>
<totfact> 0.61806104E+04</totfact>
</mgrwt>
</event>
<event>
 5    1  0.1265228E+001  0.8872921E+02  0.7546771E-02  0.1305959E+00
          4   -1    0    0  501    0  0.00000000000E+00  0.00000000000E+00  0.16527672545E+02  0.16527672545E+02  0.00000000000E+00 0.  1.
         -4   -1    0    0    0  501 -0.00000000000E+00 -0.00000000000E+00 -0.11908623133E+03  0.11908623133E+03  0.00000000000E+00 0. -1.
         23    2    1    2    0    0  0.00000000000E+00  0.00000000000E+00 -0.10255855878E+03  0.13561390387E+03  0.88729211336E+02 0.  0.
        -11    1    3    3    0    0  0.39510095215E+02 -0.60213247001E-01 -0.82119954453E+02  0.91130336161E+02  0.00000000000E+00 0.  1.
         11    1    3    3    0    0 -0.39510095215E+02  0.60213247001E-01 -0.20438604332E+02  0.44483567714E+02  0.00000000000E+00 0. -1.
<mgrwt>
<rscale>  0 0.88729211E+02</rscale>
<asrwt>0</asrwt>
<pdfrwt beam="1">  1        4 0.25427189E-02 0.88729211E+02</pdfrwt>
<pdfrwt beam="2">  1       -4 0.18320958E-01 0.88729211E+02</pdfrwt>
<totfact> 0.26267502E+04</totfact>
</mgrwt>
</event>
<event>
 5    1  0.1265228E+001  0.9034708E+02  0.7546771E-02  0.1302013E+00
          3   -1    0    0  501    0  0.00000000000E+00  0.00000000000E+00  0.86072638171E+02  0.86072638171E+02  0.00000000000E+00 0.  1.
         -3   -1    0    0    0  501 -0.00000000000E+00 -0.00000000000E+00 -0.23708446776E+02  0.23708446776E+02  0.00000000000E+00 0. -1.
         23    2    1    2    0    0  0.00000000000E+00  0.00000000000E+00  0.62364191395E+02  0.10978108495E+03  0.90347076564E+02 0.  0.
        -11    1    3    3    0    0  0.18083665008E+01  0.17895466578E+02 -0.19169713983E+02  0.26286799874E+02  0.00000000000E+00 0. -1.
         11    1    3    3    0    0 -0.18083665008E+01 -0.17895466578E+02  0.81533905378E+02  0.83494285072E+02  0.00000000000E+00 0.  1.
<mgrwt>
<rscale>  0 0.90347077E+02</rscale>
<asrwt>0</asrwt>
<pdfrwt beam="1">  1        3 0.13241944E-01 0.90347077E+02</pdfrwt>
<pdfrwt beam="2">  1       -3 0.36474534E-02 0.90347077E+02</pdfrwt>
<totfact> 0.34813419E+04</totfact>
</mgrwt>
</event>
<event>
 5    1  0.1265228E+001  0.9129842E+02  0.7546771E-02  0.1299737E+00
          1   -1    0    0  501    0  0.00000000000E+00  0.00000000000E+00  0.61013738832E+02  0.61013738832E+02  0.00000000000E+00 0. -1.
         -1   -1    0    0    0  501 -0.00000000000E+00 -0.00000000000E+00 -0.34153791777E+02  0.34153791777E+02  0.00000000000E+00 0.  1.
         23    2    1    2    0    0  0.00000000000E+00  0.00000000000E+00  0.26859947054E+02  0.95167530609E+02  0.91298423461E+02 0.  0.
        -11    1    3    3    0    0  0.28529685243E+02  0.29395884529E+02  0.34427878177E+02  0.53510183733E+02  0.00000000000E+00 0. -1.
         11    1    3    3    0    0 -0.28529685243E+02 -0.29395884529E+02 -0.75679311231E+01  0.41657346877E+02  0.00000000000E+00 0.  1.
<mgrwt>
<rscale>  0 0.91298423E+02</rscale>
<asrwt>0</asrwt>
<pdfrwt beam="1">  1        1 0.93867291E-02 0.91298423E+02</pdfrwt>
<pdfrwt beam="2">  1       -1 0.52544295E-02 0.91298423E+02</pdfrwt>
<totfact> 0.96259510E+04</totfact>
</mgrwt>
</event>
<event>
 5    1  0.1265228E+001  0.9067997E+02  0.7546771E-02  0.1301213E+00
          3   -1    0    0  501    0  0.00000000000E+00  0.00000000000E+00  0.86492276923E+01  0.86492276923E+01  0.00000000000E+00 0. -1.
         -3   -1    0    0    0  501 -0.00000000000E+00 -0.00000000000E+00 -0.23767607004E+03  0.23767607004E+03  0.00000000000E+00 0.  1.
         23    2    1    2    0    0  0.00000000000E+00  0.00000000000E+00 -0.22902684235E+03  0.24632529773E+03  0.90679974565E+02 0.  0.
        -13    1    3    3    0    0  0.34481019832E+02 -0.17540283719E+02 -0.17874477821E+03  0.18288329071E+03  0.00000000000E+00 0.  1.
         13    1    3    3    0    0 -0.34481019832E+02  0.17540283719E+02 -0.50282064132E+02  0.63442007022E+02  0.00000000000E+00 0. -1.
<mgrwt>
<rscale>  0 0.90679975E+02</rscale>
<asrwt>0</asrwt>
<pdfrwt beam="1">  1        3 0.13306503E-02 0.90679975E+02</pdfrwt>
<pdfrwt beam="2">  1       -3 0.36565552E-01 0.90679975E+02</pdfrwt>
<totfact> 0.26652390E+04</totfact>
</mgrwt>
</event>
<event>
 5    1  0.1265228E+001  0.9162710E+02  0.7546771E-02  0.1298959E+00
          1   -1    0    0  501    0  0.00000000000E+00  0.00000000000E+00  0.70254639054E+02  0.70254639054E+02  0.00000000000E+00 0. -1.
         -1   -1    0    0    0  501 -0.00000000000E+00 -0.00000000000E+00 -0.29875338923E+02  0.29875338923E+02  0.00000000000E+00 0.  1.
         23    2    1    2    0    0  0.00000000000E+00  0.00000000000E+00  0.40379300131E+02  0.10012997798E+03  0.91627095395E+02 0.  0.
        -13    1    3    3    0    0  0.29113837649E+01  0.37566457458E+02 -0.82895807906E+01  0.38580202579E+02  0.00000000000E+00 0.  1.
         13    1    3    3    0    0 -0.29113837649E+01 -0.37566457458E+02  0.48668880922E+02  0.61549775398E+02  0.00000000000E+00 0. -1.
<mgrwt>
<rscale>  0 0.91627095E+02</rscale>
<asrwt>0</asrwt>
<pdfrwt beam="1">  1        1 0.10808406E-01 0.91627095E+02</pdfrwt>
<pdfrwt beam="2">  1       -1 0.45962060E-02 0.91627095E+02</pdfrwt>
<totfact> 0.97388550E+04</totfact>
</mgrwt>
</event>
<event>
 5    1  0.1265228E+001  0.8715408E+02  0.7546771E-02  0.1309894E+00
          2   -1    0    0  501    0  0.00000000000E+00  0.00000000000E+00  0.60095321060E+01  0.60095321060E+01  0.00000000000E+00 0. -1.
         -2   -1    0    0    0  501 -0.00000000000E+00 -0.00000000000E+00 -0.31599108155E+03  0.31599108155E+03  0.00000000000E+00 0.  1.
         23    2    1    2    0    0  0.00000000000E+00  0.00000000000E+00 -0.30998154944E+03  0.32200061365E+03  0.87154083089E+02 0.  0.
        -11    1    3    3    0    0  0.41171423593E+02 -0.11879948873E+02 -0.12572644366E+03  0.13282830248E+03  0.00000000000E+00 0. -1.
         11    1    3    3    0    0 -0.41171423593E+02  0.11879948873E+02 -0.18425510578E+03  0.18917231117E+03  0.00000000000E+00 0.  1.
<mgrwt>
<rscale>  0 0.87154083E+02</rscale>
<asrwt>0</asrwt>
<pdfrwt beam="1">  1        2 0.92454305E-03 0.87154083E+02</pdfrwt>
<pdfrwt beam="2">  1       -2 0.48614031E-01 0.87154083E+02</pdfrwt>
<totfact> 0.55602968E+04</totfact>
</mgrwt>
</event>
<event>
 5    1  0.1265228E+001  0.9067994E+02  0.7546771E-02  0.1301213E+00
         -1   -1    0    0    0  501 -0.00000000000E+00  0.00000000000E+00  0.18908275049E+03  0.18908275049E+03  0.00000000000E+00 0.  1.
          1   -1    0    0  501    0  0.00000000000E+00 -0.00000000000E+00 -0.10872026847E+02  0.10872026847E+02  0.00000000000E+00 0. -1.
         23    2    1    2    0    0  0.00000000000E+00  0.00000000000E+00  0.17821072365E+03  0.19995477734E+03  0.90679936912E+02 0.  0.
        -11    1    3    3    0    0  0.41473704266E+02 -0.38001391374E+01  0.12862479753E+03  0.13519928899E+03  0.00000000000E+00 0.  1.
         11    1    3    3    0    0 -0.41473704266E+02  0.38001391374E+01  0.49585926118E+02  0.64755488354E+02  0.00000000000E+00 0. -1.
<mgrwt>
<rscale>  0 0.90679937E+02</rscale>
<asrwt>0</asrwt>
<pdfrwt beam="2">  1        1 0.16726197E-02 0.90679937E+02</pdfrwt>
<pdfrwt beam="1">  1       -1 0.29089652E-01 0.90679937E+02</pdfrwt>
<totfact> 0.71535826E+04</totfact>
</mgrwt>
</event>
<event>
 4    1  0.1265228E+001  0.1539694E+03  0.7546771E-02  0.1195679E+00
         -1   -1    0    0    0  501 -0.00000000000E+00  0.00000000000E+00  0.21563148475E+02  0.21563148475E+02  0.00000000000E+00 0.  1.
          1   -1    0    0  501    0  0.00000000000E+00 -0.00000000000E+00 -0.27485060198E+03  0.27485060198E+03  0.00000000000E+00 0. -1.
        -11    1    1    2    0    0 -0.70618786677E+01 -0.67878196125E+02 -0.19523206538E+03  0.20681605110E+03  0.00000000000E+00 0.  1.
         11    1    1    2    0    0  0.70618786677E+01  0.67878196125E+02 -0.58055388127E+02  0.89597699357E+02  0.00000000000E+00 0. -1.
<mgrwt>
<rscale>  0 0.15396940E+03</rscale>
<asrwt>0</asrwt>
<pdfrwt beam="2">  1        1 0.42284706E-01 0.15396940E+03</pdfrwt>
<pdfrwt beam="1">  1       -1 0.33174076E-02 0.15396940E+03</pdfrwt>
<totfact> 0.29879871E+04</totfact>
</mgrwt>
</event>
<event>
 5    1  0.1265228E+001  0.8616607E+02  0.7546771E-02  0.1312411E+00
         -2   -1    0    0    0  501 -0.00000000000E+00  0.00000000000E+00  0.12128492983E+03  0.12128492983E+03  0.00000000000E+00 0.  1.
          2   -1    0    0  501    0  0.00000000000E+00 -0.00000000000E+00 -0.15304028506E+02  0.15304028506E+02  0.00000000000E+00 0. -1.
         23    2    1    2    0    0  0.00000000000E+00  0.00000000000E+00  0.10598090133E+03  0.13658895834E+03  0.86166072754E+02 0.  0.
        -13    1    3    3    0    0 -0.29596897631E+02 -0.18107376324E+02  0.93476106999E+02  0.99707752990E+02  0.00000000000E+00 0.  1.
         13    1    3    3    0    0  0.29596897631E+02  0.18107376324E+02  0.12504794329E+02  0.36881205348E+02  0.00000000000E+00 0. -1.
<mgrwt>
<rscale>  0 0.86166073E+02</rscale>
<asrwt>0</asrwt>
<pdfrwt beam="2">  1        2 0.23544660E-02 0.86166073E+02</pdfrwt>
<pdfrwt beam="1">  1       -2 0.18659219E-01 0.86166073E+02</pdfrwt>
<totfact> 0.86607332E+04</totfact>
</mgrwt>
</event>
<event>
 5    1  0.1265228E+001  0.8913748E+02  0.7546771E-02  0.1304954E+00
         -1   -1    0    0    0  501 -0.00000000000E+00  0.00000000000E+00  0.39192336584E+02  0.39192336584E+02  0.00000000000E+00 0.  1.
          1   -1    0    0  501    0  0.00000000000E+00 -0.00000000000E+00 -0.50682678250E+02  0.50682678250E+02  0.00000000000E+00 0. -1.
         23    2    1    2    0    0  0.00000000000E+00  0.00000000000E+00 -0.11490341666E+02  0.89875014835E+02  0.89137479995E+02 0.  0.
        -11    1    3    3    0    0 -0.39113761557E+02 -0.11526623857E+01  0.15765776048E+02  0.42187375696E+02  0.00000000000E+00 0.  1.
         11    1    3    3    0    0  0.39113761557E+02  0.11526623857E+01 -0.27256117714E+02  0.47687639138E+02  0.00000000000E+00 0. -1.
<mgrwt>
<rscale>  0 0.89137480E+02</rscale>
<asrwt>0</asrwt>
<pdfrwt beam="2">  1        1 0.77973351E-02 0.89137480E+02</pdfrwt>
<pdfrwt beam="1">  1       -1 0.60295903E-02 0.89137480E+02</pdfrwt>
<totfact> 0.10006691E+05</totfact>
</mgrwt>
</event>
<event>
 5    1  0.1265228E+001  0.9006255E+02  0.7546771E-02  0.1302700E+00
         -2   -1    0    0    0  501 -0.00000000000E+00  0.00000000000E+00  0.80722940993E+01  0.80722940993E+01  0.00000000000E+00 0.  1.
          2   -1    0    0  501    0  0.00000000000E+00 -0.00000000000E+00 -0.25120686835E+03  0.25120686835E+03  0.00000000000E+00 0. -1.
         23    2    1    2    0    0  0.00000000000E+00  0.00000000000E+00 -0.24313457425E+03  0.25927916245E+03  0.90062549843E+02 0.  0.
        -11    1    3    3    0    0 -0.40984624352E+02  0.56465633302E+01 -0.70375624548E+02  0.81635480284E+02  0.00000000000E+00 0.  1.
         11    1    3    3    0    0  0.40984624352E+02 -0.56465633302E+01 -0.17275894970E+03  0.17764368216E+03  0.00000000000E+00 0. -1.
<mgrwt>
<rscale>  0 0.90062550E+02</rscale>
<asrwt>0</asrwt>
<pdfrwt beam="2">  1        2 0.38647210E-01 0.90062550E+02</pdfrwt>
<pdfrwt beam="1">  1       -2 0.12418914E-02 0.90062550E+02</pdfrwt>
<totfact> 0.17378200E+05</totfact>
</mgrwt>
</event>
<event>
 5    1  0.1265228E+001  0.9205745E+02  0.7546771E-02  0.1297944E+00
          2   -1    0    0  501    0  0.00000000000E+00  0.00000000000E+00  0.43641504212E+01  0.43641504212E+01  0.00000000000E+00 0. -1.
         -2   -1    0    0    0  501 -0.00000000000E+00 -0.00000000000E+00 -0.48546531765E+03  0.48546531765E+03  0.00000000000E+00 0.  1.
         23    2    1    2    0    0  0.00000000000E+00  0.00000000000E+00 -0.48110116723E+03  0.48982946808E+03  0.92057453158E+02 0.  0.
        -13    1    3    3    0    0  0.24368230972E+01  0.45928784661E+02 -0.25014638984E+03  0.25433955201E+03  0.00000000000E+00 0.  1.
         13    1    3    3    0    0 -0.24368230972E+01 -0.45928784661E+02 -0.23095477739E+03  0.23548991606E+03  0.00000000000E+00 0. -1.
<mgrwt>
<rscale>  0 0.92057453E+02</rscale>
<asrwt>0</asrwt>
<pdfrwt beam="1">  1        2 0.67140799E-03 0.92057453E+02</pdfrwt>
<pdfrwt beam="2">  1       -2 0.74686946E-01 0.92057453E+02</pdfrwt>
<totfact> 0.36225869E+04</totfact>
</mgrwt>
</event>
<event>
 5    1  0.1265228E+001  0.9058562E+02  0.7546771E-02  0.1301440E+00
         -2   -1    0    0    0  501 -0.00000000000E+00  0.00000000000E+00  0.88569969927E+02  0.88569969927E+02  0.00000000000E+00 0. -1.
          2   -1    0    0  501    0  0.00000000000E+00 -0.00000000000E+00 -0.23161783349E+02  0.23161783349E+02  0.00000000000E+00 0.  1.
         23    2    1    2    0    0  0.00000000000E+00  0.00000000000E+00  0.65408186578E+02  0.11173175328E+03  0.90585615959E+02 0.  0.
        -13    1    3    3    0    0 -0.29084474724E+02  0.40912371860E+01 -0.98234792808E+01  0.30970076475E+02  0.00000000000E+00 0.  1.
         13    1    3    3    0    0  0.29084474724E+02 -0.40912371860E+01  0.75231665859E+02  0.80761676800E+02  0.00000000000E+00 0. -1.
<mgrwt>
<rscale>  0 0.90585616E+02</rscale>
<asrwt>0</asrwt>
<pdfrwt beam="2">  1        2 0.35633513E-02 0.90585616E+02</pdfrwt>
<pdfrwt beam="1">  1       -2 0.13626149E-01 0.90585616E+02</pdfrwt>
<totfact> 0.84022430E+04</totfact>
</mgrwt>
</event>
<event>
 5    1  0.1265228E+001  0.8243432E+02  0.7546771E-02  0.1322282E+00
         -2   -1    0    0    0  501 -0.00000000000E+00  0.00000000000E+00  0.60237840680E+02  0.60237840680E+02  0.00000000000E+00 0. -1.
          2   -1    0    0  501    0  0.00000000000E+00 -0.00000000000E+00 -0.28202444199E+02  0.28202444199E+02  0.00000000000E+00 0.  1.
         23    2    1    2    0    0  0.00000000000E+00  0.00000000000E+00  0.32035396481E+02  0.88440284879E+02  0.82434321504E+02 0.  0.
        -13    1    3    3    0    0 -0.51188950165E+01  0.22149155111E+02 -0.20868420628E+02  0.30859020365E+02  0.00000000000E+00 0.  1.
         13    1    3    3    0    0  0.51188950165E+01 -0.22149155111E+02  0.52903817110E+02  0.57581264515E+02  0.00000000000E+00 0. -1.
<mgrwt>
<rscale>  0 0.82434322E+02</rscale>
<asrwt>0</asrwt>
<pdfrwt beam="2">  1        2 0.43388376E-02 0.82434322E+02</pdfrwt>
<pdfrwt beam="1">  1       -2 0.92673601E-02 0.82434322E+02</pdfrwt>
<totfact> 0.11708903E+05</totfact>
</mgrwt>
</event>
<event>
 5    1  0.1265228E+001  0.9050470E+02  0.7546771E-02  0.1301634E+00
         -4   -1    0    0    0  501 -0.00000000000E+00  0.00000000000E+00  0.22347989473E+02  0.22347989473E+02  0.00000000000E+00 0.  1.
          4   -1    0    0  501    0  0.00000000000E+00 -0.00000000000E+00 -0.91631285499E+02  0.91631285499E+02  0.00000000000E+00 0. -1.
         23    2    1    2    0    0  0.00000000000E+00  0.00000000000E+00 -0.69283296025E+02  0.11397927497E+03  0.90504696093E+02 0.  0.
        -13    1    3    3    0    0  0.24992169347E+02 -0.31819363490E+02 -0.91196739750E+01  0.41475883053E+02  0.00000000000E+00 0.  1.
         13    1    3    3    0    0 -0.24992169347E+02  0.31819363490E+02 -0.60163622050E+02  0.72503391919E+02  0.00000000000E+00 0. -1.
<mgrwt>
<rscale>  0 0.90504696E+02</rscale>
<asrwt>0</asrwt>
<pdfrwt beam="2">  1        4 0.14097121E-01 0.90504696E+02</pdfrwt>
<pdfrwt beam="1">  1       -4 0.34381522E-02 0.90504696E+02</pdfrwt>
<totfact> 0.26135539E+04</totfact>
</mgrwt>
</event>
<event>
 5    1  0.1265228E+001  0.8824901E+02  0.7546771E-02  0.1307148E+00
         -4   -1    0    0    0  501 -0.00000000000E+00  0.00000000000E+00  0.74230630143E+01  0.74230630143E+01  0.00000000000E+00 0.  1.
          4   -1    0    0  501    0  0.00000000000E+00 -0.00000000000E+00 -0.26228685320E+03  0.26228685320E+03  0.00000000000E+00 0. -1.
         23    2    1    2    0    0  0.00000000000E+00  0.00000000000E+00 -0.25486379019E+03  0.26970991622E+03  0.88249007681E+02 0.  0.
        -13    1    3    3    0    0  0.59014771726E+01 -0.37570216595E+02 -0.19581401860E+03  0.19947300190E+03  0.00000000000E+00 0. -1.
         13    1    3    3    0    0 -0.59014771726E+01  0.37570216595E+02 -0.59049771591E+02  0.70236914316E+02  0.00000000000E+00 0.  1.
<mgrwt>
<rscale>  0 0.88249008E+02</rscale>
<asrwt>0</asrwt>
<pdfrwt beam="2">  1        4 0.40351827E-01 0.88249008E+02</pdfrwt>
<pdfrwt beam="1">  1       -4 0.11420096E-02 0.88249008E+02</pdfrwt>
<totfact> 0.20485284E+04</totfact>
</mgrwt>
</event>
<event>
 5    1  0.1265228E+001  0.9312428E+02  0.7546771E-02  0.1295457E+00
         -2   -1    0    0    0  501 -0.00000000000E+00  0.00000000000E+00  0.23407569850E+02  0.23407569850E+02  0.00000000000E+00 0.  1.
          2   -1    0    0  501    0  0.00000000000E+00 -0.00000000000E+00 -0.92621013130E+02  0.92621013130E+02  0.00000000000E+00 0. -1.
         23    2    1    2    0    0  0.00000000000E+00  0.00000000000E+00 -0.69213443280E+02  0.11602858298E+03  0.93124278992E+02 0.  0.
        -11    1    3    3    0    0  0.34768126824E+01 -0.23236866447E+02  0.15479901815E+02  0.28136587372E+02  0.00000000000E+00 0.  1.
         11    1    3    3    0    0 -0.34768126824E+01  0.23236866447E+02 -0.84693345095E+02  0.87891995609E+02  0.00000000000E+00 0. -1.
<mgrwt>
<rscale>  0 0.93124279E+02</rscale>
<asrwt>0</asrwt>
<pdfrwt beam="2">  1        2 0.14249387E-01 0.93124279E+02</pdfrwt>
<pdfrwt beam="1">  1       -2 0.36011646E-02 0.93124279E+02</pdfrwt>
<totfact> 0.11306316E+05</totfact>
</mgrwt>
</event>
<event>
 5    1  0.1265228E+001  0.9168820E+02  0.7546771E-02  0.1298814E+00
         -1   -1    0    0    0  501 -0.00000000000E+00  0.00000000000E+00  0.13812123972E+02  0.13812123972E+02  0.00000000000E+00 0.  1.
          1   -1    0    0  501    0  0.00000000000E+00 -0.00000000000E+00 -0.15216207280E+03  0.15216207280E+03  0.00000000000E+00 0. -1.
         23    2    1    2    0    0  0.00000000000E+00  0.00000000000E+00 -0.13834994883E+03  0.16597419677E+03  0.91688198003E+02 0.  0.
        -11    1    3    3    0    0 -0.29818319700E+02  0.36728963736E+01 -0.13185763542E+03  0.13523704513E+03  0.00000000000E+00 0. -1.
         11    1    3    3    0    0  0.29818319700E+02 -0.36728963736E+01 -0.64923134089E+01  0.30737151640E+02  0.00000000000E+00 0.  1.
<mgrwt>
<rscale>  0 0.91688198E+02</rscale>
<asrwt>0</asrwt>
<pdfrwt beam="2">  1        1 0.23409548E-01 0.91688198E+02</pdfrwt>
<pdfrwt beam="1">  1       -1 0.21249423E-02 0.91688198E+02</pdfrwt>
<totfact> 0.11074351E+05</totfact>
</mgrwt>
</event>
<event>
 5    1  0.1265228E+001  0.9408861E+02  0.7546771E-02  0.1293242E+00
          1   -1    0    0  501    0  0.00000000000E+00  0.00000000000E+00  0.20046281049E+03  0.20046281049E+03  0.00000000000E+00 0. -1.
         -1   -1    0    0    0  501 -0.00000000000E+00 -0.00000000000E+00 -0.11040285037E+02  0.11040285037E+02  0.00000000000E+00 0.  1.
         23    2    1    2    0    0  0.00000000000E+00  0.00000000000E+00  0.18942252545E+03  0.21150309553E+03  0.94088608602E+02 0.  0.
        -13    1    3    3    0    0  0.19218834414E+02  0.27296405981E+02  0.20200148003E+02  0.39019269023E+02  0.00000000000E+00 0.  1.
         13    1    3    3    0    0 -0.19218834414E+02 -0.27296405981E+02  0.16922237745E+03  0.17248382651E+03  0.00000000000E+00 0. -1.
<mgrwt>
<rscale>  0 0.94088609E+02</rscale>
<asrwt>0</asrwt>
<pdfrwt beam="1">  1        1 0.30840430E-01 0.94088609E+02</pdfrwt>
<pdfrwt beam="2">  1       -1 0.16985055E-02 0.94088609E+02</pdfrwt>
<totfact> 0.10885948E+05</totfact>
</mgrwt>
</event>
<event>
 5    1  0.1265228E+001  0.9024481E+02  0.7546771E-02  0.1302260E+00
          3   -1    0    0  501    0  0.00000000000E+00  0.00000000000E+00  0.34770191746E+02  0.34770191746E+02  0.00000000000E+00 0. -1.
         -3   -1    0    0    0  501 -0.00000000000E+00 -0.00000000000E+00 -0.58556801932E+02  0.58556801932E+02  0.00000000000E+00 0.  1.
         23    2    1    2    0    0  0.00000000000E+00  0.00000000000E+00 -0.23786610186E+02  0.93326993678E+02  0.90244805528E+02 0.  0.
        -11    1    3    3    0    0  0.25346889032E+02 -0.73567743521E+01 -0.49741693779E+02  0.56310061379E+02  0.00000000000E+00 0.  1.
         11    1    3    3    0    0 -0.25346889032E+02  0.73567743521E+01  0.25955083593E+02  0.37016932299E+02  0.00000000000E+00 0. -1.
<mgrwt>
<rscale>  0 0.90244806E+02</rscale>
<asrwt>0</asrwt>
<pdfrwt beam="1">  1        3 0.53492604E-02 0.90244806E+02</pdfrwt>
<pdfrwt beam="2">  1       -3 0.90087386E-02 0.90244806E+02</pdfrwt>
<totfact> 0.36171273E+04</totfact>
</mgrwt>
</event>
<event>
 5    1  0.1265228E+001  0.9148207E+02  0.7546771E-02  0.1299302E+00
          1   -1    0    0  501    0  0.00000000000E+00  0.00000000000E+00  0.19229003954E+02  0.19229003954E+02  0.00000000000E+00 0. -1.
         -1   -1    0    0    0  501 -0.00000000000E+00 -0.00000000000E+00 -0.10880659440E+03  0.10880659440E+03  0.00000000000E+00 0.  1.
         23    2    1    2    0    0  0.00000000000E+00  0.00000000000E+00 -0.89577590447E+02  0.12803559836E+03  0.91482073304E+02 0.  0.
        -11    1    3    3    0    0  0.37247306519E+02  0.19426747519E+00 -0.76317743507E+01  0.38021619672E+02  0.00000000000E+00 0. -1.
         11    1    3    3    0    0 -0.37247306519E+02 -0.19426747519E+00 -0.81945816096E+02  0.90013978683E+02  0.00000000000E+00 0.  1.
<mgrwt>
<rscale>  0 0.91482073E+02</rscale>
<asrwt>0</asrwt>
<pdfrwt beam="1">  1        1 0.29583083E-02 0.91482073E+02</pdfrwt>
<pdfrwt beam="2">  1       -1 0.16739476E-01 0.91482073E+02</pdfrwt>
<totfact> 0.79388791E+04</totfact>
</mgrwt>
</event>
<event>
 5    1  0.1265228E+001  0.9185419E+02  0.7546771E-02  0.1298423E+00
         -4   -1    0    0    0  501 -0.00000000000E+00  0.00000000000E+00  0.10658912956E+03  0.10658912956E+03  0.00000000000E+00 0.  1.
          4   -1    0    0  501    0  0.00000000000E+00 -0.00000000000E+00 -0.19789053942E+02  0.19789053942E+02  0.00000000000E+00 0. -1.
         23    2    1    2    0    0  0.00000000000E+00  0.00000000000E+00  0.86800075622E+02  0.12637818350E+03  0.91854189551E+02 0.  0.
        -13    1    3    3    0    0  0.36569734136E+02 -0.24127766200E+02  0.62355100372E+02  0.76207959552E+02  0.00000000000E+00 0.  1.
         13    1    3    3    0    0 -0.36569734136E+02  0.24127766200E+02  0.24444975249E+02  0.50170223953E+02  0.00000000000E+00 0. -1.
<mgrwt>
<rscale>  0 0.91854190E+02</rscale>
<asrwt>0</asrwt>
<pdfrwt beam="2">  1        4 0.30444699E-02 0.91854190E+02</pdfrwt>
<pdfrwt beam="1">  1       -4 0.16398327E-01 0.91854190E+02</pdfrwt>
<totfact> 0.24422025E+04</totfact>
</mgrwt>
</event>
<event>
 5    1  0.1265228E+001  0.9197721E+02  0.7546771E-02  0.1298133E+00
         -1   -1    0    0    0  501 -0.00000000000E+00  0.00000000000E+00  0.60827464932E+02  0.60827464932E+02  0.00000000000E+00 0.  1.
          1   -1    0    0  501    0  0.00000000000E+00 -0.00000000000E+00 -0.34769681684E+02  0.34769681684E+02  0.00000000000E+00 0. -1.
         23    2    1    2    0    0  0.00000000000E+00  0.00000000000E+00  0.26057783248E+02  0.95597146615E+02  0.91977205726E+02 0.  0.
        -13    1    3    3    0    0 -0.13707870081E+02 -0.43874614427E+02  0.14522133248E+02  0.48205599751E+02  0.00000000000E+00 0.  1.
         13    1    3    3    0    0  0.13707870081E+02  0.43874614427E+02  0.11535649999E+02  0.47391546864E+02  0.00000000000E+00 0. -1.
<mgrwt>
<rscale>  0 0.91977206E+02</rscale>
<asrwt>0</asrwt>
<pdfrwt beam="2">  1        1 0.53491818E-02 0.91977206E+02</pdfrwt>
<pdfrwt beam="1">  1       -1 0.93580715E-02 0.91977206E+02</pdfrwt>
<totfact> 0.86548896E+04</totfact>
</mgrwt>
</event>
<event>
 5    1  0.1265228E+001  0.9083605E+02  0.7546771E-02  0.1300840E+00
         -1   -1    0    0    0  501 -0.00000000000E+00  0.00000000000E+00  0.84531553709E+02  0.84531553709E+02  0.00000000000E+00 0.  1.
          1   -1    0    0  501    0  0.00000000000E+00 -0.00000000000E+00 -0.24402684218E+02  0.24402684218E+02  0.00000000000E+00 0. -1.
         23    2    1    2    0    0  0.00000000000E+00  0.00000000000E+00  0.60128869492E+02  0.10893423793E+03  0.90836045964E+02 0.  0.
        -13    1    3    3    0    0 -0.19993075569E+02 -0.16142178043E+02  0.74976001513E+02  0.79257137127E+02  0.00000000000E+00 0.  1.
         13    1    3    3    0    0  0.19993075569E+02  0.16142178043E+02 -0.14847132021E+02  0.29677100801E+02  0.00000000000E+00 0. -1.
<mgrwt>
<rscale>  0 0.90836046E+02</rscale>
<asrwt>0</asrwt>
<pdfrwt beam="2">  1        1 0.37542592E-02 0.90836046E+02</pdfrwt>
<pdfrwt beam="1">  1       -1 0.13004854E-01 0.90836046E+02</pdfrwt>
<totfact> 0.84666260E+04</totfact>
</mgrwt>
</event>
<event>
 5    1  0.1265228E+001  0.8999991E+02  0.7546771E-02  0.1302852E+00
         -2   -1    0    0    0  501 -0.00000000000E+00  0.00000000000E+00  0.18327728006E+03  0.18327728006E+03  0.00000000000E+00 0.  1.
          2   -1    0    0  501    0  0.00000000000E+00 -0.00000000000E+00 -0.11048809929E+02  0.11048809929E+02  0.00000000000E+00 0. -1.
         23    2    1    2    0    0  0.00000000000E+00  0.00000000000E+00  0.17222847013E+03  0.19432608999E+03  0.89999907373E+02 0.  0.
        -13    1    3    3    0    0 -0.42399183915E+02 -0.14166997889E+02  0.74977966076E+02  0.87293127008E+02  0.00000000000E+00 0. -1.
         13    1    3    3    0    0  0.42399183915E+02  0.14166997889E+02  0.97250504058E+02  0.10703296299E+03  0.00000000000E+00 0.  1.
<mgrwt>
<rscale>  0 0.89999907E+02</rscale>
<asrwt>0</asrwt>
<pdfrwt beam="2">  1        2 0.16998170E-02 0.89999907E+02</pdfrwt>
<pdfrwt beam="1">  1       -2 0.28196502E-01 0.89999907E+02</pdfrwt>
<totfact> 0.66829590E+04</totfact>
</mgrwt>
</event>
<event>
 5    1  0.1265228E+001  0.8947152E+02  0.7546771E-02  0.1304137E+00
         -1   -1    0    0    0  501 -0.00000000000E+00  0.00000000000E+00  0.93643810647E+01  0.93643810647E+01  0.00000000000E+00 0.  1.
          1   -1    0    0  501    0  0.00000000000E+00 -0.00000000000E+00 -0.21371278956E+03  0.21371278956E+03  0.00000000000E+00 0. -1.
         23    2    1    2    0    0  0.00000000000E+00  0.00000000000E+00 -0.20434840849E+03  0.22307717062E+03  0.89471515016E+02 0.  0.
        -11    1    3    3    0    0 -0.34794260175E+01 -0.38605081803E+02 -0.46488169579E+02  0.60527751133E+02  0.00000000000E+00 0.  1.
         11    1    3    3    0    0  0.34794260175E+01  0.38605081803E+02 -0.15786023891E+03  0.16254941949E+03  0.00000000000E+00 0. -1.
<mgrwt>
<rscale>  0 0.89471515E+02</rscale>
<asrwt>0</asrwt>
<pdfrwt beam="2">  1        1 0.32878889E-01 0.89471515E+02</pdfrwt>
<pdfrwt beam="1">  1       -1 0.14406741E-02 0.89471515E+02</pdfrwt>
<totfact> 0.12615467E+05</totfact>
</mgrwt>
</event>
<event>
 5    1  0.1265228E+001  0.9007550E+02  0.7546771E-02  0.1302669E+00
         -2   -1    0    0    0  501 -0.00000000000E+00  0.00000000000E+00  0.30281627948E+02  0.30281627948E+02  0.00000000000E+00 0.  1.
          2   -1    0    0  501    0  0.00000000000E+00 -0.00000000000E+00 -0.66984480500E+02  0.66984480500E+02  0.00000000000E+00 0. -1.
         23    2    1    2    0    0  0.00000000000E+00  0.00000000000E+00 -0.36702852551E+02  0.97266108448E+02  0.90075504257E+02 0.  0.
        -11    1    3    3    0    0 -0.23834262154E+02  0.97672854551E+01  0.21542757358E+02  0.33579194633E+02  0.00000000000E+00 0.  1.
         11    1    3    3    0    0  0.23834262154E+02 -0.97672854551E+01 -0.58245609909E+02  0.63686913815E+02  0.00000000000E+00 0. -1.
<mgrwt>
<rscale>  0 0.90075504E+02</rscale>
<asrwt>0</asrwt>
<pdfrwt beam="2">  1        2 0.10305305E-01 0.90075504E+02</pdfrwt>
<pdfrwt beam="1">  1       -2 0.46587120E-02 0.90075504E+02</pdfrwt>
<totfact> 0.11306620E+05</totfact>
</mgrwt>
</event>
<event>
 5    1  0.1265228E+001  0.9316454E+02  0.7546771E-02  0.1295364E+00
          2   -1    0    0  501    0  0.00000000000E+00  0.00000000000E+00  0.19881053920E+03  0.19881053920E+03  0.00000000000E+00 0. -1.
         -2   -1    0    0    0  501 -0.00000000000E+00 -0.00000000000E+00 -0.10914450865E+02  0.10914450865E+02  0.00000000000E+00 0.  1.
         23    2    1    2    0    0  0.00000000000E+00  0.00000000000E+00  0.18789608834E+03  0.20972499007E+03  0.93164539640E+02 0.  0.
        -11    1    3    3    0    0  0.33923776987E+02 -0.31826347438E+02  0.99539189415E+02  0.10987169456E+03  0.00000000000E+00 0.  1.
         11    1    3    3    0    0 -0.33923776987E+02  0.31826347438E+02  0.88356898923E+02  0.99853295507E+02  0.00000000000E+00 0. -1.
<mgrwt>
<rscale>  0 0.93164540E+02</rscale>
<asrwt>0</asrwt>
<pdfrwt beam="1">  1        2 0.30586234E-01 0.93164540E+02</pdfrwt>
<pdfrwt beam="2">  1       -2 0.16791464E-02 0.93164540E+02</pdfrwt>
<totfact> 0.14562116E+05</totfact>
</mgrwt>
</event>
<event>
 5    1  0.1265228E+001  0.9146231E+02  0.7546771E-02  0.1299349E+00
         -1   -1    0    0    0  501 -0.00000000000E+00  0.00000000000E+00  0.65306348383E+02  0.65306348383E+02  0.00000000000E+00 0.  1.
          1   -1    0    0  501    0  0.00000000000E+00 -0.00000000000E+00 -0.32023508457E+02  0.32023508457E+02  0.00000000000E+00 0. -1.
         23    2    1    2    0    0  0.00000000000E+00  0.00000000000E+00  0.33282839926E+02  0.97329856839E+02  0.91462306984E+02 0.  0.
        -13    1    3    3    0    0 -0.14931563738E+01 -0.29336210975E+02  0.53939865929E+02  0.61419475142E+02  0.00000000000E+00 0.  1.
         13    1    3    3    0    0  0.14931563738E+01  0.29336210975E+02 -0.20657026003E+02  0.35910381697E+02  0.00000000000E+00 0. -1.
<mgrwt>
<rscale>  0 0.91462307E+02</rscale>
<asrwt>0</asrwt>
<pdfrwt beam="2">  1        1 0.49266936E-02 0.91462307E+02</pdfrwt>
<pdfrwt beam="1">  1       -1 0.10047130E-01 0.91462307E+02</pdfrwt>
<totfact> 0.86813267E+04</totfact>
</mgrwt>
</event>
<event>
 5    1  0.1265228E+001  0.1259152E+03  0.7546771E-02  0.1233646E+00
         -1   -1    0    0    0  501 -0.00000000000E+00  0.00000000000E+00  0.36032477955E+02  0.36032477955E+02  0.00000000000E+00 0.  1.
          1   -1    0    0  501    0  0.00000000000E+00 -0.00000000000E+00 -0.11000241390E+03  0.11000241390E+03  0.00000000000E+00 0. -1.
         23    2    1    2    0    0  0.00000000000E+00  0.00000000000E+00 -0.73969935949E+02  0.14603489186E+03  0.12591520248E+03 0.  0.
        -11    1    3    3    0    0  0.61289714128E+02  0.10369736224E+02 -0.25404555943E+02  0.67151708466E+02  0.00000000000E+00 0.  1.
         11    1    3    3    0    0 -0.61289714128E+02 -0.10369736224E+02 -0.48565380006E+02  0.78883183394E+02  0.00000000000E+00 0. -1.
<mgrwt>
<rscale>  0 0.12591520E+03</rscale>
<asrwt>0</asrwt>
<pdfrwt beam="2">  1        1 0.16923448E-01 0.12591520E+03</pdfrwt>
<pdfrwt beam="1">  1       -1 0.55434583E-02 0.12591520E+03</pdfrwt>
<totfact> 0.43276071E+04</totfact>
</mgrwt>
</event>
<event>
 5    1  0.1265228E+001  0.9264163E+02  0.7546771E-02  0.1296578E+00
          1   -1    0    0  501    0  0.00000000000E+00  0.00000000000E+00  0.28955804109E+02  0.28955804109E+02  0.00000000000E+00 0. -1.
         -1   -1    0    0    0  501 -0.00000000000E+00 -0.00000000000E+00 -0.74099752337E+02  0.74099752337E+02  0.00000000000E+00 0.  1.
         23    2    1    2    0    0  0.00000000000E+00  0.00000000000E+00 -0.45143948228E+02  0.10305555645E+03  0.92641630236E+02 0.  0.
        -11    1    3    3    0    0 -0.11260592746E+02  0.41013805781E+02 -0.21603804559E+01  0.42586388170E+02  0.00000000000E+00 0.  1.
         11    1    3    3    0    0  0.11260592746E+02 -0.41013805781E+02 -0.42983567772E+02  0.60469168276E+02  0.00000000000E+00 0. -1.
<mgrwt>
<rscale>  0 0.92641630E+02</rscale>
<asrwt>0</asrwt>
<pdfrwt beam="1">  1        1 0.44547392E-02 0.92641630E+02</pdfrwt>
<pdfrwt beam="2">  1       -1 0.11399962E-01 0.92641630E+02</pdfrwt>
<totfact> 0.82315509E+04</totfact>
</mgrwt>
</event>
<event>
 5    1  0.1265228E+001  0.9155922E+02  0.7546771E-02  0.1299119E+00
         -1   -1    0    0    0  501 -0.00000000000E+00  0.00000000000E+00  0.11664813255E+02  0.11664813255E+02  0.00000000000E+00 0.  1.
          1   -1    0    0  501    0  0.00000000000E+00 -0.00000000000E+00 -0.17966619479E+03  0.17966619479E+03  0.00000000000E+00 0. -1.
         23    2    1    2    0    0  0.00000000000E+00  0.00000000000E+00 -0.16800138154E+03  0.19133100805E+03  0.91559218226E+02 0.  0.
        -11    1    3    3    0    0  0.30479695984E+02  0.34133922762E+02 -0.81327789495E+02  0.93318518497E+02  0.00000000000E+00 0.  1.
         11    1    3    3    0    0 -0.30479695984E+02 -0.34133922762E+02 -0.86673592044E+02  0.98012489552E+02  0.00000000000E+00 0. -1.
<mgrwt>
<rscale>  0 0.91559218E+02</rscale>
<asrwt>0</asrwt>
<pdfrwt beam="2">  1        1 0.27640952E-01 0.91559218E+02</pdfrwt>
<pdfrwt beam="1">  1       -1 0.17945867E-02 0.91559218E+02</pdfrwt>
<totfact> 0.11468651E+05</totfact>
</mgrwt>
</event>
<event>
 5    1  0.1265228E+001  0.9216574E+02  0.7546771E-02  0.1297690E+00
         -1   -1    0    0    0  501 -0.00000000000E+00  0.00000000000E+00  0.56632622456E+02  0.56632622456E+02  0.00000000000E+00 0.  1.
          1   -1    0    0  501    0  0.00000000000E+00 -0.00000000000E+00 -0.37498370641E+02  0.37498370641E+02  0.00000000000E+00 0. -1.
         23    2    1    2    0    0  0.00000000000E+00  0.00000000000E+00  0.19134251816E+02  0.94130993097E+02  0.92165743467E+02 0.  0.
        -13    1    3    3    0    0 -0.41522606544E+02 -0.19950281353E+02  0.10814013205E+02  0.47318954573E+02  0.00000000000E+00 0.  1.
         13    1    3    3    0    0  0.41522606544E+02  0.19950281353E+02  0.83202386108E+01  0.46812038524E+02  0.00000000000E+00 0. -1.
<mgrwt>
<rscale>  0 0.92165743E+02</rscale>
<asrwt>0</asrwt>
<pdfrwt beam="2">  1        1 0.57689801E-02 0.92165743E+02</pdfrwt>
<pdfrwt beam="1">  1       -1 0.87127111E-02 0.92165743E+02</pdfrwt>
<totfact> 0.87065851E+04</totfact>
</mgrwt>
</event>
<event>
 5    1  0.1265228E+001  0.9037827E+02  0.7546771E-02  0.1301938E+00
          2   -1    0    0  501    0  0.00000000000E+00  0.00000000000E+00  0.47982027887E+02  0.47982027887E+02  0.00000000000E+00 0. -1.
         -2   -1    0    0    0  501 -0.00000000000E+00 -0.00000000000E+00 -0.42558810201E+02  0.42558810201E+02  0.00000000000E+00 0.  1.
         23    2    1    2    0    0  0.00000000000E+00  0.00000000000E+00  0.54232176865E+01  0.90540838088E+02  0.90378272121E+02 0.  0.
        -11    1    3    3    0    0 -0.13999803716E+02  0.41927169464E+02 -0.66954878977E+01  0.44706952497E+02  0.00000000000E+00 0.  1.
         11    1    3    3    0    0  0.13999803716E+02 -0.41927169464E+02  0.12118705584E+02  0.45833885591E+02  0.00000000000E+00 0. -1.
<mgrwt>
<rscale>  0 0.90378272E+02</rscale>
<asrwt>0</asrwt>
<pdfrwt beam="1">  1        2 0.73818504E-02 0.90378272E+02</pdfrwt>
<pdfrwt beam="2">  1       -2 0.65475093E-02 0.90378272E+02</pdfrwt>
<totfact> 0.10254007E+05</totfact>
</mgrwt>
</event>
<event>
 5    1  0.1265228E+001  0.8818117E+02  0.7546771E-02  0.1307317E+00
         -4   -1    0    0    0  501 -0.00000000000E+00  0.00000000000E+00  0.77232575185E+02  0.77232575185E+02  0.00000000000E+00 0. -1.
          4   -1    0    0  501    0  0.00000000000E+00 -0.00000000000E+00 -0.25170461301E+02  0.25170461301E+02  0.00000000000E+00 0.  1.
         23    2    1    2    0    0  0.00000000000E+00  0.00000000000E+00  0.52062113884E+02  0.10240303649E+03  0.88181166808E+02 0.  0.
        -13    1    3    3    0    0 -0.34471267780E+02 -0.27490164346E+02  0.26084359186E+02  0.51228617318E+02  0.00000000000E+00 0.  1.
         13    1    3    3    0    0  0.34471267780E+02  0.27490164346E+02  0.25977754698E+02  0.51174419169E+02  0.00000000000E+00 0. -1.
<mgrwt>
<rscale>  0 0.88181167E+02</rscale>
<asrwt>0</asrwt>
<pdfrwt beam="2">  1        4 0.38723787E-02 0.88181167E+02</pdfrwt>
<pdfrwt beam="1">  1       -4 0.11881935E-01 0.88181167E+02</pdfrwt>
<totfact> 0.28791726E+04</totfact>
</mgrwt>
</event>
<event>
 5    1  0.1265228E+001  0.8898169E+02  0.7546771E-02  0.1305337E+00
          1   -1    0    0  501    0  0.00000000000E+00  0.00000000000E+00  0.59256803390E+01  0.59256803390E+01  0.00000000000E+00 0. -1.
         -1   -1    0    0    0  501 -0.00000000000E+00 -0.00000000000E+00 -0.33404354806E+03  0.33404354806E+03  0.00000000000E+00 0.  1.
         23    2    1    2    0    0  0.00000000000E+00  0.00000000000E+00 -0.32811786773E+03  0.33996922840E+03  0.88981689918E+02 0.  0.
        -13    1    3    3    0    0  0.11290622763E+02  0.42373466061E+02 -0.13535394011E+03  0.14228027935E+03  0.00000000000E+00 0. -1.
         13    1    3    3    0    0 -0.11290622763E+02 -0.42373466061E+02 -0.19276392761E+03  0.19768894905E+03  0.00000000000E+00 0.  1.
<mgrwt>
<rscale>  0 0.88981690E+02</rscale>
<asrwt>0</asrwt>
<pdfrwt beam="1">  1        1 0.91164293E-03 0.88981690E+02</pdfrwt>
<pdfrwt beam="2">  1       -1 0.51391326E-01 0.88981690E+02</pdfrwt>
<totfact> 0.61774878E+04</totfact>
</mgrwt>
</event>
<event>
 5    1  0.1265228E+001  0.9427846E+02  0.7546771E-02  0.1292809E+00
          1   -1    0    0  501    0  0.00000000000E+00  0.00000000000E+00  0.21327947200E+03  0.21327947200E+03  0.00000000000E+00 0. -1.
         -1   -1    0    0    0  501 -0.00000000000E+00 -0.00000000000E+00 -0.10418756935E+02  0.10418756935E+02  0.00000000000E+00 0.  1.
         23    2    1    2    0    0  0.00000000000E+00  0.00000000000E+00  0.20286071507E+03  0.22369822894E+03  0.94278459429E+02 0.  0.
        -13    1    3    3    0    0 -0.37656797734E+02 -0.19096046874E+02  0.15116818300E+03  0.15695385620E+03  0.00000000000E+00 0. -1.
         13    1    3    3    0    0  0.37656797734E+02  0.19096046874E+02  0.51692532064E+02  0.66744372744E+02  0.00000000000E+00 0.  1.
<mgrwt>
<rscale>  0 0.94278459E+02</rscale>
<asrwt>0</asrwt>
<pdfrwt beam="1">  1        1 0.32812223E-01 0.94278459E+02</pdfrwt>
<pdfrwt beam="2">  1       -1 0.16028858E-02 0.94278459E+02</pdfrwt>
<totfact> 0.10959424E+05</totfact>
</mgrwt>
</event>
<event>
 5    1  0.1265228E+001  0.9235197E+02  0.7546771E-02  0.1297254E+00
         -4   -1    0    0    0  501 -0.00000000000E+00  0.00000000000E+00  0.27551363466E+02  0.27551363466E+02  0.00000000000E+00 0. -1.
          4   -1    0    0  501    0  0.00000000000E+00 -0.00000000000E+00 -0.77390780297E+02  0.77390780297E+02  0.00000000000E+00 0.  1.
         23    2    1    2    0    0  0.00000000000E+00  0.00000000000E+00 -0.49839416831E+02  0.10494214376E+03  0.92351968402E+02 0.  0.
        -13    1    3    3    0    0  0.20240426843E+02 -0.90228086637E+01 -0.70953421170E+02  0.74333531672E+02  0.00000000000E+00 0.  1.
         13    1    3    3    0    0 -0.20240426843E+02  0.90228086637E+01  0.21114004339E+02  0.30608612092E+02  0.00000000000E+00 0. -1.
<mgrwt>
<rscale>  0 0.92351968E+02</rscale>
<asrwt>0</asrwt>
<pdfrwt beam="2">  1        4 0.11906274E-01 0.92351968E+02</pdfrwt>
<pdfrwt beam="1">  1       -4 0.42386714E-02 0.92351968E+02</pdfrwt>
<totfact> 0.25261892E+04</totfact>
</mgrwt>
</event>
<event>
 5    1  0.1265228E+001  0.8973208E+02  0.7546771E-02  0.1303502E+00
          1   -1    0    0  501    0  0.00000000000E+00  0.00000000000E+00  0.17577701060E+03  0.17577701060E+03  0.00000000000E+00 0. -1.
         -1   -1    0    0    0  501 -0.00000000000E+00 -0.00000000000E+00 -0.11451791889E+02  0.11451791889E+02  0.00000000000E+00 0.  1.
         23    2    1    2    0    0  0.00000000000E+00  0.00000000000E+00  0.16432521871E+03  0.18722880249E+03  0.89732084434E+02 0.  0.
        -11    1    3    3    0    0  0.29179436048E+02  0.18846405452E+02  0.22913376949E+02  0.41613090846E+02  0.00000000000E+00 0.  1.
         11    1    3    3    0    0 -0.29179436048E+02 -0.18846405452E+02  0.14141184176E+03  0.14561571164E+03  0.00000000000E+00 0. -1.
<mgrwt>
<rscale>  0 0.89732084E+02</rscale>
<asrwt>0</asrwt>
<pdfrwt beam="1">  1        1 0.27042615E-01 0.89732084E+02</pdfrwt>
<pdfrwt beam="2">  1       -1 0.17618143E-02 0.89732084E+02</pdfrwt>
<totfact> 0.12056192E+05</totfact>
</mgrwt>
</event>
<event>
 5    1  0.1265228E+001  0.9198544E+02  0.7546771E-02  0.1298114E+00
          3   -1    0    0  501    0  0.00000000000E+00  0.00000000000E+00  0.20071671437E+03  0.20071671437E+03  0.00000000000E+00 0. -1.
         -3   -1    0    0    0  501 -0.00000000000E+00 -0.00000000000E+00 -0.10538885345E+02  0.10538885345E+02  0.00000000000E+00 0.  1.
         23    2    1    2    0    0  0.00000000000E+00  0.00000000000E+00  0.19017782903E+03  0.21125559972E+03  0.91985443188E+02 0.  0.
        -13    1    3    3    0    0  0.41083395200E+02  0.12758261365E+02  0.57722983102E+02  0.71990008838E+02  0.00000000000E+00 0.  1.
         13    1    3    3    0    0 -0.41083395200E+02 -0.12758261365E+02  0.13245484592E+03  0.13926559088E+03  0.00000000000E+00 0. -1.
<mgrwt>
<rscale>  0 0.91985443E+02</rscale>
<asrwt>0</asrwt>
<pdfrwt beam="1">  1        3 0.30879492E-01 0.91985443E+02</pdfrwt>
<pdfrwt beam="2">  1       -3 0.16213671E-02 0.91985443E+02</pdfrwt>
<totfact> 0.27268710E+04</totfact>
</mgrwt>
</event>
<event>
 5    1  0.1265228E+001  0.8865491E+02  0.7546771E-02  0.1306142E+00
         -2   -1    0    0    0  501 -0.00000000000E+00  0.00000000000E+00  0.12764749048E+02  0.12764749048E+02  0.00000000000E+00 0.  1.
          2   -1    0    0  501    0  0.00000000000E+00 -0.00000000000E+00 -0.15393354727E+03  0.15393354727E+03  0.00000000000E+00 0. -1.
         23    2    1    2    0    0  0.00000000000E+00  0.00000000000E+00 -0.14116879823E+03  0.16669829632E+03  0.88654906260E+02 0.  0.
        -13    1    3    3    0    0 -0.30401665709E+02 -0.92866976017E+01 -0.12494858674E+02  0.34155900274E+02  0.00000000000E+00 0.  1.
         13    1    3    3    0    0  0.30401665709E+02  0.92866976017E+01 -0.12867393955E+03  0.13254239605E+03  0.00000000000E+00 0. -1.
<mgrwt>
<rscale>  0 0.88654906E+02</rscale>
<asrwt>0</asrwt>
<pdfrwt beam="2">  1        2 0.23682083E-01 0.88654906E+02</pdfrwt>
<pdfrwt beam="1">  1       -2 0.19638077E-02 0.88654906E+02</pdfrwt>
<totfact> 0.15216887E+05</totfact>
</mgrwt>
</event>
<event>
 5    1  0.1265228E+001  0.9387019E+02  0.7546771E-02  0.1293741E+00
          1   -1    0    0  501    0  0.00000000000E+00  0.00000000000E+00  0.12070896863E+03  0.12070896863E+03  0.00000000000E+00 0. -1.
         -1   -1    0    0    0  501 -0.00000000000E+00 -0.00000000000E+00 -0.18249704462E+02  0.18249704462E+02  0.00000000000E+00 0.  1.
         23    2    1    2    0    0  0.00000000000E+00  0.00000000000E+00  0.10245926417E+03  0.13895867309E+03  0.93870187035E+02 0.  0.
        -11    1    3    3    0    0  0.39653231512E+02  0.40826158744E+01  0.14552835367E+02  0.42436205520E+02  0.00000000000E+00 0.  1.
         11    1    3    3    0    0 -0.39653231512E+02 -0.40826158744E+01  0.87906428804E+02  0.96522467575E+02  0.00000000000E+00 0. -1.
<mgrwt>
<rscale>  0 0.93870187E+02</rscale>
<asrwt>0</asrwt>
<pdfrwt beam="1">  1        1 0.18570610E-01 0.93870187E+02</pdfrwt>
<pdfrwt beam="2">  1       -1 0.28076469E-02 0.93870187E+02</pdfrwt>
<totfact> 0.99641810E+04</totfact>
</mgrwt>
</event>
<event>
 5    1  0.1265228E+001  0.8177217E+02  0.7546771E-02  0.1324096E+00
          4   -1    0    0  501    0  0.00000000000E+00  0.00000000000E+00  0.56941639543E+02  0.56941639543E+02  0.00000000000E+00 0.  1.
         -4   -1    0    0    0  501 -0.00000000000E+00 -0.00000000000E+00 -0.29357634787E+02  0.29357634787E+02  0.00000000000E+00 0. -1.
         23    2    1    2    0    0  0.00000000000E+00  0.00000000000E+00  0.27584004757E+02  0.86299274330E+02  0.81772167829E+02 0.  0.
        -13    1    3    3    0    0 -0.33340497330E+02 -0.67220790593E+00 -0.11174206774E+02  0.35169639218E+02  0.00000000000E+00 0. -1.
         13    1    3    3    0    0  0.33340497330E+02  0.67220790593E+00  0.38758211530E+02  0.51129635112E+02  0.00000000000E+00 0.  1.
<mgrwt>
<rscale>  0 0.81772168E+02</rscale>
<asrwt>0</asrwt>
<pdfrwt beam="1">  1        4 0.87602522E-02 0.81772168E+02</pdfrwt>
<pdfrwt beam="2">  1       -4 0.45165592E-02 0.81772168E+02</pdfrwt>
<totfact> 0.36645486E+04</totfact>
</mgrwt>
</event>
<event>
 5    1  0.1265228E+001  0.9045578E+02  0.7546771E-02  0.1301752E+00
          3   -1    0    0  501    0  0.00000000000E+00  0.00000000000E+00  0.68904603844E+02  0.68904603844E+02  0.00000000000E+00 0. -1.
         -3   -1    0    0    0  501 -0.00000000000E+00 -0.00000000000E+00 -0.29686870075E+02  0.29686870075E+02  0.00000000000E+00 0.  1.
         23    2    1    2    0    0  0.00000000000E+00  0.00000000000E+00  0.39217733769E+02  0.98591473919E+02  0.90455779736E+02 0.  0.
        -11    1    3    3    0    0  0.30401918657E+02  0.15601019509E+02 -0.12685291267E+02  0.36449761072E+02  0.00000000000E+00 0.  1.
         11    1    3    3    0    0 -0.30401918657E+02 -0.15601019509E+02  0.51903025035E+02  0.62141712847E+02  0.00000000000E+00 0. -1.
<mgrwt>
<rscale>  0 0.90455780E+02</rscale>
<asrwt>0</asrwt>
<pdfrwt beam="1">  1        3 0.10600708E-01 0.90455780E+02</pdfrwt>
<pdfrwt beam="2">  1       -3 0.45672108E-02 0.90455780E+02</pdfrwt>
<totfact> 0.35534409E+04</totfact>
</mgrwt>
</event>
<event>
 5    1  0.1265228E+001  0.9401648E+02  0.7546771E-02  0.1293407E+00
          1   -1    0    0  501    0  0.00000000000E+00  0.00000000000E+00  0.19371934055E+03  0.19371934055E+03  0.00000000000E+00 0. -1.
         -1   -1    0    0    0  501 -0.00000000000E+00 -0.00000000000E+00 -0.11407092811E+02  0.11407092811E+02  0.00000000000E+00 0.  1.
         23    2    1    2    0    0  0.00000000000E+00  0.00000000000E+00  0.18231224774E+03  0.20512643336E+03  0.94016477216E+02 0.  0.
        -13    1    3    3    0    0 -0.44131797983E+02 -0.59067911753E+00  0.12645905550E+03  0.13393975217E+03  0.00000000000E+00 0.  1.
         13    1    3    3    0    0  0.44131797983E+02  0.59067911753E+00  0.55853192243E+02  0.71186681190E+02  0.00000000000E+00 0. -1.
<mgrwt>
<rscale>  0 0.94016477E+02</rscale>
<asrwt>0</asrwt>
<pdfrwt beam="1">  1        1 0.29802973E-01 0.94016477E+02</pdfrwt>
<pdfrwt beam="2">  1       -1 0.17549375E-02 0.94016477E+02</pdfrwt>
<totfact> 0.10835835E+05</totfact>
</mgrwt>
</event>
<event>
 5    1  0.1265228E+001  0.9102554E+02  0.7546771E-02  0.1300387E+00
          1   -1    0    0  501    0  0.00000000000E+00  0.00000000000E+00  0.16527975441E+02  0.16527975441E+02  0.00000000000E+00 0. -1.
         -1   -1    0    0    0  501 -0.00000000000E+00 -0.00000000000E+00 -0.12532765283E+03  0.12532765283E+03  0.00000000000E+00 0.  1.
         23    2    1    2    0    0  0.00000000000E+00  0.00000000000E+00 -0.10879967739E+03  0.14185562827E+03  0.91025542966E+02 0.  0.
        -13    1    3    3    0    0  0.39335017169E+02  0.20984076747E+02 -0.68669115904E+02  0.81871988688E+02  0.00000000000E+00 0.  1.
         13    1    3    3    0    0 -0.39335017169E+02 -0.20984076747E+02 -0.40130561484E+02  0.59983639583E+02  0.00000000000E+00 0. -1.
<mgrwt>
<rscale>  0 0.91025543E+02</rscale>
<asrwt>0</asrwt>
<pdfrwt beam="1">  1        1 0.25427654E-02 0.91025543E+02</pdfrwt>
<pdfrwt beam="2">  1       -1 0.19281178E-01 0.91025543E+02</pdfrwt>
<totfact> 0.78162336E+04</totfact>
</mgrwt>
</event>
<event>
 5    1  0.1265228E+001  0.9212755E+02  0.7546771E-02  0.1297780E+00
          1   -1    0    0  501    0  0.00000000000E+00  0.00000000000E+00  0.14292094584E+02  0.14292094584E+02  0.00000000000E+00 0. -1.
         -1   -1    0    0    0  501 -0.00000000000E+00 -0.00000000000E+00 -0.14846468097E+03  0.14846468097E+03  0.00000000000E+00 0.  1.
         23    2    1    2    0    0  0.00000000000E+00  0.00000000000E+00 -0.13417258638E+03  0.16275677555E+03  0.92127547734E+02 0.  0.
        -13    1    3    3    0    0  0.39097064233E+02 -0.81205688828E+01 -0.26516958553E+02  0.47934050127E+02  0.00000000000E+00 0. -1.
         13    1    3    3    0    0 -0.39097064233E+02  0.81205688828E+01 -0.10765562783E+03  0.11482272543E+03  0.00000000000E+00 0.  1.
<mgrwt>
<rscale>  0 0.92127548E+02</rscale>
<asrwt>0</asrwt>
<pdfrwt beam="1">  1        1 0.21987839E-02 0.92127548E+02</pdfrwt>
<pdfrwt beam="2">  1       -1 0.22840719E-01 0.92127548E+02</pdfrwt>
<totfact> 0.72974805E+04</totfact>
</mgrwt>
</event>
<event>
 5    1  0.1265228E+001  0.1073450E+03  0.7546771E-02  0.1265567E+00
          1   -1    0    0  501    0  0.00000000000E+00  0.00000000000E+00  0.35226370814E+03  0.35226370814E+03  0.00000000000E+00 0. -1.
         -1   -1    0    0    0  501 -0.00000000000E+00 -0.00000000000E+00 -0.81777800759E+01  0.81777800759E+01  0.00000000000E+00 0.  1.
         23    2    1    2    0    0  0.00000000000E+00  0.00000000000E+00  0.34408592806E+03  0.36044148821E+03  0.10734496046E+03 0.  0.
        -11    1    3    3    0    0 -0.50805178323E+02 -0.16650552448E+02  0.18790938329E+03  0.19536720137E+03  0.00000000000E+00 0.  1.
         11    1    3    3    0    0  0.50805178323E+02  0.16650552448E+02  0.15617654477E+03  0.16507428684E+03  0.00000000000E+00 0. -1.
<mgrwt>
<rscale>  0 0.10734496E+03</rscale>
<asrwt>0</asrwt>
<pdfrwt beam="1">  1        1 0.54194405E-01 0.10734496E+03</pdfrwt>
<pdfrwt beam="2">  1       -1 0.12581203E-02 0.10734496E+03</pdfrwt>
<totfact> 0.85189742E+04</totfact>
</mgrwt>
</event>
<event>
 5    1  0.1265228E+001  0.8986664E+02  0.7546771E-02  0.1303175E+00
          2   -1    0    0  501    0  0.00000000000E+00  0.00000000000E+00  0.65560880924E+02  0.65560880924E+02  0.00000000000E+00 0. -1.
         -2   -1    0    0    0  501 -0.00000000000E+00 -0.00000000000E+00 -0.30795850174E+02  0.30795850174E+02  0.00000000000E+00 0.  1.
         23    2    1    2    0    0  0.00000000000E+00  0.00000000000E+00  0.34765030751E+02  0.96356731098E+02  0.89866635994E+02 0.  0.
        -13    1    3    3    0    0 -0.19448259201E+02 -0.76648340647E+01 -0.25264570995E+02  0.32791508272E+02  0.00000000000E+00 0.  1.
         13    1    3    3    0    0  0.19448259201E+02  0.76648340647E+01  0.60029601746E+02  0.63565222826E+02  0.00000000000E+00 0. -1.
<mgrwt>
<rscale>  0 0.89866636E+02</rscale>
<asrwt>0</asrwt>
<pdfrwt beam="1">  1        2 0.10086289E-01 0.89866636E+02</pdfrwt>
<pdfrwt beam="2">  1       -2 0.47378231E-02 0.89866636E+02</pdfrwt>
<totfact> 0.11314021E+05</totfact>
</mgrwt>
</event>
<event>
 5    1  0.1265228E+001  0.9149966E+02  0.7546771E-02  0.1299260E+00
         -4   -1    0    0    0  501 -0.00000000000E+00  0.00000000000E+00  0.25486306756E+02  0.25486306756E+02  0.00000000000E+00 0.  1.
          4   -1    0    0  501    0  0.00000000000E+00 -0.00000000000E+00 -0.82124369997E+02  0.82124369997E+02  0.00000000000E+00 0. -1.
         23    2    1    2    0    0  0.00000000000E+00  0.00000000000E+00 -0.56638063241E+02  0.10761067675E+03  0.91499658708E+02 0.  0.
        -11    1    3    3    0    0 -0.32332181073E+02 -0.30869286377E+02 -0.16870287839E+02  0.47779591732E+02  0.00000000000E+00 0.  1.
         11    1    3    3    0    0  0.32332181073E+02  0.30869286377E+02 -0.39767775402E+02  0.59831085021E+02  0.00000000000E+00 0. -1.
<mgrwt>
<rscale>  0 0.91499659E+02</rscale>
<asrwt>0</asrwt>
<pdfrwt beam="2">  1        4 0.12634518E-01 0.91499659E+02</pdfrwt>
<pdfrwt beam="1">  1       -4 0.39209703E-02 0.91499659E+02</pdfrwt>
<totfact> 0.25747081E+04</totfact>
</mgrwt>
</event>
<event>
 5    1  0.1265228E+001  0.8842344E+02  0.7546771E-02  0.1306715E+00
         -1   -1    0    0    0  501 -0.00000000000E+00  0.00000000000E+00  0.17381003556E+02  0.17381003556E+02  0.00000000000E+00 0.  1.
          1   -1    0    0  501    0  0.00000000000E+00 -0.00000000000E+00 -0.11246048439E+03  0.11246048439E+03  0.00000000000E+00 0. -1.
         23    2    1    2    0    0  0.00000000000E+00  0.00000000000E+00 -0.95079480837E+02  0.12984148795E+03  0.88423437597E+02 0.  0.
        -11    1    3    3    0    0  0.32651201226E+02 -0.10007963149E+02 -0.63087514830E+01  0.34728383394E+02  0.00000000000E+00 0.  1.
         11    1    3    3    0    0 -0.32651201226E+02  0.10007963149E+02 -0.88770729355E+02  0.95113104555E+02  0.00000000000E+00 0. -1.
<mgrwt>
<rscale>  0 0.88423438E+02</rscale>
<asrwt>0</asrwt>
<pdfrwt beam="2">  1        1 0.17301613E-01 0.88423438E+02</pdfrwt>
<pdfrwt beam="1">  1       -1 0.26740005E-02 0.88423438E+02</pdfrwt>
<totfact> 0.11577019E+05</totfact>
</mgrwt>
</event>
<event>
 5    1  0.1265228E+001  0.9143728E+02  0.7546771E-02  0.1299408E+00
         -1   -1    0    0    0  501 -0.00000000000E+00  0.00000000000E+00  0.60413544756E+02  0.60413544756E+02  0.00000000000E+00 0.  1.
          1   -1    0    0  501    0  0.00000000000E+00 -0.00000000000E+00 -0.34598102744E+02  0.34598102744E+02  0.00000000000E+00 0. -1.
         23    2    1    2    0    0  0.00000000000E+00  0.00000000000E+00  0.25815442012E+02  0.95011647501E+02  0.91437279676E+02 0.  0.
        -13    1    3    3    0    0  0.36876727158E+02 -0.23048711920E+02  0.27568034677E+02  0.51489150925E+02  0.00000000000E+00 0.  1.
         13    1    3    3    0    0 -0.36876727158E+02  0.23048711920E+02 -0.17525926650E+01  0.43522496575E+02  0.00000000000E+00 0. -1.
<mgrwt>
<rscale>  0 0.91437280E+02</rscale>
<asrwt>0</asrwt>
<pdfrwt beam="2">  1        1 0.53227851E-02 0.91437280E+02</pdfrwt>
<pdfrwt beam="1">  1       -1 0.92943915E-02 0.91437280E+02</pdfrwt>
<totfact> 0.87946467E+04</totfact>
</mgrwt>
</event>
<event>
 5    1  0.1265228E+001  0.9067998E+02  0.7546771E-02  0.1301213E+00
          4   -1    0    0  501    0  0.00000000000E+00  0.00000000000E+00  0.13597468112E+03  0.13597468112E+03  0.00000000000E+00 0. -1.
         -4   -1    0    0    0  501 -0.00000000000E+00 -0.00000000000E+00 -0.15118365166E+02  0.15118365166E+02  0.00000000000E+00 0.  1.
         23    2    1    2    0    0  0.00000000000E+00  0.00000000000E+00  0.12085631596E+03  0.15109304629E+03  0.90679984178E+02 0.  0.
        -11    1    3    3    0    0 -0.19163520540E+02  0.34813217865E+02  0.24055840213E+02  0.46453031182E+02  0.00000000000E+00 0.  1.
         11    1    3    3    0    0  0.19163520540E+02 -0.34813217865E+02  0.96800475744E+02  0.10464001511E+03  0.00000000000E+00 0. -1.
<mgrwt>
<rscale>  0 0.90679984E+02</rscale>
<asrwt>0</asrwt>
<pdfrwt beam="1">  1        4 0.20919181E-01 0.90679984E+02</pdfrwt>
<pdfrwt beam="2">  1       -4 0.23259024E-02 0.90679984E+02</pdfrwt>
<totfact> 0.23967727E+04</totfact>
</mgrwt>
</event>
<event>
 5    1  0.1265228E+001  0.9049735E+02  0.7546771E-02  0.1301652E+00
          3   -1    0    0  501    0  0.00000000000E+00  0.00000000000E+00  0.37440970396E+02  0.37440970396E+02  0.00000000000E+00 0.  1.
         -3   -1    0    0    0  501 -0.00000000000E+00 -0.00000000000E+00 -0.54684549284E+02  0.54684549284E+02  0.00000000000E+00 0. -1.
         23    2    1    2    0    0  0.00000000000E+00  0.00000000000E+00 -0.17243578888E+02  0.92125519680E+02  0.90497350036E+02 0.  0.
        -11    1    3    3    0    0  0.17970790465E+02 -0.34044825722E+02  0.15585075742E+02  0.41531843858E+02  0.00000000000E+00 0.  1.
         11    1    3    3    0    0 -0.17970790465E+02  0.34044825722E+02 -0.32828654630E+02  0.50593675822E+02  0.00000000000E+00 0. -1.
<mgrwt>
<rscale>  0 0.90497350E+02</rscale>
<asrwt>0</asrwt>
<pdfrwt beam="1">  1        3 0.57601493E-02 0.90497350E+02</pdfrwt>
<pdfrwt beam="2">  1       -3 0.84130076E-02 0.90497350E+02</pdfrwt>
<totfact> 0.35991502E+04</totfact>
</mgrwt>
</event>
<event>
 5    1  0.1265228E+001  0.9162056E+02  0.7546771E-02  0.1298974E+00
          3   -1    0    0  501    0  0.00000000000E+00  0.00000000000E+00  0.74448703633E+02  0.74448703633E+02  0.00000000000E+00 0. -1.
         -3   -1    0    0    0  501 -0.00000000000E+00 -0.00000000000E+00 -0.28188290112E+02  0.28188290112E+02  0.00000000000E+00 0.  1.
         23    2    1    2    0    0  0.00000000000E+00  0.00000000000E+00  0.46260413521E+02  0.10263699375E+03  0.91620557879E+02 0.  0.
        -13    1    3    3    0    0  0.22551047281E+02  0.38598452715E+02  0.11917094997E+02  0.46264537593E+02  0.00000000000E+00 0.  1.
         13    1    3    3    0    0 -0.22551047281E+02 -0.38598452715E+02  0.34343318523E+02  0.56372456153E+02  0.00000000000E+00 0. -1.
<mgrwt>
<rscale>  0 0.91620558E+02</rscale>
<asrwt>0</asrwt>
<pdfrwt beam="1">  1        3 0.11453647E-01 0.91620558E+02</pdfrwt>
<pdfrwt beam="2">  1       -3 0.43366600E-02 0.91620558E+02</pdfrwt>
<totfact> 0.34023425E+04</totfact>
</mgrwt>
</event>
<event>
 5    1  0.1265228E+001  0.9145223E+02  0.7546771E-02  0.1299373E+00
          2   -1    0    0  501    0  0.00000000000E+00  0.00000000000E+00  0.12266627119E+03  0.12266627119E+03  0.00000000000E+00 0. -1.
         -2   -1    0    0    0  501 -0.00000000000E+00 -0.00000000000E+00 -0.17045252007E+02  0.17045252007E+02  0.00000000000E+00 0.  1.
         23    2    1    2    0    0  0.00000000000E+00  0.00000000000E+00  0.10562101918E+03  0.13971152319E+03  0.91452228079E+02 0.  0.
        -11    1    3    3    0    0 -0.25764498914E+02  0.24859829370E+02  0.93567364703E+01  0.37004986663E+02  0.00000000000E+00 0.  1.
         11    1    3    3    0    0  0.25764498914E+02 -0.24859829370E+02  0.96264282710E+02  0.10270653653E+03  0.00000000000E+00 0. -1.
<mgrwt>
<rscale>  0 0.91452228E+02</rscale>
<asrwt>0</asrwt>
<pdfrwt beam="1">  1        2 0.18871733E-01 0.91452228E+02</pdfrwt>
<pdfrwt beam="2">  1       -2 0.26223465E-02 0.91452228E+02</pdfrwt>
<totfact> 0.12971050E+05</totfact>
</mgrwt>
</event>
<event>
 5    1  0.1265228E+001  0.9261315E+02  0.7546771E-02  0.1296644E+00
          3   -1    0    0  501    0  0.00000000000E+00  0.00000000000E+00  0.20718224456E+02  0.20718224456E+02  0.00000000000E+00 0. -1.
         -3   -1    0    0    0  501 -0.00000000000E+00 -0.00000000000E+00 -0.10349818654E+03  0.10349818654E+03  0.00000000000E+00 0.  1.
         23    2    1    2    0    0  0.00000000000E+00  0.00000000000E+00 -0.82779962088E+02  0.12421641100E+03  0.92613145064E+02 0.  0.
        -11    1    3    3    0    0  0.34755827923E+02  0.26828555506E+02 -0.61127618125E+02  0.75261707813E+02  0.00000000000E+00 0.  1.
         11    1    3    3    0    0 -0.34755827923E+02 -0.26828555506E+02 -0.21652343963E+02  0.48954703188E+02  0.00000000000E+00 0. -1.
<mgrwt>
<rscale>  0 0.92613145E+02</rscale>
<asrwt>0</asrwt>
<pdfrwt beam="1">  1        3 0.31874191E-02 0.92613145E+02</pdfrwt>
<pdfrwt beam="2">  1       -3 0.15922798E-01 0.92613145E+02</pdfrwt>
<totfact> 0.31589247E+04</totfact>
</mgrwt>
</event>
<event>
 5    1  0.1265228E+001  0.9114803E+02  0.7546771E-02  0.1300095E+00
          1   -1    0    0  501    0  0.00000000000E+00  0.00000000000E+00  0.22119086828E+02  0.22119086828E+02  0.00000000000E+00 0. -1.
         -1   -1    0    0    0  501 -0.00000000000E+00 -0.00000000000E+00 -0.93900391872E+02  0.93900391872E+02  0.00000000000E+00 0.  1.
         23    2    1    2    0    0  0.00000000000E+00  0.00000000000E+00 -0.71781305044E+02  0.11601947870E+03  0.91148031706E+02 0.  0.
        -13    1    3    3    0    0 -0.35183945232E+02 -0.16829105869E+02 -0.65900732484E+02  0.76576989680E+02  0.00000000000E+00 0.  1.
         13    1    3    3    0    0  0.35183945232E+02  0.16829105869E+02 -0.58805725598E+01  0.39442489020E+02  0.00000000000E+00 0. -1.
<mgrwt>
<rscale>  0 0.91148032E+02</rscale>
<asrwt>0</asrwt>
<pdfrwt beam="1">  1        1 0.34029364E-02 0.91148032E+02</pdfrwt>
<pdfrwt beam="2">  1       -1 0.14446214E-01 0.91148032E+02</pdfrwt>
<totfact> 0.82381587E+04</totfact>
</mgrwt>
</event>
<event>
 5    1  0.1265228E+001  0.9465147E+02  0.7546771E-02  0.1291963E+00
         -4   -1    0    0    0  501 -0.00000000000E+00  0.00000000000E+00  0.25649879805E+02  0.25649879805E+02  0.00000000000E+00 0.  1.
          4   -1    0    0  501    0  0.00000000000E+00 -0.00000000000E+00 -0.87319131224E+02  0.87319131224E+02  0.00000000000E+00 0. -1.
         23    2    1    2    0    0  0.00000000000E+00  0.00000000000E+00 -0.61669251419E+02  0.11296901103E+03  0.94651470576E+02 0.  0.
        -11    1    3    3    0    0 -0.28329352953E+02 -0.20541973690E+02 -0.68863006095E+02  0.77244019382E+02  0.00000000000E+00 0. -1.
         11    1    3    3    0    0  0.28329352953E+02  0.20541973690E+02  0.71937546760E+01  0.35724991647E+02  0.00000000000E+00 0.  1.
<mgrwt>
<rscale>  0 0.94651471E+02</rscale>
<asrwt>0</asrwt>
<pdfrwt beam="2">  1        4 0.13433712E-01 0.94651471E+02</pdfrwt>
<pdfrwt beam="1">  1       -4 0.39461354E-02 0.94651471E+02</pdfrwt>
<totfact> 0.23197625E+04</totfact>
</mgrwt>
</event>
<event>
 5    1  0.1265228E+001  0.8970157E+02  0.7546771E-02  0.1303576E+00
          2   -1    0    0  501    0  0.00000000000E+00  0.00000000000E+00  0.19018483208E+02  0.19018483208E+02  0.00000000000E+00 0. -1.
         -2   -1    0    0    0  501 -0.00000000000E+00 -0.00000000000E+00 -0.10577041258E+03  0.10577041258E+03  0.00000000000E+00 0.  1.
         23    2    1    2    0    0  0.00000000000E+00  0.00000000000E+00 -0.86751929373E+02  0.12478889579E+03  0.89701567781E+02 0.  0.
        -11    1    3    3    0    0  0.16816455190E+02  0.13007503204E+02 -0.98315268217E+02  0.10058767454E+03  0.00000000000E+00 0.  1.
         11    1    3    3    0    0 -0.16816455190E+02 -0.13007503204E+02  0.11563338844E+02  0.24201221249E+02  0.00000000000E+00 0. -1.
<mgrwt>
<rscale>  0 0.89701568E+02</rscale>
<asrwt>0</asrwt>
<pdfrwt beam="1">  1        2 0.29259204E-02 0.89701568E+02</pdfrwt>
<pdfrwt beam="2">  1       -2 0.16272371E-01 0.89701568E+02</pdfrwt>
<totfact> 0.81724018E+04</totfact>
</mgrwt>
</event>
<event>
 5    1  0.1265228E+001  0.9030680E+02  0.7546771E-02  0.1302110E+00
          2   -1    0    0  501    0  0.00000000000E+00  0.00000000000E+00  0.17972200439E+02  0.17972200439E+02  0.00000000000E+00 0. -1.
         -2   -1    0    0    0  501 -0.00000000000E+00 -0.00000000000E+00 -0.11344349957E+03  0.11344349957E+03  0.00000000000E+00 0.  1.
         23    2    1    2    0    0  0.00000000000E+00  0.00000000000E+00 -0.95471299127E+02  0.13141570000E+03  0.90306795152E+02 0.  0.
        -11    1    3    3    0    0  0.10865502533E+02 -0.27033537233E+02 -0.97934369753E+02  0.10217637721E+03  0.00000000000E+00 0.  1.
         11    1    3    3    0    0 -0.10865502533E+02  0.27033537233E+02  0.24630706259E+01  0.29239322796E+02  0.00000000000E+00 0. -1.
<mgrwt>
<rscale>  0 0.90306795E+02</rscale>
<asrwt>0</asrwt>
<pdfrwt beam="1">  1        2 0.27649539E-02 0.90306795E+02</pdfrwt>
<pdfrwt beam="2">  1       -2 0.17452846E-01 0.90306795E+02</pdfrwt>
<totfact> 0.78644996E+04</totfact>
</mgrwt>
</event>
<event>
 5    1  0.1265228E+001  0.9318728E+02  0.7546771E-02  0.1295312E+00
         -2   -1    0    0    0  501 -0.00000000000E+00  0.00000000000E+00  0.18429849785E+03  0.18429849785E+03  0.00000000000E+00 0.  1.
          2   -1    0    0  501    0  0.00000000000E+00 -0.00000000000E+00 -0.11779626752E+02  0.11779626752E+02  0.00000000000E+00 0. -1.
         23    2    1    2    0    0  0.00000000000E+00  0.00000000000E+00  0.17251887109E+03  0.19607812460E+03  0.93187284876E+02 0.  0.
        -13    1    3    3    0    0 -0.40130913829E+02  0.19117508506E+02  0.11564186621E+03  0.12389112396E+03  0.00000000000E+00 0.  1.
         13    1    3    3    0    0  0.40130913829E+02 -0.19117508506E+02  0.56877004886E+02  0.72187000637E+02  0.00000000000E+00 0. -1.
<mgrwt>
<rscale>  0 0.93187285E+02</rscale>
<asrwt>0</asrwt>
<pdfrwt beam="2">  1        2 0.18122504E-02 0.93187285E+02</pdfrwt>
<pdfrwt beam="1">  1       -2 0.28353613E-01 0.93187285E+02</pdfrwt>
<totfact> 0.61017495E+04</totfact>
</mgrwt>
</event>
<event>
 5    1  0.1265228E+001  0.9228086E+02  0.7546771E-02  0.1297420E+00
         -1   -1    0    0    0  501 -0.00000000000E+00  0.00000000000E+00  0.10648378047E+03  0.10648378047E+03  0.00000000000E+00 0.  1.
          1   -1    0    0  501    0  0.00000000000E+00 -0.00000000000E+00 -0.19993084246E+02  0.19993084246E+02  0.00000000000E+00 0. -1.
         23    2    1    2    0    0  0.00000000000E+00  0.00000000000E+00  0.86490696219E+02  0.12647686471E+03  0.92280858116E+02 0.  0.
        -11    1    3    3    0    0  0.22993939239E+02 -0.28080770059E+01  0.97936411491E+02  0.10063869650E+03  0.00000000000E+00 0.  1.
         11    1    3    3    0    0 -0.22993939239E+02  0.28080770059E+01 -0.11445715272E+02  0.25838168207E+02  0.00000000000E+00 0. -1.
<mgrwt>
<rscale>  0 0.92280858E+02</rscale>
<asrwt>0</asrwt>
<pdfrwt beam="2">  1        1 0.30758592E-02 0.92280858E+02</pdfrwt>
<pdfrwt beam="1">  1       -1 0.16382120E-01 0.92280858E+02</pdfrwt>
<totfact> 0.77950509E+04</totfact>
</mgrwt>
</event>
<event>
 5    1  0.1265228E+001  0.9259410E+02  0.7546771E-02  0.1296689E+00
          1   -1    0    0  501    0  0.00000000000E+00  0.00000000000E+00  0.21383847477E+03  0.21383847477E+03  0.00000000000E+00 0. -1.
         -1   -1    0    0    0  501 -0.00000000000E+00 -0.00000000000E+00 -0.10023531645E+02  0.10023531645E+02  0.00000000000E+00 0.  1.
         23    2    1    2    0    0  0.00000000000E+00  0.00000000000E+00  0.20381494312E+03  0.22386200641E+03  0.92594097409E+02 0.  0.
        -13    1    3    3    0    0 -0.50489216601E+01 -0.33359855715E+02  0.25261404957E+02  0.42148667401E+02  0.00000000000E+00 0.  1.
         13    1    3    3    0    0  0.50489216601E+01  0.33359855715E+02  0.17855353817E+03  0.18171333901E+03  0.00000000000E+00 0. -1.
<mgrwt>
<rscale>  0 0.92594097E+02</rscale>
<asrwt>0</asrwt>
<pdfrwt beam="1">  1        1 0.32898224E-01 0.92594097E+02</pdfrwt>
<pdfrwt beam="2">  1       -1 0.15420819E-02 0.92594097E+02</pdfrwt>
<totfact> 0.11509395E+05</totfact>
</mgrwt>
</event>
<event>
 5    1  0.1265228E+001  0.8997967E+02  0.7546771E-02  0.1302901E+00
          3   -1    0    0  501    0  0.00000000000E+00  0.00000000000E+00  0.84234621567E+02  0.84234621567E+02  0.00000000000E+00 0. -1.
         -3   -1    0    0    0  501 -0.00000000000E+00 -0.00000000000E+00 -0.24029135489E+02  0.24029135489E+02  0.00000000000E+00 0.  1.
         23    2    1    2    0    0  0.00000000000E+00  0.00000000000E+00  0.60205486078E+02  0.10826375706E+03  0.89979667359E+02 0.  0.
        -11    1    3    3    0    0 -0.61397894110E+01  0.29771162831E+02 -0.98041648719E+01  0.31939643066E+02  0.00000000000E+00 0.  1.
         11    1    3    3    0    0  0.61397894110E+01 -0.29771162831E+02  0.70009650949E+02  0.76324113990E+02  0.00000000000E+00 0. -1.
<mgrwt>
<rscale>  0 0.89979667E+02</rscale>
<asrwt>0</asrwt>
<pdfrwt beam="1">  1        3 0.12959172E-01 0.89979667E+02</pdfrwt>
<pdfrwt beam="2">  1       -3 0.36967901E-02 0.89979667E+02</pdfrwt>
<totfact> 0.35312858E+04</totfact>
</mgrwt>
</event>
<event>
 5    1  0.1265228E+001  0.9168368E+02  0.7546771E-02  0.1298825E+00
         -1   -1    0    0    0  501 -0.00000000000E+00  0.00000000000E+00  0.27723685293E+02  0.27723685293E+02  0.00000000000E+00 0.  1.
          1   -1    0    0  501    0  0.00000000000E+00 -0.00000000000E+00 -0.75800681326E+02  0.75800681326E+02  0.00000000000E+00 0. -1.
         23    2    1    2    0    0  0.00000000000E+00  0.00000000000E+00 -0.48076996034E+02  0.10352436662E+03  0.91683678679E+02 0.  0.
        -13    1    3    3    0    0 -0.49350870949E+01 -0.35546751239E+02  0.81678916102E+01  0.36805448804E+02  0.00000000000E+00 0.  1.
         13    1    3    3    0    0  0.49350870949E+01  0.35546751239E+02 -0.56244887644E+02  0.66718917815E+02  0.00000000000E+00 0. -1.
<mgrwt>
<rscale>  0 0.91683679E+02</rscale>
<asrwt>0</asrwt>
<pdfrwt beam="2">  1        1 0.11661643E-01 0.91683679E+02</pdfrwt>
<pdfrwt beam="1">  1       -1 0.42651824E-02 0.91683679E+02</pdfrwt>
<totfact> 0.98381468E+04</totfact>
</mgrwt>
</event>
<event>
 5    1  0.1265228E+001  0.9035981E+02  0.7546771E-02  0.1301983E+00
         -2   -1    0    0    0  501 -0.00000000000E+00  0.00000000000E+00  0.40219038767E+02  0.40219038767E+02  0.00000000000E+00 0. -1.
          2   -1    0    0  501    0  0.00000000000E+00 -0.00000000000E+00 -0.50752678868E+02  0.50752678868E+02  0.00000000000E+00 0.  1.
         23    2    1    2    0    0  0.00000000000E+00  0.00000000000E+00 -0.10533640101E+02  0.90971717635E+02  0.90359813167E+02 0.  0.
        -11    1    3    3    0    0  0.26746133726E+02 -0.18082984884E+02  0.26552171654E+02  0.41801529053E+02  0.00000000000E+00 0. -1.
         11    1    3    3    0    0 -0.26746133726E+02  0.18082984884E+02 -0.37085811755E+02  0.49170188582E+02  0.00000000000E+00 0.  1.
<mgrwt>
<rscale>  0 0.90359813E+02</rscale>
<asrwt>0</asrwt>
<pdfrwt beam="2">  1        2 0.78081045E-02 0.90359813E+02</pdfrwt>
<pdfrwt beam="1">  1       -2 0.61875444E-02 0.90359813E+02</pdfrwt>
<totfact> 0.10410551E+05</totfact>
</mgrwt>
</event>
<event>
 5    1  0.1265228E+001  0.9006734E+02  0.7546771E-02  0.1302689E+00
          1   -1    0    0  501    0  0.00000000000E+00  0.00000000000E+00  0.18354872593E+03  0.18354872593E+03  0.00000000000E+00 0. -1.
         -1   -1    0    0    0  501 -0.00000000000E+00 -0.00000000000E+00 -0.11049007347E+02  0.11049007347E+02  0.00000000000E+00 0.  1.
         23    2    1    2    0    0  0.00000000000E+00  0.00000000000E+00  0.17249971858E+03  0.19459773327E+03  0.90067335282E+02 0.  0.
        -13    1    3    3    0    0  0.36058757252E+02  0.25224934143E+01  0.28217684193E+02  0.45856675074E+02  0.00000000000E+00 0.  1.
         13    1    3    3    0    0 -0.36058757252E+02 -0.25224934143E+01  0.14428203439E+03  0.14874105820E+03  0.00000000000E+00 0. -1.
<mgrwt>
<rscale>  0 0.90067335E+02</rscale>
<asrwt>0</asrwt>
<pdfrwt beam="1">  1        1 0.28238263E-01 0.90067335E+02</pdfrwt>
<pdfrwt beam="2">  1       -1 0.16998474E-02 0.90067335E+02</pdfrwt>
<totfact> 0.12034960E+05</totfact>
</mgrwt>
</event>
<event>
 5    1  0.1265228E+001  0.9857594E+02  0.7546771E-02  0.1283319E+00
         -3   -1    0    0    0  501 -0.00000000000E+00  0.00000000000E+00  0.17907012595E+03  0.17907012595E+03  0.00000000000E+00 0.  1.
          3   -1    0    0  501    0  0.00000000000E+00 -0.00000000000E+00 -0.13566214699E+02  0.13566214699E+02  0.00000000000E+00 0. -1.
         23    2    1    2    0    0  0.00000000000E+00  0.00000000000E+00  0.16550391125E+03  0.19263634065E+03  0.98575935701E+02 0.  0.
        -11    1    3    3    0    0  0.48952128157E+02 -0.47836721881E+01  0.76538544514E+02  0.90979905292E+02  0.00000000000E+00 0. -1.
         11    1    3    3    0    0 -0.48952128157E+02  0.47836721881E+01  0.88965366736E+02  0.10165643536E+03  0.00000000000E+00 0.  1.
<mgrwt>
<rscale>  0 0.98575936E+02</rscale>
<asrwt>0</asrwt>
<pdfrwt beam="2">  1        3 0.20871101E-02 0.98575936E+02</pdfrwt>
<pdfrwt beam="1">  1       -3 0.27549249E-01 0.98575936E+02</pdfrwt>
<totfact> 0.23369579E+04</totfact>
</mgrwt>
</event>
<event>
 5    1  0.1265228E+001  0.1036417E+03  0.7546771E-02  0.1272819E+00
          1   -1    0    0  501    0  0.00000000000E+00  0.00000000000E+00  0.10206326304E+03  0.10206326304E+03  0.00000000000E+00 0. -1.
         -1   -1    0    0    0  501 -0.00000000000E+00 -0.00000000000E+00 -0.26311135265E+02  0.26311135265E+02  0.00000000000E+00 0.  1.
         23    2    1    2    0    0  0.00000000000E+00  0.00000000000E+00  0.75752127771E+02  0.12837439830E+03  0.10364169661E+03 0.  0.
        -13    1    3    3    0    0  0.16900292369E+02 -0.46891859121E+02  0.55433884451E+02  0.74547849595E+02  0.00000000000E+00 0. -1.
         13    1    3    3    0    0 -0.16900292369E+02  0.46891859121E+02  0.20318243321E+02  0.53826548706E+02  0.00000000000E+00 0.  1.
<mgrwt>
<rscale>  0 0.10364170E+03</rscale>
<asrwt>0</asrwt>
<pdfrwt beam="1">  1        1 0.15702040E-01 0.10364170E+03</pdfrwt>
<pdfrwt beam="2">  1       -1 0.40478670E-02 0.10364170E+03</pdfrwt>
<totfact> 0.73691868E+04</totfact>
</mgrwt>
</event>
<event>
 5    1  0.1265228E+001  0.9456930E+02  0.7546771E-02  0.1292149E+00
         -1   -1    0    0    0  501 -0.00000000000E+00  0.00000000000E+00  0.94064854211E+02  0.94064854211E+02  0.00000000000E+00 0.  1.
          1   -1    0    0  501    0  0.00000000000E+00 -0.00000000000E+00 -0.23769111075E+02  0.23769111075E+02  0.00000000000E+00 0. -1.
         23    2    1    2    0    0  0.00000000000E+00  0.00000000000E+00  0.70295743136E+02  0.11783396529E+03  0.94569296667E+02 0.  0.
        -11    1    3    3    0    0  0.39393396015E+02 -0.80093986074E+01  0.41263651247E+01  0.40410605103E+02  0.00000000000E+00 0. -1.
         11    1    3    3    0    0 -0.39393396015E+02  0.80093986074E+01  0.66169378011E+02  0.77423360183E+02  0.00000000000E+00 0.  1.
<mgrwt>
<rscale>  0 0.94569297E+02</rscale>
<asrwt>0</asrwt>
<pdfrwt beam="2">  1        1 0.36567864E-02 0.94569297E+02</pdfrwt>
<pdfrwt beam="1">  1       -1 0.14471516E-01 0.94569297E+02</pdfrwt>
<totfact> 0.74900837E+04</totfact>
</mgrwt>
</event>
<event>
 5    1  0.1265228E+001  0.9087980E+02  0.7546771E-02  0.1300735E+00
          2   -1    0    0  501    0  0.00000000000E+00  0.00000000000E+00  0.29087758282E+03  0.29087758282E+03  0.00000000000E+00 0. -1.
         -2   -1    0    0    0  501 -0.00000000000E+00 -0.00000000000E+00 -0.70984659985E+01  0.70984659985E+01  0.00000000000E+00 0.  1.
         23    2    1    2    0    0  0.00000000000E+00  0.00000000000E+00  0.28377911683E+03  0.29797604882E+03  0.90879802628E+02 0.  0.
        -11    1    3    3    0    0  0.22009357795E+02  0.34606225310E+02  0.20603853304E+03  0.21008065060E+03  0.00000000000E+00 0. -1.
         11    1    3    3    0    0 -0.22009357795E+02 -0.34606225310E+02  0.77740583789E+02  0.87895398222E+02  0.00000000000E+00 0.  1.
<mgrwt>
<rscale>  0 0.90879803E+02</rscale>
<asrwt>0</asrwt>
<pdfrwt beam="1">  1        2 0.44750388E-01 0.90879803E+02</pdfrwt>
<pdfrwt beam="2">  1       -2 0.10920719E-02 0.90879803E+02</pdfrwt>
<totfact> 0.17915826E+05</totfact>
</mgrwt>
</event>
<event>
 5    1  0.1265228E+001  0.9161449E+02  0.7546771E-02  0.1298988E+00
         -1   -1    0    0    0  501 -0.00000000000E+00  0.00000000000E+00  0.58900259145E+02  0.58900259145E+02  0.00000000000E+00 0.  1.
          1   -1    0    0  501    0  0.00000000000E+00 -0.00000000000E+00 -0.35624692245E+02  0.35624692245E+02  0.00000000000E+00 0. -1.
         23    2    1    2    0    0  0.00000000000E+00  0.00000000000E+00  0.23275566901E+02  0.94524951390E+02  0.91614488051E+02 0.  0.
        -11    1    3    3    0    0  0.37173669182E+02 -0.23791284747E+02  0.24291014830E+02  0.50378172970E+02  0.00000000000E+00 0.  1.
         11    1    3    3    0    0 -0.37173669182E+02  0.23791284747E+02 -0.10154479294E+01  0.44146778420E+02  0.00000000000E+00 0. -1.
<mgrwt>
<rscale>  0 0.91614488E+02</rscale>
<asrwt>0</asrwt>
<pdfrwt beam="2">  1        1 0.54807219E-02 0.91614488E+02</pdfrwt>
<pdfrwt beam="1">  1       -1 0.90615783E-02 0.91614488E+02</pdfrwt>
<totfact> 0.87862326E+04</totfact>
</mgrwt>
</event>
<event>
 5    1  0.1265228E+001  0.9050524E+02  0.7546771E-02  0.1301633E+00
         -2   -1    0    0    0  501 -0.00000000000E+00  0.00000000000E+00  0.42082568858E+02  0.42082568858E+02  0.00000000000E+00 0.  1.
          2   -1    0    0  501    0  0.00000000000E+00 -0.00000000000E+00 -0.48661473753E+02  0.48661473753E+02  0.00000000000E+00 0. -1.
         23    2    1    2    0    0  0.00000000000E+00  0.00000000000E+00 -0.65789048955E+01  0.90744042611E+02  0.90505244487E+02 0.  0.
        -13    1    3    3    0    0  0.24393372394E+02 -0.14568468219E+02  0.32024536474E+02  0.42811771972E+02  0.00000000000E+00 0.  1.
         13    1    3    3    0    0 -0.24393372394E+02  0.14568468219E+02 -0.38603441370E+02  0.47932270639E+02  0.00000000000E+00 0. -1.
<mgrwt>
<rscale>  0 0.90505244E+02</rscale>
<asrwt>0</asrwt>
<pdfrwt beam="2">  1        2 0.74863806E-02 0.90505244E+02</pdfrwt>
<pdfrwt beam="1">  1       -2 0.64742413E-02 0.90505244E+02</pdfrwt>
<totfact> 0.10250326E+05</totfact>
</mgrwt>
</event>
<event>
 5    1  0.1265228E+001  0.9240181E+02  0.7546771E-02  0.1297137E+00
         -2   -1    0    0    0  501 -0.00000000000E+00  0.00000000000E+00  0.66666030350E+02  0.66666030350E+02  0.00000000000E+00 0.  1.
          2   -1    0    0  501    0  0.00000000000E+00 -0.00000000000E+00 -0.32018159732E+02  0.32018159732E+02  0.00000000000E+00 0. -1.
         23    2    1    2    0    0  0.00000000000E+00  0.00000000000E+00  0.34647870617E+02  0.98684190082E+02  0.92401809689E+02 0.  0.
        -11    1    3    3    0    0 -0.46051572273E+01  0.44927450404E+02  0.69232095537E+01  0.45690415881E+02  0.00000000000E+00 0.  1.
         11    1    3    3    0    0  0.46051572273E+01 -0.44927450404E+02  0.27724661064E+02  0.52993774200E+02  0.00000000000E+00 0. -1.
<mgrwt>
<rscale>  0 0.92401810E+02</rscale>
<asrwt>0</asrwt>
<pdfrwt beam="2">  1        2 0.49258707E-02 0.92401810E+02</pdfrwt>
<pdfrwt beam="1">  1       -2 0.10256312E-01 0.92401810E+02</pdfrwt>
<totfact> 0.86524535E+04</totfact>
</mgrwt>
</event>
<event>
 5    1  0.1265228E+001  0.7977147E+02  0.7546771E-02  0.1329701E+00
          1   -1    0    0  501    0  0.00000000000E+00  0.00000000000E+00  0.12291039575E+03  0.12291039575E+03  0.00000000000E+00 0. -1.
         -1   -1    0    0    0  501 -0.00000000000E+00 -0.00000000000E+00 -0.12943345776E+02  0.12943345776E+02  0.00000000000E+00 0.  1.
         23    2    1    2    0    0  0.00000000000E+00  0.00000000000E+00  0.10996704998E+03  0.13585374153E+03  0.79771467372E+02 0.  0.
        -13    1    3    3    0    0  0.36537615831E+02  0.10754498611E+02  0.75149604678E+02  0.84250339431E+02  0.00000000000E+00 0.  1.
         13    1    3    3    0    0 -0.36537615831E+02 -0.10754498611E+02  0.34817445301E+02  0.51603402099E+02  0.00000000000E+00 0. -1.
<mgrwt>
<rscale>  0 0.79771467E+02</rscale>
<asrwt>0</asrwt>
<pdfrwt beam="1">  1        1 0.18909291E-01 0.79771467E+02</pdfrwt>
<pdfrwt beam="2">  1       -1 0.19912840E-02 0.79771467E+02</pdfrwt>
<totfact> 0.15493345E+05</totfact>
</mgrwt>
</event>
<event>
 5    1  0.1265228E+001  0.9088726E+02  0.7546771E-02  0.1300717E+00
          2   -1    0    0  501    0  0.00000000000E+00  0.00000000000E+00  0.97829201299E+02  0.97829201299E+02  0.00000000000E+00 0.  1.
         -2   -1    0    0    0  501 -0.00000000000E+00 -0.00000000000E+00 -0.21109479553E+02  0.21109479553E+02  0.00000000000E+00 0. -1.
         23    2    1    2    0    0  0.00000000000E+00  0.00000000000E+00  0.76719721746E+02  0.11893868085E+03  0.90887260372E+02 0.  0.
        -13    1    3    3    0    0  0.90333750607E+01 -0.29635947972E+02  0.81865632793E+02  0.87532126158E+02  0.00000000000E+00 0.  1.
         13    1    3    3    0    0 -0.90333750607E+01  0.29635947972E+02 -0.51459110466E+01  0.31406554693E+02  0.00000000000E+00 0. -1.
<mgrwt>
<rscale>  0 0.90887260E+02</rscale>
<asrwt>0</asrwt>
<pdfrwt beam="1">  1        2 0.15050646E-01 0.90887260E+02</pdfrwt>
<pdfrwt beam="2">  1       -2 0.32476123E-02 0.90887260E+02</pdfrwt>
<totfact> 0.12293414E+05</totfact>
</mgrwt>
</event>
<event>
 5    1  0.1265228E+001  0.9388370E+02  0.7546771E-02  0.1293710E+00
         -2   -1    0    0    0  501 -0.00000000000E+00  0.00000000000E+00  0.18524389414E+03  0.18524389414E+03  0.00000000000E+00 0. -1.
          2   -1    0    0  501    0  0.00000000000E+00 -0.00000000000E+00 -0.11895329029E+02  0.11895329029E+02  0.00000000000E+00 0.  1.
         23    2    1    2    0    0  0.00000000000E+00  0.00000000000E+00  0.17334856511E+03  0.19713922317E+03  0.93883695528E+02 0.  0.
        -11    1    3    3    0    0  0.44763012770E+02 -0.83750220637E+01  0.62763127741E+02  0.77544042392E+02  0.00000000000E+00 0.  1.
         11    1    3    3    0    0 -0.44763012770E+02  0.83750220637E+01  0.11058543737E+03  0.11959518078E+03  0.00000000000E+00 0. -1.
<mgrwt>
<rscale>  0 0.93883696E+02</rscale>
<asrwt>0</asrwt>
<pdfrwt beam="2">  1        2 0.18300507E-02 0.93883696E+02</pdfrwt>
<pdfrwt beam="1">  1       -2 0.28499059E-01 0.93883696E+02</pdfrwt>
<totfact> 0.59742558E+04</totfact>
</mgrwt>
</event>
<event>
 5    1  0.1265228E+001  0.8263649E+02  0.7546771E-02  0.1321732E+00
         -4   -1    0    0    0  501 -0.00000000000E+00  0.00000000000E+00  0.29876064181E+02  0.29876064181E+02  0.00000000000E+00 0. -1.
          4   -1    0    0  501    0  0.00000000000E+00 -0.00000000000E+00 -0.57142643472E+02  0.57142643472E+02  0.00000000000E+00 0.  1.
         23    2    1    2    0    0  0.00000000000E+00  0.00000000000E+00 -0.27266579291E+02  0.87018707653E+02  0.82636487918E+02 0.  0.
        -13    1    3    3    0    0  0.30773090369E+01  0.24802483355E+02 -0.48280448155E+02  0.54365749195E+02  0.00000000000E+00 0.  1.
         13    1    3    3    0    0 -0.30773090369E+01 -0.24802483355E+02  0.21013868863E+02  0.32652958459E+02  0.00000000000E+00 0. -1.
<mgrwt>
<rscale>  0 0.82636488E+02</rscale>
<asrwt>0</asrwt>
<pdfrwt beam="2">  1        4 0.87911759E-02 0.82636488E+02</pdfrwt>
<pdfrwt beam="1">  1       -4 0.45963176E-02 0.82636488E+02</pdfrwt>
<totfact> 0.35565787E+04</totfact>
</mgrwt>
</event>
<event>
 5    1  0.1265228E+001  0.8993221E+02  0.7546771E-02  0.1303016E+00
          3   -1    0    0  501    0  0.00000000000E+00  0.00000000000E+00  0.29783429074E+03  0.29783429074E+03  0.00000000000E+00 0.  1.
         -3   -1    0    0    0  501 -0.00000000000E+00 -0.00000000000E+00 -0.67888438151E+01  0.67888438151E+01  0.00000000000E+00 0. -1.
         23    2    1    2    0    0  0.00000000000E+00  0.00000000000E+00  0.29104544693E+03  0.30462313456E+03  0.89932207415E+02 0.  0.
        -11    1    3    3    0    0  0.34284516031E+02  0.16207322325E+02  0.22736853632E+03  0.23050934177E+03  0.00000000000E+00 0.  1.
         11    1    3    3    0    0 -0.34284516031E+02 -0.16207322325E+02  0.63676910611E+02  0.74113792788E+02  0.00000000000E+00 0. -1.
<mgrwt>
<rscale>  0 0.89932207E+02</rscale>
<asrwt>0</asrwt>
<pdfrwt beam="1">  1        3 0.45820650E-01 0.89932207E+02</pdfrwt>
<pdfrwt beam="2">  1       -3 0.10444377E-02 0.89932207E+02</pdfrwt>
<totfact> 0.24747948E+04</totfact>
</mgrwt>
</event>
<event>
 5    1  0.1265228E+001  0.9179127E+02  0.7546771E-02  0.1298571E+00
         -1   -1    0    0    0  501 -0.00000000000E+00  0.00000000000E+00  0.15925327165E+03  0.15925327165E+03  0.00000000000E+00 0.  1.
          1   -1    0    0  501    0  0.00000000000E+00 -0.00000000000E+00 -0.13226787613E+02  0.13226787613E+02  0.00000000000E+00 0. -1.
         23    2    1    2    0    0  0.00000000000E+00  0.00000000000E+00  0.14602648404E+03  0.17248005926E+03  0.91791267574E+02 0.  0.
        -13    1    3    3    0    0  0.67279375350E+01  0.34594974062E+02  0.12825630854E+03  0.13301036822E+03  0.00000000000E+00 0.  1.
         13    1    3    3    0    0 -0.67279375350E+01 -0.34594974062E+02  0.17770175499E+02  0.39469691043E+02  0.00000000000E+00 0. -1.
<mgrwt>
<rscale>  0 0.91791268E+02</rscale>
<asrwt>0</asrwt>
<pdfrwt beam="2">  1        1 0.20348905E-02 0.91791268E+02</pdfrwt>
<pdfrwt beam="1">  1       -1 0.24500502E-01 0.91791268E+02</pdfrwt>
<totfact> 0.72450721E+04</totfact>
</mgrwt>
</event>
<event>
 5    1  0.1265228E+001  0.9531719E+02  0.7546771E-02  0.1290463E+00
         -1   -1    0    0    0  501 -0.00000000000E+00  0.00000000000E+00  0.50786905340E+02  0.50786905340E+02  0.00000000000E+00 0.  1.
          1   -1    0    0  501    0  0.00000000000E+00 -0.00000000000E+00 -0.44722982066E+02  0.44722982066E+02  0.00000000000E+00 0. -1.
         23    2    1    2    0    0  0.00000000000E+00  0.00000000000E+00  0.60639232744E+01  0.95509887406E+02  0.95317193763E+02 0.  0.
        -13    1    3    3    0    0 -0.36519117537E+02 -0.20421623126E+02 -0.19831993779E+02  0.46303311048E+02  0.00000000000E+00 0. -1.
         13    1    3    3    0    0  0.36519117537E+02  0.20421623126E+02  0.25895917053E+02  0.49206576358E+02  0.00000000000E+00 0.  1.
<mgrwt>
<rscale>  0 0.95317194E+02</rscale>
<asrwt>0</asrwt>
<pdfrwt beam="2">  1        1 0.68804587E-02 0.95317194E+02</pdfrwt>
<pdfrwt beam="1">  1       -1 0.78133701E-02 0.95317194E+02</pdfrwt>
<totfact> 0.81344302E+04</totfact>
</mgrwt>
</event>
<event>
 5    1  0.1265228E+001  0.9202925E+02  0.7546771E-02  0.1298011E+00
          2   -1    0    0  501    0  0.00000000000E+00  0.00000000000E+00  0.39938829186E+02  0.39938829186E+02  0.00000000000E+00 0. -1.
         -2   -1    0    0    0  501 -0.00000000000E+00 -0.00000000000E+00 -0.53014719089E+02  0.53014719089E+02  0.00000000000E+00 0.  1.
         23    2    1    2    0    0  0.00000000000E+00  0.00000000000E+00 -0.13075889903E+02  0.92953548275E+02  0.92029252090E+02 0.  0.
        -11    1    3    3    0    0  0.14318984843E+02 -0.50631708482E+01 -0.50410086335E+02  0.52648322198E+02  0.00000000000E+00 0.  1.
         11    1    3    3    0    0 -0.14318984843E+02  0.50631708482E+01  0.37334196431E+02  0.40305226077E+02  0.00000000000E+00 0. -1.
<mgrwt>
<rscale>  0 0.92029252E+02</rscale>
<asrwt>0</asrwt>
<pdfrwt beam="1">  1        2 0.61444353E-02 0.92029252E+02</pdfrwt>
<pdfrwt beam="2">  1       -2 0.81561106E-02 0.92029252E+02</pdfrwt>
<totfact> 0.92809578E+04</totfact>
</mgrwt>
</event>
<event>
 5    1  0.1265228E+001  0.9162011E+02  0.7546771E-02  0.1298975E+00
          1   -1    0    0  501    0  0.00000000000E+00  0.00000000000E+00  0.82740081401E+02  0.82740081401E+02  0.00000000000E+00 0. -1.
         -1   -1    0    0    0  501 -0.00000000000E+00 -0.00000000000E+00 -0.25363297305E+02  0.25363297305E+02  0.00000000000E+00 0.  1.
         23    2    1    2    0    0  0.00000000000E+00  0.00000000000E+00  0.57376784095E+02  0.10810337871E+03  0.91620113155E+02 0.  0.
        -11    1    3    3    0    0  0.69393836252E+00  0.29827909676E+02  0.69704023904E+02  0.75821083444E+02  0.00000000000E+00 0. -1.
         11    1    3    3    0    0 -0.69393836252E+00 -0.29827909676E+02 -0.12327239809E+02  0.32282295262E+02  0.00000000000E+00 0.  1.
<mgrwt>
<rscale>  0 0.91620113E+02</rscale>
<asrwt>0</asrwt>
<pdfrwt beam="1">  1        1 0.12729243E-01 0.91620113E+02</pdfrwt>
<pdfrwt beam="2">  1       -1 0.39020458E-02 0.91620113E+02</pdfrwt>
<totfact> 0.99943356E+04</totfact>
</mgrwt>
</event>
<event>
 5    1  0.1265228E+001  0.9041751E+02  0.7546771E-02  0.1301844E+00
          1   -1    0    0  501    0  0.00000000000E+00  0.00000000000E+00  0.15848984602E+02  0.15848984602E+02  0.00000000000E+00 0. -1.
         -1   -1    0    0    0  501 -0.00000000000E+00 -0.00000000000E+00 -0.12895661554E+03  0.12895661554E+03  0.00000000000E+00 0.  1.
         23    2    1    2    0    0  0.00000000000E+00  0.00000000000E+00 -0.11310763094E+03  0.14480560014E+03  0.90417507465E+02 0.  0.
        -11    1    3    3    0    0  0.30073152176E+02  0.19336051821E+02 -0.10086575417E+03  0.10701484825E+03  0.00000000000E+00 0.  1.
         11    1    3    3    0    0 -0.30073152176E+02 -0.19336051821E+02 -0.12241876770E+02  0.37790751893E+02  0.00000000000E+00 0. -1.
<mgrwt>
<rscale>  0 0.90417507E+02</rscale>
<asrwt>0</asrwt>
<pdfrwt beam="1">  1        1 0.24383053E-02 0.90417507E+02</pdfrwt>
<pdfrwt beam="2">  1       -1 0.19839479E-01 0.90417507E+02</pdfrwt>
<totfact> 0.79049732E+04</totfact>
</mgrwt>
</event>
<event>
 5    1  0.1265228E+001  0.8195446E+02  0.7546771E-02  0.1323595E+00
         -3   -1    0    0    0  501 -0.00000000000E+00  0.00000000000E+00  0.15588515102E+03  0.15588515102E+03  0.00000000000E+00 0.  1.
          3   -1    0    0  501    0  0.00000000000E+00 -0.00000000000E+00 -0.10771605386E+02  0.10771605386E+02  0.00000000000E+00 0. -1.
         23    2    1    2    0    0  0.00000000000E+00  0.00000000000E+00  0.14511354563E+03  0.16665675640E+03  0.81954458875E+02 0.  0.
        -13    1    3    3    0    0  0.31008499224E+02 -0.80660875438E+01  0.12450316835E+03  0.12855982156E+03  0.00000000000E+00 0.  1.
         13    1    3    3    0    0 -0.31008499224E+02  0.80660875438E+01  0.20610377286E+02  0.38096934840E+02  0.00000000000E+00 0. -1.
<mgrwt>
<rscale>  0 0.81954459E+02</rscale>
<asrwt>0</asrwt>
<pdfrwt beam="2">  1        3 0.16571702E-02 0.81954459E+02</pdfrwt>
<pdfrwt beam="1">  1       -3 0.23982329E-01 0.81954459E+02</pdfrwt>
<totfact> 0.40366577E+04</totfact>
</mgrwt>
</event>
<event>
 5    1  0.1265228E+001  0.9079052E+02  0.7546771E-02  0.1300949E+00
         -2   -1    0    0    0  501 -0.00000000000E+00  0.00000000000E+00  0.85592191770E+02  0.85592191770E+02  0.00000000000E+00 0. -1.
          2   -1    0    0  501    0  0.00000000000E+00 -0.00000000000E+00 -0.24076138183E+02  0.24076138183E+02  0.00000000000E+00 0.  1.
         23    2    1    2    0    0  0.00000000000E+00  0.00000000000E+00  0.61516053586E+02  0.10966832995E+03  0.90790515726E+02 0.  0.
        -11    1    3    3    0    0  0.16481687219E+02  0.19467465371E+02 -0.14601225849E+02  0.29390883244E+02  0.00000000000E+00 0.  1.
         11    1    3    3    0    0 -0.16481687219E+02 -0.19467465371E+02  0.76117279435E+02  0.80277446709E+02  0.00000000000E+00 0. -1.
<mgrwt>
<rscale>  0 0.90790516E+02</rscale>
<asrwt>0</asrwt>
<pdfrwt beam="2">  1        2 0.37040213E-02 0.90790516E+02</pdfrwt>
<pdfrwt beam="1">  1       -2 0.13168029E-01 0.90790516E+02</pdfrwt>
<totfact> 0.84368424E+04</totfact>
</mgrwt>
</event>
<event>
 5    1  0.1265228E+001  0.8982507E+02  0.7546771E-02  0.1303276E+00
          2   -1    0    0  501    0  0.00000000000E+00  0.00000000000E+00  0.57012927277E+02  0.57012927277E+02  0.00000000000E+00 0. -1.
         -2   -1    0    0    0  501 -0.00000000000E+00 -0.00000000000E+00 -0.35380326173E+02  0.35380326173E+02  0.00000000000E+00 0.  1.
         23    2    1    2    0    0  0.00000000000E+00  0.00000000000E+00  0.21632601105E+02  0.92393253450E+02  0.89825073630E+02 0.  0.
        -11    1    3    3    0    0 -0.30054369270E+02  0.83991193938E+00  0.45134344620E+02  0.54231721608E+02  0.00000000000E+00 0. -1.
         11    1    3    3    0    0  0.30054369270E+02 -0.83991193938E+00 -0.23501743515E+02  0.38161531842E+02  0.00000000000E+00 0.  1.
<mgrwt>
<rscale>  0 0.89825074E+02</rscale>
<asrwt>0</asrwt>
<pdfrwt beam="1">  1        2 0.87712196E-02 0.89825074E+02</pdfrwt>
<pdfrwt beam="2">  1       -2 0.54431271E-02 0.89825074E+02</pdfrwt>
<totfact> 0.10913868E+05</totfact>
</mgrwt>
</event>
<event>
 5    1  0.1265228E+001  0.9057062E+02  0.7546771E-02  0.1301476E+00
         -1   -1    0    0    0  501 -0.00000000000E+00  0.00000000000E+00  0.92237379435E+01  0.92237379435E+01  0.00000000000E+00 0.  1.
          1   -1    0    0  501    0  0.00000000000E+00 -0.00000000000E+00 -0.22233493992E+03  0.22233493992E+03  0.00000000000E+00 0. -1.
         23    2    1    2    0    0  0.00000000000E+00  0.00000000000E+00 -0.21311120198E+03  0.23155867786E+03  0.90570618227E+02 0.  0.
        -11    1    3    3    0    0  0.43056661634E+02  0.33977161007E+01 -0.71749393088E+02  0.83746020766E+02  0.00000000000E+00 0. -1.
         11    1    3    3    0    0 -0.43056661634E+02 -0.33977161007E+01 -0.14136180889E+03  0.14781265710E+03  0.00000000000E+00 0.  1.
<mgrwt>
<rscale>  0 0.90570618E+02</rscale>
<asrwt>0</asrwt>
<pdfrwt beam="2">  1        1 0.34205377E-01 0.90570618E+02</pdfrwt>
<pdfrwt beam="1">  1       -1 0.14190365E-02 0.90570618E+02</pdfrwt>
<totfact> 0.12304835E+05</totfact>
</mgrwt>
</event>
<event>
 5    1  0.1265228E+001  0.9176366E+02  0.7546771E-02  0.1298636E+00
          2   -1    0    0  501    0  0.00000000000E+00  0.00000000000E+00  0.48533060537E+02  0.48533060537E+02  0.00000000000E+00 0. -1.
         -2   -1    0    0    0  501 -0.00000000000E+00 -0.00000000000E+00 -0.43375425009E+02  0.43375425009E+02  0.00000000000E+00 0.  1.
         23    2    1    2    0    0  0.00000000000E+00  0.00000000000E+00  0.51576355280E+01  0.91908485546E+02  0.91763655720E+02 0.  0.
        -13    1    3    3    0    0  0.12011942461E+02 -0.40876787033E+02  0.19633424226E+02  0.46911297431E+02  0.00000000000E+00 0.  1.
         13    1    3    3    0    0 -0.12011942461E+02  0.40876787033E+02 -0.14475788698E+02  0.44997188115E+02  0.00000000000E+00 0. -1.
<mgrwt>
<rscale>  0 0.91763656E+02</rscale>
<asrwt>0</asrwt>
<pdfrwt beam="1">  1        2 0.74666247E-02 0.91763656E+02</pdfrwt>
<pdfrwt beam="2">  1       -2 0.66731423E-02 0.91763656E+02</pdfrwt>
<totfact> 0.98469344E+04</totfact>
</mgrwt>
</event>
<event>
 5    1  0.1265228E+001  0.9219342E+02  0.7546771E-02  0.1297625E+00
          1   -1    0    0  501    0  0.00000000000E+00  0.00000000000E+00  0.44732850812E+02  0.44732850812E+02  0.00000000000E+00 0. -1.
         -1   -1    0    0    0  501 -0.00000000000E+00 -0.00000000000E+00 -0.47502153432E+02  0.47502153432E+02  0.00000000000E+00 0.  1.
         23    2    1    2    0    0  0.00000000000E+00  0.00000000000E+00 -0.27693026196E+01  0.92235004244E+02  0.92193421516E+02 0.  0.
        -11    1    3    3    0    0  0.16555885922E+02  0.39766881309E+02 -0.17805601743E+02  0.46610531655E+02  0.00000000000E+00 0.  1.
         11    1    3    3    0    0 -0.16555885922E+02 -0.39766881309E+02  0.15036299123E+02  0.45624472589E+02  0.00000000000E+00 0. -1.
<mgrwt>
<rscale>  0 0.92193422E+02</rscale>
<asrwt>0</asrwt>
<pdfrwt beam="1">  1        1 0.68819771E-02 0.92193422E+02</pdfrwt>
<pdfrwt beam="2">  1       -1 0.73080236E-02 0.92193422E+02</pdfrwt>
<totfact> 0.89375765E+04</totfact>
</mgrwt>
</event>
<event>
 5    1  0.1265228E+001  0.9106814E+02  0.7546771E-02  0.1300285E+00
         -1   -1    0    0    0  501 -0.00000000000E+00  0.00000000000E+00  0.12462220615E+02  0.12462220615E+02  0.00000000000E+00 0.  1.
          1   -1    0    0  501    0  0.00000000000E+00 -0.00000000000E+00 -0.16637097173E+03  0.16637097173E+03  0.00000000000E+00 0. -1.
         23    2    1    2    0    0  0.00000000000E+00  0.00000000000E+00 -0.15390875111E+03  0.17883319234E+03  0.91068144894E+02 0.  0.
        -11    1    3    3    0    0  0.15694154411E+02 -0.42727802061E+02 -0.74647347004E+02  0.87431104113E+02  0.00000000000E+00 0.  1.
         11    1    3    3    0    0 -0.15694154411E+02  0.42727802061E+02 -0.79261404107E+02  0.91402088229E+02  0.00000000000E+00 0. -1.
<mgrwt>
<rscale>  0 0.91068145E+02</rscale>
<asrwt>0</asrwt>
<pdfrwt beam="2">  1        1 0.25595532E-01 0.91068145E+02</pdfrwt>
<pdfrwt beam="1">  1       -1 0.19172649E-02 0.91068145E+02</pdfrwt>
<totfact> 0.11467890E+05</totfact>
</mgrwt>
</event>
<event>
 5    1  0.1265228E+001  0.9041985E+02  0.7546771E-02  0.1301838E+00
         -2   -1    0    0    0  501 -0.00000000000E+00  0.00000000000E+00  0.27791868103E+02  0.27791868103E+02  0.00000000000E+00 0.  1.
          2   -1    0    0  501    0  0.00000000000E+00 -0.00000000000E+00 -0.73544433124E+02  0.73544433124E+02  0.00000000000E+00 0. -1.
         23    2    1    2    0    0  0.00000000000E+00  0.00000000000E+00 -0.45752565021E+02  0.10133630123E+03  0.90419847049E+02 0.  0.
        -13    1    3    3    0    0 -0.19840195513E+02  0.37535114712E+02 -0.54627454167E+01  0.42806071788E+02  0.00000000000E+00 0.  1.
         13    1    3    3    0    0  0.19840195513E+02 -0.37535114712E+02 -0.40289819604E+02  0.58530229439E+02  0.00000000000E+00 0. -1.
<mgrwt>
<rscale>  0 0.90419847E+02</rscale>
<asrwt>0</asrwt>
<pdfrwt beam="2">  1        2 0.11314528E-01 0.90419847E+02</pdfrwt>
<pdfrwt beam="1">  1       -2 0.42756721E-02 0.90419847E+02</pdfrwt>
<totfact> 0.11478915E+05</totfact>
</mgrwt>
</event>
<event>
 5    1  0.1265228E+001  0.9534224E+02  0.7546771E-02  0.1290407E+00
         -3   -1    0    0    0  501 -0.00000000000E+00  0.00000000000E+00  0.17430124074E+03  0.17430124074E+03  0.00000000000E+00 0.  1.
          3   -1    0    0  501    0  0.00000000000E+00 -0.00000000000E+00 -0.13037976373E+02  0.13037976373E+02  0.00000000000E+00 0. -1.
         23    2    1    2    0    0  0.00000000000E+00  0.00000000000E+00  0.16126326437E+03  0.18733921712E+03  0.95342235311E+02 0.  0.
        -11    1    3    3    0    0 -0.19328947624E+01 -0.43463257056E+02  0.11892197110E+03  0.12663027286E+03  0.00000000000E+00 0. -1.
         11    1    3    3    0    0  0.19328947624E+01  0.43463257056E+02  0.42341293276E+02  0.60708944253E+02  0.00000000000E+00 0.  1.
<mgrwt>
<rscale>  0 0.95342235E+02</rscale>
<asrwt>0</asrwt>
<pdfrwt beam="2">  1        3 0.20058426E-02 0.95342235E+02</pdfrwt>
<pdfrwt beam="1">  1       -3 0.26815574E-01 0.95342235E+02</pdfrwt>
<totfact> 0.25839588E+04</totfact>
</mgrwt>
</event>
<event>
 5    1  0.1265228E+001  0.9070448E+02  0.7546771E-02  0.1301155E+00
         -4   -1    0    0    0  501 -0.00000000000E+00  0.00000000000E+00  0.23158095071E+02  0.23158095071E+02  0.00000000000E+00 0.  1.
          4   -1    0    0  501    0  0.00000000000E+00 -0.00000000000E+00 -0.88816695096E+02  0.88816695096E+02  0.00000000000E+00 0. -1.
         23    2    1    2    0    0  0.00000000000E+00  0.00000000000E+00 -0.65658600025E+02  0.11197479017E+03  0.90704475499E+02 0.  0.
        -13    1    3    3    0    0  0.32394475335E+02  0.17493031768E+02 -0.65524181705E+02  0.75158676018E+02  0.00000000000E+00 0. -1.
         13    1    3    3    0    0 -0.32394475335E+02 -0.17493031768E+02 -0.13441832020E+00  0.36816114148E+02  0.00000000000E+00 0.  1.
<mgrwt>
<rscale>  0 0.90704475E+02</rscale>
<asrwt>0</asrwt>
<pdfrwt beam="2">  1        4 0.13664107E-01 0.90704475E+02</pdfrwt>
<pdfrwt beam="1">  1       -4 0.35627839E-02 0.90704475E+02</pdfrwt>
<totfact> 0.26099732E+04</totfact>
</mgrwt>
</event>
<event>
 5    1  0.1265228E+001  0.9136627E+02  0.7546771E-02  0.1299576E+00
          1   -1    0    0  501    0  0.00000000000E+00  0.00000000000E+00  0.55787270017E+02  0.55787270017E+02  0.00000000000E+00 0. -1.
         -1   -1    0    0    0  501 -0.00000000000E+00 -0.00000000000E+00 -0.37409053190E+02  0.37409053190E+02  0.00000000000E+00 0.  1.
         23    2    1    2    0    0  0.00000000000E+00  0.00000000000E+00  0.18378216827E+02  0.93196323207E+02  0.91366272801E+02 0.  0.
        -13    1    3    3    0    0 -0.16627173956E+02 -0.18167990682E+02  0.48435876365E+02  0.54337582928E+02  0.00000000000E+00 0. -1.
         13    1    3    3    0    0  0.16627173956E+02  0.18167990682E+02 -0.30057659538E+02  0.38858740279E+02  0.00000000000E+00 0.  1.
<mgrwt>
<rscale>  0 0.91366273E+02</rscale>
<asrwt>0</asrwt>
<pdfrwt beam="1">  1        1 0.85826570E-02 0.91366273E+02</pdfrwt>
<pdfrwt beam="2">  1       -1 0.57552389E-02 0.91366273E+02</pdfrwt>
<totfact> 0.94769267E+04</totfact>
</mgrwt>
</event>
<event>
 5    1  0.1265228E+001  0.9043928E+02  0.7546771E-02  0.1301791E+00
          1   -1    0    0  501    0  0.00000000000E+00  0.00000000000E+00  0.15835252223E+03  0.15835252223E+03  0.00000000000E+00 0. -1.
         -1   -1    0    0    0  501 -0.00000000000E+00 -0.00000000000E+00 -0.12913061694E+02  0.12913061694E+02  0.00000000000E+00 0.  1.
         23    2    1    2    0    0  0.00000000000E+00  0.00000000000E+00  0.14543946053E+03  0.17126558392E+03  0.90439281044E+02 0.  0.
        -13    1    3    3    0    0 -0.26483113513E+02 -0.44191955732E+01  0.38155257999E+01  0.27119049172E+02  0.00000000000E+00 0.  1.
         13    1    3    3    0    0  0.26483113513E+02  0.44191955732E+01  0.14162393473E+03  0.14414653475E+03  0.00000000000E+00 0. -1.
<mgrwt>
<rscale>  0 0.90439281E+02</rscale>
<asrwt>0</asrwt>
<pdfrwt beam="1">  1        1 0.24361925E-01 0.90439281E+02</pdfrwt>
<pdfrwt beam="2">  1       -1 0.19866250E-02 0.90439281E+02</pdfrwt>
<totfact> 0.11576524E+05</totfact>
</mgrwt>
</event>
<event>
 5    1  0.1265228E+001  0.8826240E+02  0.7546771E-02  0.1307115E+00
          3   -1    0    0  501    0  0.00000000000E+00  0.00000000000E+00  0.20088383116E+02  0.20088383116E+02  0.00000000000E+00 0. -1.
         -3   -1    0    0    0  501 -0.00000000000E+00 -0.00000000000E+00 -0.96949705440E+02  0.96949705440E+02  0.00000000000E+00 0.  1.
         23    2    1    2    0    0  0.00000000000E+00  0.00000000000E+00 -0.76861322324E+02  0.11703808856E+03  0.88262400280E+02 0.  0.
        -13    1    3    3    0    0  0.51922466925E+01  0.41335751810E+02 -0.57736000529E+02  0.71197258096E+02  0.00000000000E+00 0.  1.
         13    1    3    3    0    0 -0.51922466925E+01 -0.41335751810E+02 -0.19125321795E+02  0.45840830459E+02  0.00000000000E+00 0. -1.
<mgrwt>
<rscale>  0 0.88262400E+02</rscale>
<asrwt>0</asrwt>
<pdfrwt beam="1">  1        3 0.30905205E-02 0.88262400E+02</pdfrwt>
<pdfrwt beam="2">  1       -3 0.14915339E-01 0.88262400E+02</pdfrwt>
<totfact> 0.36527479E+04</totfact>
</mgrwt>
</event>
<event>
 5    1  0.1265228E+001  0.8850398E+02  0.7546771E-02  0.1306515E+00
         -2   -1    0    0    0  501 -0.00000000000E+00  0.00000000000E+00  0.28755258831E+03  0.28755258831E+03  0.00000000000E+00 0. -1.
          2   -1    0    0  501    0  0.00000000000E+00 -0.00000000000E+00 -0.68100198015E+01  0.68100198015E+01  0.00000000000E+00 0.  1.
         23    2    1    2    0    0  0.00000000000E+00  0.00000000000E+00  0.28074256851E+03  0.29436260811E+03  0.88503984551E+02 0.  0.
        -11    1    3    3    0    0 -0.40851691090E+02  0.11137726680E+02  0.18313688731E+03  0.18796815985E+03  0.00000000000E+00 0.  1.
         11    1    3    3    0    0  0.40851691090E+02 -0.11137726680E+02  0.97605681197E+02  0.10639444827E+03  0.00000000000E+00 0. -1.
<mgrwt>
<rscale>  0 0.88503985E+02</rscale>
<asrwt>0</asrwt>
<pdfrwt beam="2">  1        2 0.10476956E-02 0.88503985E+02</pdfrwt>
<pdfrwt beam="1">  1       -2 0.44238850E-01 0.88503985E+02</pdfrwt>
<totfact> 0.56363213E+04</totfact>
</mgrwt>
</event>
<event>
 5    1  0.1265228E+001  0.8704486E+02  0.7546771E-02  0.1310170E+00
         -1   -1    0    0    0  501 -0.00000000000E+00  0.00000000000E+00  0.15530925161E+02  0.15530925161E+02  0.00000000000E+00 0.  1.
          1   -1    0    0  501    0  0.00000000000E+00 -0.00000000000E+00 -0.12196322493E+03  0.12196322493E+03  0.00000000000E+00 0. -1.
         23    2    1    2    0    0  0.00000000000E+00  0.00000000000E+00 -0.10643229977E+03  0.13749415009E+03  0.87044855536E+02 0.  0.
        -13    1    3    3    0    0  0.48668101968E+01 -0.27952630678E+02 -0.10534620844E+03  0.10910022473E+03  0.00000000000E+00 0.  1.
         13    1    3    3    0    0 -0.48668101968E+01  0.27952630678E+02 -0.10860913336E+01  0.28393925366E+02  0.00000000000E+00 0. -1.
<mgrwt>
<rscale>  0 0.87044856E+02</rscale>
<asrwt>0</asrwt>
<pdfrwt beam="2">  1        1 0.18763574E-01 0.87044856E+02</pdfrwt>
<pdfrwt beam="1">  1       -1 0.23893730E-02 0.87044856E+02</pdfrwt>
<totfact> 0.12246359E+05</totfact>
</mgrwt>
</event>
<event>
 5    1  0.1265228E+001  0.9009868E+02  0.7546771E-02  0.1302613E+00
         -2   -1    0    0    0  501 -0.00000000000E+00  0.00000000000E+00  0.17533645959E+02  0.17533645959E+02  0.00000000000E+00 0. -1.
          2   -1    0    0  501    0  0.00000000000E+00 -0.00000000000E+00 -0.11574563854E+03  0.11574563854E+03  0.00000000000E+00 0.  1.
         23    2    1    2    0    0  0.00000000000E+00  0.00000000000E+00 -0.98211992586E+02  0.13327928450E+03  0.90098680290E+02 0.  0.
        -11    1    3    3    0    0 -0.22340196199E+02  0.37813196683E+02 -0.63937059057E+02  0.77568484132E+02  0.00000000000E+00 0.  1.
         11    1    3    3    0    0  0.22340196199E+02 -0.37813196683E+02 -0.34274933529E+02  0.55710800372E+02  0.00000000000E+00 0. -1.
<mgrwt>
<rscale>  0 0.90098680E+02</rscale>
<asrwt>0</asrwt>
<pdfrwt beam="2">  1        2 0.17807022E-01 0.90098680E+02</pdfrwt>
<pdfrwt beam="1">  1       -2 0.26974839E-02 0.90098680E+02</pdfrwt>
<totfact> 0.13262184E+05</totfact>
</mgrwt>
</event>
<event>
 5    1  0.1265228E+001  0.9344556E+02  0.7546771E-02  0.1294716E+00
         -1   -1    0    0    0  501 -0.00000000000E+00  0.00000000000E+00  0.80742800179E+02  0.80742800179E+02  0.00000000000E+00 0.  1.
          1   -1    0    0  501    0  0.00000000000E+00 -0.00000000000E+00 -0.27036693787E+02  0.27036693787E+02  0.00000000000E+00 0. -1.
         23    2    1    2    0    0  0.00000000000E+00  0.00000000000E+00  0.53706106393E+02  0.10777949397E+03  0.93445564131E+02 0.  0.
        -13    1    3    3    0    0 -0.20729799025E+02  0.41853278971E+02  0.25395556540E+02  0.53163482017E+02  0.00000000000E+00 0.  1.
         13    1    3    3    0    0  0.20729799025E+02 -0.41853278971E+02  0.28310549853E+02  0.54616011949E+02  0.00000000000E+00 0. -1.
<mgrwt>
<rscale>  0 0.93445564E+02</rscale>
<asrwt>0</asrwt>
<pdfrwt beam="2">  1        1 0.41594914E-02 0.93445564E+02</pdfrwt>
<pdfrwt beam="1">  1       -1 0.12421969E-01 0.93445564E+02</pdfrwt>
<totfact> 0.79356982E+04</totfact>
</mgrwt>
</event>
<event>
 4    1  0.1265228E+001  0.1311926E+03  0.7546771E-02  0.1225697E+00
          2   -1    0    0  501    0  0.00000000000E+00  0.00000000000E+00  0.34282437964E+03  0.34282437964E+03  0.00000000000E+00 0. -1.
         -2   -1    0    0    0  501 -0.00000000000E+00 -0.00000000000E+00 -0.12551241447E+02  0.12551241447E+02  0.00000000000E+00 0.  1.
        -13    1    1    2    0    0 -0.14786777812E+02 -0.61309681199E+02  0.11627684418E+03  0.13227936460E+03  0.00000000000E+00 0.  1.
         13    1    1    2    0    0  0.14786777812E+02  0.61309681199E+02  0.21399629402E+03  0.22309625649E+03  0.00000000000E+00 0. -1.
<mgrwt>
<rscale>  0 0.13119255E+03</rscale>
<asrwt>0</asrwt>
<pdfrwt beam="1">  1        2 0.52742205E-01 0.13119255E+03</pdfrwt>
<pdfrwt beam="2">  1       -2 0.19309605E-02 0.13119255E+03</pdfrwt>
<totfact> 0.70237906E+04</totfact>
</mgrwt>
</event>
<event>
 5    1  0.1265228E+001  0.9091902E+02  0.7546771E-02  0.1300641E+00
          2   -1    0    0  501    0  0.00000000000E+00  0.00000000000E+00  0.15330869731E+03  0.15330869731E+03  0.00000000000E+00 0. -1.
         -2   -1    0    0    0  501 -0.00000000000E+00 -0.00000000000E+00 -0.13479776407E+02  0.13479776407E+02  0.00000000000E+00 0.  1.
         23    2    1    2    0    0  0.00000000000E+00  0.00000000000E+00  0.13982892090E+03  0.16678847372E+03  0.90919018055E+02 0.  0.
        -11    1    3    3    0    0 -0.29252647999E+02  0.51680614768E+01  0.67877803904E+01  0.30471301860E+02  0.00000000000E+00 0.  1.
         11    1    3    3    0    0  0.29252647999E+02 -0.51680614768E+01  0.13304114051E+03  0.13631717186E+03  0.00000000000E+00 0. -1.
<mgrwt>
<rscale>  0 0.90919018E+02</rscale>
<asrwt>0</asrwt>
<pdfrwt beam="1">  1        2 0.23585952E-01 0.90919018E+02</pdfrwt>
<pdfrwt beam="2">  1       -2 0.20738119E-02 0.90919018E+02</pdfrwt>
<totfact> 0.14193977E+05</totfact>
</mgrwt>
</event>
<event>
 5    1  0.1265228E+001  0.9102009E+02  0.7546771E-02  0.1300400E+00
         -1   -1    0    0    0  501 -0.00000000000E+00  0.00000000000E+00  0.53901164142E+02  0.53901164142E+02  0.00000000000E+00 0.  1.
          1   -1    0    0  501    0  0.00000000000E+00 -0.00000000000E+00 -0.38425218765E+02  0.38425218765E+02  0.00000000000E+00 0. -1.
         23    2    1    2    0    0  0.00000000000E+00  0.00000000000E+00  0.15475945377E+02  0.92326382907E+02  0.91020086219E+02 0.  0.
        -13    1    3    3    0    0  0.14360640234E+02  0.30645596393E+02 -0.23125393169E+02  0.40989808190E+02  0.00000000000E+00 0. -1.
         13    1    3    3    0    0 -0.14360640234E+02 -0.30645596393E+02  0.38601338546E+02  0.51336574717E+02  0.00000000000E+00 0.  1.
<mgrwt>
<rscale>  0 0.91020086E+02</rscale>
<asrwt>0</asrwt>
<pdfrwt beam="2">  1        1 0.59115722E-02 0.91020086E+02</pdfrwt>
<pdfrwt beam="1">  1       -1 0.82924867E-02 0.91020086E+02</pdfrwt>
<totfact> 0.90550733E+04</totfact>
</mgrwt>
</event>
<event>
 5    1  0.1265228E+001  0.8986453E+02  0.7546771E-02  0.1303180E+00
          2   -1    0    0  501    0  0.00000000000E+00  0.00000000000E+00  0.31313749413E+03  0.31313749413E+03  0.00000000000E+00 0.  1.
         -2   -1    0    0    0  501 -0.00000000000E+00 -0.00000000000E+00 -0.64473548638E+01  0.64473548638E+01  0.00000000000E+00 0. -1.
         23    2    1    2    0    0  0.00000000000E+00  0.00000000000E+00  0.30669013927E+03  0.31958484900E+03  0.89864532399E+02 0.  0.
        -11    1    3    3    0    0  0.44529924342E+02  0.37673697943E+01  0.13674005945E+03  0.14385739848E+03  0.00000000000E+00 0.  1.
         11    1    3    3    0    0 -0.44529924342E+02 -0.37673697943E+01  0.16995007982E+03  0.17572745052E+03  0.00000000000E+00 0. -1.
<mgrwt>
<rscale>  0 0.89864532E+02</rscale>
<asrwt>0</asrwt>
<pdfrwt beam="1">  1        2 0.48174987E-01 0.89864532E+02</pdfrwt>
<pdfrwt beam="2">  1       -2 0.99190099E-03 0.89864532E+02</pdfrwt>
<totfact> 0.18973063E+05</totfact>
</mgrwt>
</event>
<event>
 5    1  0.1265228E+001  0.9135909E+02  0.7546771E-02  0.1299593E+00
         -2   -1    0    0    0  501 -0.00000000000E+00  0.00000000000E+00  0.12942948339E+02  0.12942948339E+02  0.00000000000E+00 0.  1.
          2   -1    0    0  501    0  0.00000000000E+00 -0.00000000000E+00 -0.16121681588E+03  0.16121681588E+03  0.00000000000E+00 0. -1.
         23    2    1    2    0    0  0.00000000000E+00  0.00000000000E+00 -0.14827386754E+03  0.17415976422E+03  0.91359091923E+02 0.  0.
        -13    1    3    3    0    0  0.43161059296E+02 -0.99284571187E+01 -0.52809160320E+02  0.68922120643E+02  0.00000000000E+00 0.  1.
         13    1    3    3    0    0 -0.43161059296E+02  0.99284571187E+01 -0.95464707222E+02  0.10523764357E+03  0.00000000000E+00 0. -1.
<mgrwt>
<rscale>  0 0.91359092E+02</rscale>
<asrwt>0</asrwt>
<pdfrwt beam="2">  1        2 0.24802588E-01 0.91359092E+02</pdfrwt>
<pdfrwt beam="1">  1       -2 0.19912227E-02 0.91359092E+02</pdfrwt>
<totfact> 0.14253724E+05</totfact>
</mgrwt>
</event>
<event>
 5    1  0.1265228E+001  0.9165085E+02  0.7546771E-02  0.1298902E+00
          1   -1    0    0  501    0  0.00000000000E+00  0.00000000000E+00  0.14124739186E+02  0.14124739186E+02  0.00000000000E+00 0. -1.
         -1   -1    0    0    0  501 -0.00000000000E+00 -0.00000000000E+00 -0.14867316136E+03  0.14867316136E+03  0.00000000000E+00 0.  1.
         23    2    1    2    0    0  0.00000000000E+00  0.00000000000E+00 -0.13454842217E+03  0.16279790055E+03  0.91650851130E+02 0.  0.
        -13    1    3    3    0    0  0.38955888806E+02 -0.67870155593E+01 -0.26137049307E+02  0.47400107588E+02  0.00000000000E+00 0.  1.
         13    1    3    3    0    0 -0.38955888806E+02  0.67870155593E+01 -0.10841137286E+03  0.11539779296E+03  0.00000000000E+00 0. -1.
<mgrwt>
<rscale>  0 0.91650851E+02</rscale>
<asrwt>0</asrwt>
<pdfrwt beam="1">  1        1 0.21730368E-02 0.91650851E+02</pdfrwt>
<pdfrwt beam="2">  1       -1 0.22872794E-01 0.91650851E+02</pdfrwt>
<totfact> 0.73940992E+04</totfact>
</mgrwt>
</event>
<event>
 5    1  0.1265228E+001  0.9141467E+02  0.7546771E-02  0.1299462E+00
          1   -1    0    0  501    0  0.00000000000E+00  0.00000000000E+00  0.19245491807E+03  0.19245491807E+03  0.00000000000E+00 0. -1.
         -1   -1    0    0    0  501 -0.00000000000E+00 -0.00000000000E+00 -0.10855322968E+02  0.10855322968E+02  0.00000000000E+00 0.  1.
         23    2    1    2    0    0  0.00000000000E+00  0.00000000000E+00  0.18159959511E+03  0.20331024104E+03  0.91414666054E+02 0.  0.
        -13    1    3    3    0    0  0.44885436296E+02 -0.85704731051E+01  0.93029274662E+02  0.10364652114E+03  0.00000000000E+00 0.  1.
         13    1    3    3    0    0 -0.44885436296E+02  0.85704731051E+01  0.88570320444E+02  0.99663719899E+02  0.00000000000E+00 0. -1.
<mgrwt>
<rscale>  0 0.91414666E+02</rscale>
<asrwt>0</asrwt>
<pdfrwt beam="1">  1        1 0.29608446E-01 0.91414666E+02</pdfrwt>
<pdfrwt beam="2">  1       -1 0.16700498E-02 0.91414666E+02</pdfrwt>
<totfact> 0.11670847E+05</totfact>
</mgrwt>
</event>
<event>
 5    1  0.1265228E+001  0.9288053E+02  0.7546771E-02  0.1296022E+00
          3   -1    0    0  501    0  0.00000000000E+00  0.00000000000E+00  0.56180510486E+02  0.56180510486E+02  0.00000000000E+00 0. -1.
         -3   -1    0    0    0  501 -0.00000000000E+00 -0.00000000000E+00 -0.38388722992E+02  0.38388722992E+02  0.00000000000E+00 0.  1.
         23    2    1    2    0    0  0.00000000000E+00  0.00000000000E+00  0.17791787493E+02  0.94569233478E+02  0.92880526584E+02 0.  0.
        -13    1    3    3    0    0  0.36352222755E+02  0.14570536709E+02 -0.16516117685E+02  0.42503726691E+02  0.00000000000E+00 0.  1.
         13    1    3    3    0    0 -0.36352222755E+02 -0.14570536709E+02  0.34307905178E+02  0.52065506787E+02  0.00000000000E+00 0. -1.
<mgrwt>
<rscale>  0 0.92880527E+02</rscale>
<asrwt>0</asrwt>
<pdfrwt beam="1">  1        3 0.86431554E-02 0.92880527E+02</pdfrwt>
<pdfrwt beam="2">  1       -3 0.59059574E-02 0.92880527E+02</pdfrwt>
<totfact> 0.33350324E+04</totfact>
</mgrwt>
</event>
<event>
 5    1  0.1265228E+001  0.9000743E+02  0.7546771E-02  0.1302834E+00
          1   -1    0    0  501    0  0.00000000000E+00  0.00000000000E+00  0.55381942852E+02  0.55381942852E+02  0.00000000000E+00 0. -1.
         -1   -1    0    0    0  501 -0.00000000000E+00 -0.00000000000E+00 -0.36570298352E+02  0.36570298352E+02  0.00000000000E+00 0.  1.
         23    2    1    2    0    0  0.00000000000E+00  0.00000000000E+00  0.18811644500E+02  0.91952241204E+02  0.90007425769E+02 0.  0.
        -11    1    3    3    0    0 -0.15338391587E+02  0.29346055226E+02 -0.21730196012E+02  0.39606295364E+02  0.00000000000E+00 0.  1.
         11    1    3    3    0    0  0.15338391587E+02 -0.29346055226E+02  0.40541840511E+02  0.52345945840E+02  0.00000000000E+00 0. -1.
<mgrwt>
<rscale>  0 0.90007426E+02</rscale>
<asrwt>0</asrwt>
<pdfrwt beam="1">  1        1 0.85202989E-02 0.90007426E+02</pdfrwt>
<pdfrwt beam="2">  1       -1 0.56261997E-02 0.90007426E+02</pdfrwt>
<totfact> 0.98690356E+04</totfact>
</mgrwt>
</event>
<event>
 5    1  0.1265228E+001  0.8962931E+02  0.7546771E-02  0.1303752E+00
         -1   -1    0    0    0  501 -0.00000000000E+00  0.00000000000E+00  0.16511335716E+03  0.16511335716E+03  0.00000000000E+00 0.  1.
          1   -1    0    0  501    0  0.00000000000E+00 -0.00000000000E+00 -0.12163481117E+02  0.12163481117E+02  0.00000000000E+00 0. -1.
         23    2    1    2    0    0  0.00000000000E+00  0.00000000000E+00  0.15294987605E+03  0.17727683828E+03  0.89629307752E+02 0.  0.
        -11    1    3    3    0    0 -0.24455902080E+02  0.16640050259E+02  0.14306171004E+03  0.14608776574E+03  0.00000000000E+00 0.  1.
         11    1    3    3    0    0  0.24455902080E+02 -0.16640050259E+02  0.98881660096E+01  0.31189072544E+02  0.00000000000E+00 0. -1.
<mgrwt>
<rscale>  0 0.89629308E+02</rscale>
<asrwt>0</asrwt>
<pdfrwt beam="2">  1        1 0.18713049E-02 0.89629308E+02</pdfrwt>
<pdfrwt beam="1">  1       -1 0.25402053E-01 0.89629308E+02</pdfrwt>
<totfact> 0.76393868E+04</totfact>
</mgrwt>
</event>
<event>
 5    1  0.1265228E+001  0.9137258E+02  0.7546771E-02  0.1299561E+00
         -1   -1    0    0    0  501 -0.00000000000E+00  0.00000000000E+00  0.21163236100E+02  0.21163236100E+02  0.00000000000E+00 0.  1.
          1   -1    0    0  501    0  0.00000000000E+00 -0.00000000000E+00 -0.98625609723E+02  0.98625609723E+02  0.00000000000E+00 0. -1.
         23    2    1    2    0    0  0.00000000000E+00  0.00000000000E+00 -0.77462373623E+02  0.11978884582E+03  0.91372579347E+02 0.  0.
        -11    1    3    3    0    0 -0.45085433105E+02 -0.11495154922E+00 -0.48411927246E+02  0.66154547779E+02  0.00000000000E+00 0. -1.
         11    1    3    3    0    0  0.45085433105E+02  0.11495154922E+00 -0.29050446376E+02  0.53634298045E+02  0.00000000000E+00 0.  1.
<mgrwt>
<rscale>  0 0.91372579E+02</rscale>
<asrwt>0</asrwt>
<pdfrwt beam="2">  1        1 0.15173170E-01 0.91372579E+02</pdfrwt>
<pdfrwt beam="1">  1       -1 0.32558825E-02 0.91372579E+02</pdfrwt>
<totfact> 0.10360371E+05</totfact>
</mgrwt>
</event>
<event>
 5    1  0.1265228E+001  0.9238938E+02  0.7546771E-02  0.1297166E+00
          3   -1    0    0  501    0  0.00000000000E+00  0.00000000000E+00  0.19778029638E+02  0.19778029638E+02  0.00000000000E+00 0. -1.
         -3   -1    0    0    0  501 -0.00000000000E+00 -0.00000000000E+00 -0.10789494783E+03  0.10789494783E+03  0.00000000000E+00 0.  1.
         23    2    1    2    0    0  0.00000000000E+00  0.00000000000E+00 -0.88116918197E+02  0.12767297747E+03  0.92389381989E+02 0.  0.
        -11    1    3    3    0    0 -0.40660285661E+02 -0.63750013024E-01 -0.74356037942E+02  0.84747172652E+02  0.00000000000E+00 0.  1.
         11    1    3    3    0    0  0.40660285661E+02  0.63750013024E-01 -0.13760880255E+02  0.42925804821E+02  0.00000000000E+00 0. -1.
<mgrwt>
<rscale>  0 0.92389382E+02</rscale>
<asrwt>0</asrwt>
<pdfrwt beam="1">  1        3 0.30427738E-02 0.92389382E+02</pdfrwt>
<pdfrwt beam="2">  1       -3 0.16599223E-01 0.92389382E+02</pdfrwt>
<totfact> 0.31575753E+04</totfact>
</mgrwt>
</event>
<event>
 5    1  0.1265228E+001  0.9083044E+02  0.7546771E-02  0.1300853E+00
          1   -1    0    0  501    0  0.00000000000E+00  0.00000000000E+00  0.68530247023E+02  0.68530247023E+02  0.00000000000E+00 0. -1.
         -1   -1    0    0    0  501 -0.00000000000E+00 -0.00000000000E+00 -0.30096816134E+02  0.30096816134E+02  0.00000000000E+00 0.  1.
         23    2    1    2    0    0  0.00000000000E+00  0.00000000000E+00  0.38433430889E+02  0.98627063157E+02  0.90830440807E+02 0.  0.
        -11    1    3    3    0    0 -0.11036311279E+02 -0.30214073858E+02 -0.15595361412E+02  0.35747807252E+02  0.00000000000E+00 0.  1.
         11    1    3    3    0    0  0.11036311279E+02  0.30214073858E+02  0.54028792301E+02  0.62879255906E+02  0.00000000000E+00 0. -1.
<mgrwt>
<rscale>  0 0.90830441E+02</rscale>
<asrwt>0</asrwt>
<pdfrwt beam="1">  1        1 0.10543115E-01 0.90830441E+02</pdfrwt>
<pdfrwt beam="2">  1       -1 0.46302794E-02 0.90830441E+02</pdfrwt>
<totfact> 0.99383030E+04</totfact>
</mgrwt>
</event>
<event>
 5    1  0.1265228E+001  0.9026538E+02  0.7546771E-02  0.1302210E+00
          3   -1    0    0  501    0  0.00000000000E+00  0.00000000000E+00  0.23397861871E+02  0.23397861871E+02  0.00000000000E+00 0. -1.
         -3   -1    0    0    0  501 -0.00000000000E+00 -0.00000000000E+00 -0.87057523105E+02  0.87057523105E+02  0.00000000000E+00 0.  1.
         23    2    1    2    0    0  0.00000000000E+00  0.00000000000E+00 -0.63659661234E+02  0.11045538498E+03  0.90265384295E+02 0.  0.
        -11    1    3    3    0    0  0.30724031932E+02 -0.31124389501E+02 -0.18188960829E+02  0.47365937719E+02  0.00000000000E+00 0. -1.
         11    1    3    3    0    0 -0.30724031932E+02  0.31124389501E+02 -0.45470700404E+02  0.63089447257E+02  0.00000000000E+00 0.  1.
<mgrwt>
<rscale>  0 0.90265384E+02</rscale>
<asrwt>0</asrwt>
<pdfrwt beam="1">  1        3 0.35996711E-02 0.90265384E+02</pdfrwt>
<pdfrwt beam="2">  1       -3 0.13393465E-01 0.90265384E+02</pdfrwt>
<totfact> 0.34851197E+04</totfact>
</mgrwt>
</event>
<event>
 5    1  0.1265228E+001  0.8993324E+02  0.7546771E-02  0.1303013E+00
         -2   -1    0    0    0  501 -0.00000000000E+00  0.00000000000E+00  0.64474689084E+01  0.64474689084E+01  0.00000000000E+00 0.  1.
          2   -1    0    0  501    0  0.00000000000E+00 -0.00000000000E+00 -0.31361097763E+03  0.31361097763E+03  0.00000000000E+00 0. -1.
         23    2    1    2    0    0  0.00000000000E+00  0.00000000000E+00 -0.30716350873E+03  0.32005844654E+03  0.89933242522E+02 0.  0.
        -11    1    3    3    0    0 -0.42975146381E+02 -0.11672176325E+02 -0.13138696531E+03  0.13872864722E+03  0.00000000000E+00 0.  1.
         11    1    3    3    0    0  0.42975146381E+02  0.11672176325E+02 -0.17577654341E+03  0.18132979932E+03  0.00000000000E+00 0. -1.
<mgrwt>
<rscale>  0 0.89933243E+02</rscale>
<asrwt>0</asrwt>
<pdfrwt beam="2">  1        2 0.48247849E-01 0.89933243E+02</pdfrwt>
<pdfrwt beam="1">  1       -2 0.99191816E-03 0.89933243E+02</pdfrwt>
<totfact> 0.18945132E+05</totfact>
</mgrwt>
</event>
<event>
 5    1  0.1265228E+001  0.9097955E+02  0.7546771E-02  0.1300497E+00
          4   -1    0    0  501    0  0.00000000000E+00  0.00000000000E+00  0.43569022671E+02  0.43569022671E+02  0.00000000000E+00 0. -1.
         -4   -1    0    0    0  501 -0.00000000000E+00 -0.00000000000E+00 -0.47495208662E+02  0.47495208662E+02  0.00000000000E+00 0.  1.
         23    2    1    2    0    0  0.00000000000E+00  0.00000000000E+00 -0.39261859915E+01  0.91064231333E+02  0.90979554251E+02 0.  0.
        -11    1    3    3    0    0  0.18489401953E+02  0.36097249029E+02 -0.22584463298E+02  0.46421195100E+02  0.00000000000E+00 0.  1.
         11    1    3    3    0    0 -0.18489401953E+02 -0.36097249029E+02  0.18658277306E+02  0.44643036233E+02  0.00000000000E+00 0. -1.
<mgrwt>
<rscale>  0 0.90979554E+02</rscale>
<asrwt>0</asrwt>
<pdfrwt beam="1">  1        4 0.67029266E-02 0.90979554E+02</pdfrwt>
<pdfrwt beam="2">  1       -4 0.73069552E-02 0.90979554E+02</pdfrwt>
<totfact> 0.27183016E+04</totfact>
</mgrwt>
</event>
<event>
 5    1  0.1265228E+001  0.9078141E+02  0.7546771E-02  0.1300970E+00
          3   -1    0    0  501    0  0.00000000000E+00  0.00000000000E+00  0.69317839940E+02  0.69317839940E+02  0.00000000000E+00 0. -1.
         -3   -1    0    0    0  501 -0.00000000000E+00 -0.00000000000E+00 -0.29722737328E+02  0.29722737328E+02  0.00000000000E+00 0.  1.
         23    2    1    2    0    0  0.00000000000E+00  0.00000000000E+00  0.39595102612E+02  0.99040577268E+02  0.90781406657E+02 0.  0.
        -11    1    3    3    0    0 -0.39762560572E+01 -0.42774445864E+02  0.38061664909E+01  0.43127146145E+02  0.00000000000E+00 0.  1.
         11    1    3    3    0    0  0.39762560572E+01  0.42774445864E+02  0.35788936122E+02  0.55913431123E+02  0.00000000000E+00 0. -1.
<mgrwt>
<rscale>  0 0.90781407E+02</rscale>
<asrwt>0</asrwt>
<pdfrwt beam="1">  1        3 0.10664283E-01 0.90781407E+02</pdfrwt>
<pdfrwt beam="2">  1       -3 0.45727288E-02 0.90781407E+02</pdfrwt>
<totfact> 0.35155473E+04</totfact>
</mgrwt>
</event>
<event>
 5    1  0.1265228E+001  0.9216494E+02  0.7546771E-02  0.1297692E+00
         -2   -1    0    0    0  501 -0.00000000000E+00  0.00000000000E+00  0.15108313852E+03  0.15108313852E+03  0.00000000000E+00 0.  1.
          2   -1    0    0  501    0  0.00000000000E+00 -0.00000000000E+00 -0.14055798373E+02  0.14055798373E+02  0.00000000000E+00 0. -1.
         23    2    1    2    0    0  0.00000000000E+00  0.00000000000E+00  0.13702734014E+03  0.16513893689E+03  0.92164941982E+02 0.  0.
        -11    1    3    3    0    0  0.36014882417E+02 -0.23272919541E+02  0.98756684156E+02  0.10766421506E+03  0.00000000000E+00 0.  1.
         11    1    3    3    0    0 -0.36014882417E+02  0.23272919541E+02  0.38270655988E+02  0.57474721828E+02  0.00000000000E+00 0. -1.
<mgrwt>
<rscale>  0 0.92164942E+02</rscale>
<asrwt>0</asrwt>
<pdfrwt beam="2">  1        2 0.21624306E-02 0.92164942E+02</pdfrwt>
<pdfrwt beam="1">  1       -2 0.23243559E-01 0.92164942E+02</pdfrwt>
<totfact> 0.67795556E+04</totfact>
</mgrwt>
</event>
<event>
 5    1  0.1265228E+001  0.1014986E+03  0.7546771E-02  0.1277176E+00
         -1   -1    0    0    0  501 -0.00000000000E+00  0.00000000000E+00  0.61097413455E+02  0.61097413455E+02  0.00000000000E+00 0.  1.
          1   -1    0    0  501    0  0.00000000000E+00 -0.00000000000E+00 -0.42153856351E+02  0.42153856351E+02  0.00000000000E+00 0. -1.
         23    2    1    2    0    0  0.00000000000E+00  0.00000000000E+00  0.18943557104E+02  0.10325126981E+03  0.10149860275E+03 0.  0.
        -13    1    3    3    0    0  0.10162270667E+01 -0.46460005033E+02  0.30218228504E+02  0.55431995446E+02  0.00000000000E+00 0.  1.
         13    1    3    3    0    0 -0.10162270667E+01  0.46460005033E+02 -0.11274671401E+02  0.47819274360E+02  0.00000000000E+00 0. -1.
<mgrwt>
<rscale>  0 0.10149860E+03</rscale>
<asrwt>0</asrwt>
<pdfrwt beam="2">  1        1 0.64852087E-02 0.10149860E+03</pdfrwt>
<pdfrwt beam="1">  1       -1 0.93996021E-02 0.10149860E+03</pdfrwt>
<totfact> 0.67352405E+04</totfact>
</mgrwt>
</event>
<event>
 5    1  0.1265228E+001  0.9138300E+02  0.7546771E-02  0.1299537E+00
         -4   -1    0    0    0  501 -0.00000000000E+00  0.00000000000E+00  0.11638938205E+02  0.11638938205E+02  0.00000000000E+00 0.  1.
          4   -1    0    0  501    0  0.00000000000E+00 -0.00000000000E+00 -0.17937316260E+03  0.17937316260E+03  0.00000000000E+00 0. -1.
         23    2    1    2    0    0  0.00000000000E+00  0.00000000000E+00 -0.16773422440E+03  0.19101210081E+03  0.91382999628E+02 0.  0.
        -13    1    3    3    0    0 -0.40591145892E+02  0.15600110927E+02 -0.54550950289E+02  0.69762531227E+02  0.00000000000E+00 0. -1.
         13    1    3    3    0    0  0.40591145892E+02 -0.15600110927E+02 -0.11318327411E+03  0.12124956958E+03  0.00000000000E+00 0.  1.
<mgrwt>
<rscale>  0 0.91383000E+02</rscale>
<asrwt>0</asrwt>
<pdfrwt beam="2">  1        4 0.27595869E-01 0.91383000E+02</pdfrwt>
<pdfrwt beam="1">  1       -4 0.17906060E-02 0.91383000E+02</pdfrwt>
<totfact> 0.21636021E+04</totfact>
</mgrwt>
</event>
<event>
 5    1  0.1265228E+001  0.9035879E+02  0.7546771E-02  0.1301985E+00
         -3   -1    0    0    0  501 -0.00000000000E+00  0.00000000000E+00  0.54721350918E+02  0.54721350918E+02  0.00000000000E+00 0.  1.
          3   -1    0    0  501    0  0.00000000000E+00 -0.00000000000E+00 -0.37301302122E+02  0.37301302122E+02  0.00000000000E+00 0. -1.
         23    2    1    2    0    0  0.00000000000E+00  0.00000000000E+00  0.17420048796E+02  0.92022653040E+02  0.90358788020E+02 0.  0.
        -13    1    3    3    0    0  0.36796441204E+02  0.26114945356E+02  0.63856326673E+01  0.45571315109E+02  0.00000000000E+00 0.  1.
         13    1    3    3    0    0 -0.36796441204E+02 -0.26114945356E+02  0.11034416129E+02  0.46451337931E+02  0.00000000000E+00 0. -1.
<mgrwt>
<rscale>  0 0.90358788E+02</rscale>
<asrwt>0</asrwt>
<pdfrwt beam="2">  1        3 0.57386619E-02 0.90358788E+02</pdfrwt>
<pdfrwt beam="1">  1       -3 0.84186694E-02 0.90358788E+02</pdfrwt>
<totfact> 0.36149730E+04</totfact>
</mgrwt>
</event>
<event>
 5    1  0.1265228E+001  0.9223073E+02  0.7546771E-02  0.1297538E+00
          1   -1    0    0  501    0  0.00000000000E+00  0.00000000000E+00  0.18690538953E+03  0.18690538953E+03  0.00000000000E+00 0. -1.
         -1   -1    0    0    0  501 -0.00000000000E+00 -0.00000000000E+00 -0.11378092246E+02  0.11378092246E+02  0.00000000000E+00 0.  1.
         23    2    1    2    0    0  0.00000000000E+00  0.00000000000E+00  0.17552729728E+03  0.19828348177E+03  0.92230727274E+02 0.  0.
        -13    1    3    3    0    0 -0.29508013224E+02  0.34837199535E+02  0.10174163900E+03  0.11151553444E+03  0.00000000000E+00 0. -1.
         13    1    3    3    0    0  0.29508013224E+02 -0.34837199535E+02  0.73785658282E+02  0.86767947330E+02  0.00000000000E+00 0.  1.
<mgrwt>
<rscale>  0 0.92230727E+02</rscale>
<asrwt>0</asrwt>
<pdfrwt beam="1">  1        1 0.28754673E-01 0.92230727E+02</pdfrwt>
<pdfrwt beam="2">  1       -1 0.17504759E-02 0.92230727E+02</pdfrwt>
<totfact> 0.11331067E+05</totfact>
</mgrwt>
</event>
<event>
 5    1  0.1265228E+001  0.9142128E+02  0.7546771E-02  0.1299446E+00
         -1   -1    0    0    0  501 -0.00000000000E+00  0.00000000000E+00  0.48296598644E+02  0.48296598644E+02  0.00000000000E+00 0.  1.
          1   -1    0    0  501    0  0.00000000000E+00 -0.00000000000E+00 -0.43263145516E+02  0.43263145516E+02  0.00000000000E+00 0. -1.
         23    2    1    2    0    0  0.00000000000E+00  0.00000000000E+00  0.50334531276E+01  0.91559744160E+02  0.91421283628E+02 0.  0.
        -11    1    3    3    0    0 -0.21395581390E+02 -0.39302790055E+02  0.11857296213E+02  0.46293365427E+02  0.00000000000E+00 0. -1.
         11    1    3    3    0    0  0.21395581390E+02  0.39302790055E+02 -0.68238430858E+01  0.45266378732E+02  0.00000000000E+00 0.  1.
<mgrwt>
<rscale>  0 0.91421284E+02</rscale>
<asrwt>0</asrwt>
<pdfrwt beam="2">  1        1 0.66558685E-02 0.91421284E+02</pdfrwt>
<pdfrwt beam="1">  1       -1 0.74302460E-02 0.91421284E+02</pdfrwt>
<totfact> 0.91056755E+04</totfact>
</mgrwt>
</event>
<event>
 5    1  0.1265228E+001  0.9009893E+02  0.7546771E-02  0.1302612E+00
          1   -1    0    0  501    0  0.00000000000E+00  0.00000000000E+00  0.48882412895E+01  0.48882412895E+01  0.00000000000E+00 0. -1.
         -1   -1    0    0    0  501 -0.00000000000E+00 -0.00000000000E+00 -0.41517064073E+03  0.41517064073E+03  0.00000000000E+00 0.  1.
         23    2    1    2    0    0  0.00000000000E+00  0.00000000000E+00 -0.41028239944E+03  0.42005888202E+03  0.90098929366E+02 0.  0.
        -11    1    3    3    0    0 -0.43805496573E+02  0.10381342609E+02 -0.19739512693E+03  0.20246365091E+03  0.00000000000E+00 0. -1.
         11    1    3    3    0    0  0.43805496573E+02 -0.10381342609E+02 -0.21288727251E+03  0.21759523111E+03  0.00000000000E+00 0.  1.
<mgrwt>
<rscale>  0 0.90098929E+02</rscale>
<asrwt>0</asrwt>
<pdfrwt beam="1">  1        1 0.75203679E-03 0.90098929E+02</pdfrwt>
<pdfrwt beam="2">  1       -1 0.63872434E-01 0.90098929E+02</pdfrwt>
<totfact> 0.53934377E+04</totfact>
</mgrwt>
</event>
<event>
 5    1  0.1265228E+001  0.8922810E+02  0.7546771E-02  0.1304732E+00
          2   -1    0    0  501    0  0.00000000000E+00  0.00000000000E+00  0.14492998995E+02  0.14492998995E+02  0.00000000000E+00 0. -1.
         -2   -1    0    0    0  501 -0.00000000000E+00 -0.00000000000E+00 -0.13733621834E+03  0.13733621834E+03  0.00000000000E+00 0.  1.
         23    2    1    2    0    0  0.00000000000E+00  0.00000000000E+00 -0.12284321934E+03  0.15182921733E+03  0.89228104863E+02 0.  0.
        -13    1    3    3    0    0 -0.26969902600E+02 -0.91220000705E+01 -0.11986869735E+03  0.12320345424E+03  0.00000000000E+00 0.  1.
         13    1    3    3    0    0  0.26969902600E+02  0.91220000705E+01 -0.29745219888E+01  0.28625763092E+02  0.00000000000E+00 0. -1.
<mgrwt>
<rscale>  0 0.89228105E+02</rscale>
<asrwt>0</asrwt>
<pdfrwt beam="1">  1        2 0.22296922E-02 0.89228105E+02</pdfrwt>
<pdfrwt beam="2">  1       -2 0.21128649E-01 0.89228105E+02</pdfrwt>
<totfact> 0.76116407E+04</totfact>
</mgrwt>
</event>
<event>
 5    1  0.1265228E+001  0.9541382E+02  0.7546771E-02  0.1290247E+00
          1   -1    0    0  501    0  0.00000000000E+00  0.00000000000E+00  0.21706319774E+03  0.21706319774E+03  0.00000000000E+00 0. -1.
         -1   -1    0    0    0  501 -0.00000000000E+00 -0.00000000000E+00 -0.10485192512E+02  0.10485192512E+02  0.00000000000E+00 0.  1.
         23    2    1    2    0    0  0.00000000000E+00  0.00000000000E+00  0.20657800522E+03  0.22754839025E+03  0.95413823224E+02 0.  0.
        -11    1    3    3    0    0  0.39750786655E+02 -0.12218670305E+02  0.15904208270E+03  0.16438918764E+03  0.00000000000E+00 0. -1.
         11    1    3    3    0    0 -0.39750786655E+02  0.12218670305E+02  0.47535922520E+02  0.63159202604E+02  0.00000000000E+00 0.  1.
<mgrwt>
<rscale>  0 0.95413823E+02</rscale>
<asrwt>0</asrwt>
<pdfrwt beam="1">  1        1 0.33394335E-01 0.95413823E+02</pdfrwt>
<pdfrwt beam="2">  1       -1 0.16131067E-02 0.95413823E+02</pdfrwt>
<totfact> 0.10648762E+05</totfact>
</mgrwt>
</event>
<event>
 5    1  0.1265228E+001  0.8690808E+02  0.7546771E-02  0.1310517E+00
         -2   -1    0    0    0  501 -0.00000000000E+00  0.00000000000E+00  0.61342447939E+01  0.61342447939E+01  0.00000000000E+00 0. -1.
          2   -1    0    0  501    0  0.00000000000E+00 -0.00000000000E+00 -0.30782169561E+03  0.30782169561E+03  0.00000000000E+00 0.  1.
         23    2    1    2    0    0  0.00000000000E+00  0.00000000000E+00 -0.30168745081E+03  0.31395594040E+03  0.86908080953E+02 0.  0.
        -13    1    3    3    0    0 -0.34295066212E+02  0.26277820893E+02 -0.13406279197E+03  0.14085278708E+03  0.00000000000E+00 0. -1.
         13    1    3    3    0    0  0.34295066212E+02 -0.26277820893E+02 -0.16762465884E+03  0.17310315332E+03  0.00000000000E+00 0.  1.
<mgrwt>
<rscale>  0 0.86908081E+02</rscale>
<asrwt>0</asrwt>
<pdfrwt beam="2">  1        2 0.47357177E-01 0.86908081E+02</pdfrwt>
<pdfrwt beam="1">  1       -2 0.94373011E-03 0.86908081E+02</pdfrwt>
<totfact> 0.20604931E+05</totfact>
</mgrwt>
</event>
<event>
 5    1  0.1265228E+001  0.8853557E+02  0.7546771E-02  0.1306437E+00
         -3   -1    0    0    0  501 -0.00000000000E+00  0.00000000000E+00  0.25994908372E+02  0.25994908372E+02  0.00000000000E+00 0.  1.
          3   -1    0    0  501    0  0.00000000000E+00 -0.00000000000E+00 -0.75385416461E+02  0.75385416461E+02  0.00000000000E+00 0. -1.
         23    2    1    2    0    0  0.00000000000E+00  0.00000000000E+00 -0.49390508089E+02  0.10138032483E+03  0.88535574623E+02 0.  0.
        -13    1    3    3    0    0  0.16151071807E+02  0.31962981952E+02  0.51020902012E+01  0.36173480067E+02  0.00000000000E+00 0.  1.
         13    1    3    3    0    0 -0.16151071807E+02 -0.31962981952E+02 -0.54492598290E+02  0.65206844765E+02  0.00000000000E+00 0. -1.
<mgrwt>
<rscale>  0 0.88535575E+02</rscale>
<asrwt>0</asrwt>
<pdfrwt beam="2">  1        3 0.11597756E-01 0.88535575E+02</pdfrwt>
<pdfrwt beam="1">  1       -3 0.39992168E-02 0.88535575E+02</pdfrwt>
<totfact> 0.37438223E+04</totfact>
</mgrwt>
</event>
<event>
 5    1  0.1265228E+001  0.9122026E+02  0.7546771E-02  0.1299923E+00
         -1   -1    0    0    0  501 -0.00000000000E+00  0.00000000000E+00  0.81643633698E+01  0.81643633698E+01  0.00000000000E+00 0.  1.
          1   -1    0    0  501    0  0.00000000000E+00 -0.00000000000E+00 -0.25480049033E+03  0.25480049033E+03  0.00000000000E+00 0. -1.
         23    2    1    2    0    0  0.00000000000E+00  0.00000000000E+00 -0.24663612696E+03  0.26296485370E+03  0.91220256299E+02 0.  0.
        -11    1    3    3    0    0  0.13611605217E+02 -0.42636952419E+02 -0.14863019791E+03  0.15522281159E+03  0.00000000000E+00 0. -1.
         11    1    3    3    0    0 -0.13611605217E+02  0.42636952419E+02 -0.98005929046E+02  0.10774204210E+03  0.00000000000E+00 0.  1.
<mgrwt>
<rscale>  0 0.91220256E+02</rscale>
<asrwt>0</asrwt>
<pdfrwt beam="2">  1        1 0.39200079E-01 0.91220256E+02</pdfrwt>
<pdfrwt beam="1">  1       -1 0.12560558E-02 0.91220256E+02</pdfrwt>
<totfact> 0.12397074E+05</totfact>
</mgrwt>
</event>
<event>
 5    1  0.1265228E+001  0.9419399E+02  0.7546771E-02  0.1293002E+00
         -1   -1    0    0    0  501 -0.00000000000E+00  0.00000000000E+00  0.25338642814E+02  0.25338642814E+02  0.00000000000E+00 0.  1.
          1   -1    0    0  501    0  0.00000000000E+00 -0.00000000000E+00 -0.87539300912E+02  0.87539300912E+02  0.00000000000E+00 0. -1.
         23    2    1    2    0    0  0.00000000000E+00  0.00000000000E+00 -0.62200658098E+02  0.11287794373E+03  0.94193992973E+02 0.  0.
        -11    1    3    3    0    0 -0.30653895944E+02 -0.27464982482E+02 -0.36650278522E+01  0.41320927246E+02  0.00000000000E+00 0.  1.
         11    1    3    3    0    0  0.30653895944E+02  0.27464982482E+02 -0.58535630246E+02  0.71557016481E+02  0.00000000000E+00 0. -1.
<mgrwt>
<rscale>  0 0.94193993E+02</rscale>
<asrwt>0</asrwt>
<pdfrwt beam="2">  1        1 0.13467585E-01 0.94193993E+02</pdfrwt>
<pdfrwt beam="1">  1       -1 0.38982527E-02 0.94193993E+02</pdfrwt>
<totfact> 0.93463423E+04</totfact>
</mgrwt>
</event>
<event>
 5    1  0.1265228E+001  0.9188976E+02  0.7546771E-02  0.1298339E+00
          1   -1    0    0  501    0  0.00000000000E+00  0.00000000000E+00  0.66957036834E+01  0.66957036834E+01  0.00000000000E+00 0. -1.
         -1   -1    0    0    0  501 -0.00000000000E+00 -0.00000000000E+00 -0.31526664888E+03  0.31526664888E+03  0.00000000000E+00 0.  1.
         23    2    1    2    0    0  0.00000000000E+00  0.00000000000E+00 -0.30857094520E+03  0.32196235256E+03  0.91889761392E+02 0.  0.
        -13    1    3    3    0    0 -0.41049955569E+02 -0.55048393244E+00 -0.82007967913E+02  0.91709915963E+02  0.00000000000E+00 0.  1.
         13    1    3    3    0    0  0.41049955569E+02  0.55048393244E+00 -0.22656297728E+03  0.23025243660E+03  0.00000000000E+00 0. -1.
<mgrwt>
<rscale>  0 0.91889761E+02</rscale>
<asrwt>0</asrwt>
<pdfrwt beam="1">  1        1 0.10301084E-02 0.91889761E+02</pdfrwt>
<pdfrwt beam="2">  1       -1 0.48502556E-01 0.91889761E+02</pdfrwt>
<totfact> 0.58190747E+04</totfact>
</mgrwt>
</event>
<event>
 5    1  0.1265228E+001  0.9227008E+02  0.7546771E-02  0.1297446E+00
          1   -1    0    0  501    0  0.00000000000E+00  0.00000000000E+00  0.17965081252E+02  0.17965081252E+02  0.00000000000E+00 0. -1.
         -1   -1    0    0    0  501 -0.00000000000E+00 -0.00000000000E+00 -0.11847660755E+03  0.11847660755E+03  0.00000000000E+00 0.  1.
         23    2    1    2    0    0  0.00000000000E+00  0.00000000000E+00 -0.10051152630E+03  0.13644168880E+03  0.92270079248E+02 0.  0.
        -13    1    3    3    0    0 -0.40621391357E+02 -0.18113426083E+02 -0.32130225799E+02  0.54868434004E+02  0.00000000000E+00 0.  1.
         13    1    3    3    0    0  0.40621391357E+02  0.18113426083E+02 -0.68381300503E+02  0.81573254800E+02  0.00000000000E+00 0. -1.
<mgrwt>
<rscale>  0 0.92270079E+02</rscale>
<asrwt>0</asrwt>
<pdfrwt beam="1">  1        1 0.27638587E-02 0.92270079E+02</pdfrwt>
<pdfrwt beam="2">  1       -1 0.18227170E-01 0.92270079E+02</pdfrwt>
<totfact> 0.76344128E+04</totfact>
</mgrwt>
</event>
<event>
 5    1  0.1265228E+001  0.9187946E+02  0.7546771E-02  0.1298363E+00
         -2   -1    0    0    0  501 -0.00000000000E+00  0.00000000000E+00  0.77343300189E+02  0.77343300189E+02  0.00000000000E+00 0.  1.
          2   -1    0    0  501    0  0.00000000000E+00 -0.00000000000E+00 -0.27286896086E+02  0.27286896086E+02  0.00000000000E+00 0. -1.
         23    2    1    2    0    0  0.00000000000E+00  0.00000000000E+00  0.50056404103E+02  0.10463019627E+03  0.91879455706E+02 0.  0.
        -13    1    3    3    0    0  0.69863344951E+01 -0.20299158221E+02  0.71279843192E+02  0.74442465970E+02  0.00000000000E+00 0.  1.
         13    1    3    3    0    0 -0.69863344951E+01  0.20299158221E+02 -0.21223439090E+02  0.30187730305E+02  0.00000000000E+00 0. -1.
<mgrwt>
<rscale>  0 0.91879456E+02</rscale>
<asrwt>0</asrwt>
<pdfrwt beam="2">  1        2 0.41979840E-02 0.91879456E+02</pdfrwt>
<pdfrwt beam="1">  1       -2 0.11898969E-01 0.91879456E+02</pdfrwt>
<totfact> 0.84269961E+04</totfact>
</mgrwt>
</event>
<event>
 5    1  0.1265228E+001  0.8950967E+02  0.7546771E-02  0.1304043E+00
          4   -1    0    0  501    0  0.00000000000E+00  0.00000000000E+00  0.35362588656E+02  0.35362588656E+02  0.00000000000E+00 0.  1.
         -4   -1    0    0    0  501 -0.00000000000E+00 -0.00000000000E+00 -0.56641644781E+02  0.56641644781E+02  0.00000000000E+00 0. -1.
         23    2    1    2    0    0  0.00000000000E+00  0.00000000000E+00 -0.21279056125E+02  0.92004233437E+02  0.89509668421E+02 0.  0.
        -11    1    3    3    0    0 -0.23826618380E+02 -0.30159304272E+02 -0.34206751762E+02  0.51452825421E+02  0.00000000000E+00 0. -1.
         11    1    3    3    0    0  0.23826618380E+02  0.30159304272E+02  0.12927695637E+02  0.40551408017E+02  0.00000000000E+00 0.  1.
<mgrwt>
<rscale>  0 0.89509668E+02</rscale>
<asrwt>0</asrwt>
<pdfrwt beam="1">  1        4 0.54403983E-02 0.89509668E+02</pdfrwt>
<pdfrwt beam="2">  1       -4 0.87140991E-02 0.89509668E+02</pdfrwt>
<totfact> 0.28343840E+04</totfact>
</mgrwt>
</event>
<event>
 5    1  0.1265228E+001  0.8927724E+02  0.7546771E-02  0.1304611E+00
         -1   -1    0    0    0  501 -0.00000000000E+00  0.00000000000E+00  0.40598461797E+02  0.40598461797E+02  0.00000000000E+00 0.  1.
          1   -1    0    0  501    0  0.00000000000E+00 -0.00000000000E+00 -0.49080836962E+02  0.49080836962E+02  0.00000000000E+00 0. -1.
         23    2    1    2    0    0  0.00000000000E+00  0.00000000000E+00 -0.84823751653E+01  0.89679298759E+02  0.89277241990E+02 0.  0.
        -13    1    3    3    0    0 -0.13432625280E+02 -0.30987158713E+02 -0.33561111537E+02  0.47612893576E+02  0.00000000000E+00 0. -1.
         13    1    3    3    0    0  0.13432625280E+02  0.30987158713E+02  0.25078736372E+02  0.42066405183E+02  0.00000000000E+00 0.  1.
<mgrwt>
<rscale>  0 0.89277242E+02</rscale>
<asrwt>0</asrwt>
<pdfrwt beam="2">  1        1 0.75508980E-02 0.89277242E+02</pdfrwt>
<pdfrwt beam="1">  1       -1 0.62459172E-02 0.89277242E+02</pdfrwt>
<totfact> 0.99161182E+04</totfact>
</mgrwt>
</event>
<event>
 5    1  0.1265228E+001  0.9095976E+02  0.7546771E-02  0.1300544E+00
          1   -1    0    0  501    0  0.00000000000E+00  0.00000000000E+00  0.11878210627E+02  0.11878210627E+02  0.00000000000E+00 0. -1.
         -1   -1    0    0    0  501 -0.00000000000E+00 -0.00000000000E+00 -0.17413561875E+03  0.17413561875E+03  0.00000000000E+00 0.  1.
         23    2    1    2    0    0  0.00000000000E+00  0.00000000000E+00 -0.16225740813E+03  0.18601382938E+03  0.90959761591E+02 0.  0.
        -13    1    3    3    0    0  0.17195097470E+01 -0.36412082524E+02 -0.25512524786E+02  0.44493655598E+02  0.00000000000E+00 0. -1.
         13    1    3    3    0    0 -0.17195097470E+01  0.36412082524E+02 -0.13674488334E+03  0.14152017378E+03  0.00000000000E+00 0.  1.
<mgrwt>
<rscale>  0 0.90959762E+02</rscale>
<asrwt>0</asrwt>
<pdfrwt beam="1">  1        1 0.18274173E-02 0.90959762E+02</pdfrwt>
<pdfrwt beam="2">  1       -1 0.26790092E-01 0.90959762E+02</pdfrwt>
<totfact> 0.72540804E+04</totfact>
</mgrwt>
</event>
<event>
 5    1  0.1265228E+001  0.9202518E+02  0.7546771E-02  0.1298020E+00
         -4   -1    0    0    0  501 -0.00000000000E+00  0.00000000000E+00  0.16982315109E+03  0.16982315109E+03  0.00000000000E+00 0.  1.
          4   -1    0    0  501    0  0.00000000000E+00 -0.00000000000E+00 -0.12466841182E+02  0.12466841182E+02  0.00000000000E+00 0. -1.
         23    2    1    2    0    0  0.00000000000E+00  0.00000000000E+00  0.15735630990E+03  0.18228999227E+03  0.92025175983E+02 0.  0.
        -11    1    3    3    0    0  0.39594094875E+02 -0.21890159771E+02  0.62071082279E+02  0.76809444075E+02  0.00000000000E+00 0. -1.
         11    1    3    3    0    0 -0.39594094875E+02  0.21890159771E+02  0.95285227623E+02  0.10548054819E+03  0.00000000000E+00 0.  1.
<mgrwt>
<rscale>  0 0.92025176E+02</rscale>
<asrwt>0</asrwt>
<pdfrwt beam="2">  1        4 0.19179757E-02 0.92025176E+02</pdfrwt>
<pdfrwt beam="1">  1       -4 0.26126637E-01 0.92025176E+02</pdfrwt>
<totfact> 0.21604608E+04</totfact>
</mgrwt>
</event>
<event>
 5    1  0.1265228E+001  0.9108655E+02  0.7546771E-02  0.1300242E+00
          3   -1    0    0  501    0  0.00000000000E+00  0.00000000000E+00  0.43873045057E+01  0.43873045057E+01  0.00000000000E+00 0. -1.
         -3   -1    0    0    0  501 -0.00000000000E+00 -0.00000000000E+00 -0.47277094619E+03  0.47277094619E+03  0.00000000000E+00 0.  1.
         23    2    1    2    0    0  0.00000000000E+00  0.00000000000E+00 -0.46838364168E+03  0.47715825069E+03  0.91086554493E+02 0.  0.
        -11    1    3    3    0    0  0.40219620819E+02  0.21142137673E+02 -0.25040772580E+03  0.25449683107E+03  0.00000000000E+00 0.  1.
         11    1    3    3    0    0 -0.40219620819E+02 -0.21142137673E+02 -0.21797591588E+03  0.22266141963E+03  0.00000000000E+00 0. -1.
<mgrwt>
<rscale>  0 0.91086554E+02</rscale>
<asrwt>0</asrwt>
<pdfrwt beam="1">  1        3 0.67497007E-03 0.91086554E+02</pdfrwt>
<pdfrwt beam="2">  1       -3 0.72733976E-01 0.91086554E+02</pdfrwt>
<totfact> 0.18507706E+04</totfact>
</mgrwt>
</event>
<event>
 5    1  0.1265228E+001  0.8890262E+02  0.7546771E-02  0.1305531E+00
          1   -1    0    0  501    0  0.00000000000E+00  0.00000000000E+00  0.92745758503E+02  0.92745758503E+02  0.00000000000E+00 0. -1.
         -1   -1    0    0    0  501 -0.00000000000E+00 -0.00000000000E+00 -0.21304684030E+02  0.21304684030E+02  0.00000000000E+00 0.  1.
         23    2    1    2    0    0  0.00000000000E+00  0.00000000000E+00  0.71441074472E+02  0.11405044253E+03  0.88902622685E+02 0.  0.
        -13    1    3    3    0    0 -0.16657347088E+02  0.41146715359E+02  0.32739505882E+02  0.55157906434E+02  0.00000000000E+00 0.  1.
         13    1    3    3    0    0  0.16657347088E+02 -0.41146715359E+02  0.38701568590E+02  0.58892536099E+02  0.00000000000E+00 0. -1.
<mgrwt>
<rscale>  0 0.88902623E+02</rscale>
<asrwt>0</asrwt>
<pdfrwt beam="1">  1        1 0.14268578E-01 0.88902623E+02</pdfrwt>
<pdfrwt beam="2">  1       -1 0.32776437E-02 0.88902623E+02</pdfrwt>
<totfact> 0.11051561E+05</totfact>
</mgrwt>
</event>
<event>
 5    1  0.1265228E+001  0.9408271E+02  0.7546771E-02  0.1293256E+00
         -1   -1    0    0    0  501 -0.00000000000E+00  0.00000000000E+00  0.17934727954E+03  0.17934727954E+03  0.00000000000E+00 0.  1.
          1   -1    0    0  501    0  0.00000000000E+00 -0.00000000000E+00 -0.12338570457E+02  0.12338570457E+02  0.00000000000E+00 0. -1.
         23    2    1    2    0    0  0.00000000000E+00  0.00000000000E+00  0.16700870908E+03  0.19168585000E+03  0.94082709247E+02 0.  0.
        -13    1    3    3    0    0  0.45947772208E+02 -0.85063036138E+01  0.94539204256E+02  0.10545717668E+03  0.00000000000E+00 0.  1.
         13    1    3    3    0    0 -0.45947772208E+02  0.85063036138E+01  0.72469504826E+02  0.86228673315E+02  0.00000000000E+00 0. -1.
<mgrwt>
<rscale>  0 0.94082709E+02</rscale>
<asrwt>0</asrwt>
<pdfrwt beam="2">  1        1 0.18982417E-02 0.94082709E+02</pdfrwt>
<pdfrwt beam="1">  1       -1 0.27591887E-01 0.94082709E+02</pdfrwt>
<totfact> 0.65921610E+04</totfact>
</mgrwt>
</event>
<event>
 5    1  0.1265228E+001  0.8995413E+02  0.7546771E-02  0.1302963E+00
         -1   -1    0    0    0  501 -0.00000000000E+00  0.00000000000E+00  0.10737593318E+02  0.10737593318E+02  0.00000000000E+00 0.  1.
          1   -1    0    0  501    0  0.00000000000E+00 -0.00000000000E+00 -0.18839757536E+03  0.18839757536E+03  0.00000000000E+00 0. -1.
         23    2    1    2    0    0  0.00000000000E+00  0.00000000000E+00 -0.17765998204E+03  0.19913516868E+03  0.89954133787E+02 0.  0.
        -11    1    3    3    0    0  0.34800981549E+02 -0.12424288879E+02 -0.14559271786E+03  0.15020889043E+03  0.00000000000E+00 0. -1.
         11    1    3    3    0    0 -0.34800981549E+02  0.12424288879E+02 -0.32067264182E+02  0.48926278247E+02  0.00000000000E+00 0.  1.
<mgrwt>
<rscale>  0 0.89954134E+02</rscale>
<asrwt>0</asrwt>
<pdfrwt beam="2">  1        1 0.28984246E-01 0.89954134E+02</pdfrwt>
<pdfrwt beam="1">  1       -1 0.16519373E-02 0.89954134E+02</pdfrwt>
<totfact> 0.12136059E+05</totfact>
</mgrwt>
</event>
<event>
 5    1  0.1265228E+001  0.9284094E+02  0.7546771E-02  0.1296114E+00
          1   -1    0    0  501    0  0.00000000000E+00  0.00000000000E+00  0.49398477718E+02  0.49398477718E+02  0.00000000000E+00 0. -1.
         -1   -1    0    0    0  501 -0.00000000000E+00 -0.00000000000E+00 -0.43621996729E+02  0.43621996729E+02  0.00000000000E+00 0.  1.
         23    2    1    2    0    0  0.00000000000E+00  0.00000000000E+00  0.57764809892E+01  0.93020474447E+02  0.92840944274E+02 0.  0.
        -11    1    3    3    0    0  0.79893631068E+01  0.27879914663E+02 -0.33427409646E+02  0.44255070671E+02  0.00000000000E+00 0.  1.
         11    1    3    3    0    0 -0.79893631068E+01 -0.27879914663E+02  0.39203890635E+02  0.48765403776E+02  0.00000000000E+00 0. -1.
<mgrwt>
<rscale>  0 0.92840944E+02</rscale>
<asrwt>0</asrwt>
<pdfrwt beam="1">  1        1 0.75997658E-02 0.92840944E+02</pdfrwt>
<pdfrwt beam="2">  1       -1 0.67110764E-02 0.92840944E+02</pdfrwt>
<totfact> 0.88966305E+04</totfact>
</mgrwt>
</event>
<event>
 5    1  0.1265228E+001  0.8939611E+02  0.7546771E-02  0.1304321E+00
          1   -1    0    0  501    0  0.00000000000E+00  0.00000000000E+00  0.95837282584E+02  0.95837282584E+02  0.00000000000E+00 0. -1.
         -1   -1    0    0    0  501 -0.00000000000E+00 -0.00000000000E+00 -0.20846959886E+02  0.20846959886E+02  0.00000000000E+00 0.  1.
         23    2    1    2    0    0  0.00000000000E+00  0.00000000000E+00  0.74990322698E+02  0.11668424247E+03  0.89396106975E+02 0.  0.
        -13    1    3    3    0    0  0.19072817803E+02  0.13372529452E+02 -0.12298345473E+02  0.26340960959E+02  0.00000000000E+00 0.  1.
         13    1    3    3    0    0 -0.19072817803E+02 -0.13372529452E+02  0.87288668171E+02  0.90343281510E+02  0.00000000000E+00 0. -1.
<mgrwt>
<rscale>  0 0.89396107E+02</rscale>
<asrwt>0</asrwt>
<pdfrwt beam="1">  1        1 0.14744197E-01 0.89396107E+02</pdfrwt>
<pdfrwt beam="2">  1       -1 0.32072246E-02 0.89396107E+02</pdfrwt>
<totfact> 0.10944422E+05</totfact>
</mgrwt>
</event>
<event>
 5    1  0.1265228E+001  0.8064487E+02  0.7546771E-02  0.1327231E+00
         -2   -1    0    0    0  501 -0.00000000000E+00  0.00000000000E+00  0.13929423832E+02  0.13929423832E+02  0.00000000000E+00 0. -1.
          2   -1    0    0  501    0  0.00000000000E+00 -0.00000000000E+00 -0.11672405423E+03  0.11672405423E+03  0.00000000000E+00 0.  1.
         23    2    1    2    0    0  0.00000000000E+00  0.00000000000E+00 -0.10279463040E+03  0.13065347807E+03  0.80644871452E+02 0.  0.
        -13    1    3    3    0    0  0.30817025279E+02  0.22051523434E+02 -0.73725454924E+02  0.82893916764E+02  0.00000000000E+00 0.  1.
         13    1    3    3    0    0 -0.30817025279E+02 -0.22051523434E+02 -0.29069175478E+02  0.47759561302E+02  0.00000000000E+00 0. -1.
<mgrwt>
<rscale>  0 0.80644871E+02</rscale>
<asrwt>0</asrwt>
<pdfrwt beam="2">  1        2 0.17957547E-01 0.80644871E+02</pdfrwt>
<pdfrwt beam="1">  1       -2 0.21429883E-02 0.80644871E+02</pdfrwt>
<totfact> 0.17957111E+05</totfact>
</mgrwt>
</event>
<event>
 5    1  0.1265228E+001  0.9219708E+02  0.7546771E-02  0.1297617E+00
         -1   -1    0    0    0  501 -0.00000000000E+00  0.00000000000E+00  0.69498772811E+02  0.69498772811E+02  0.00000000000E+00 0.  1.
          1   -1    0    0  501    0  0.00000000000E+00 -0.00000000000E+00 -0.30577161954E+02  0.30577161954E+02  0.00000000000E+00 0. -1.
         23    2    1    2    0    0  0.00000000000E+00  0.00000000000E+00  0.38921610857E+02  0.10007593477E+03  0.92197076567E+02 0.  0.
        -11    1    3    3    0    0  0.66034344488E+01 -0.35055613538E+02  0.51154911535E+02  0.62364463930E+02  0.00000000000E+00 0. -1.
         11    1    3    3    0    0 -0.66034344488E+01  0.35055613538E+02 -0.12233300679E+02  0.37711470835E+02  0.00000000000E+00 0.  1.
<mgrwt>
<rscale>  0 0.92197077E+02</rscale>
<asrwt>0</asrwt>
<pdfrwt beam="2">  1        1 0.47041788E-02 0.92197077E+02</pdfrwt>
<pdfrwt beam="1">  1       -1 0.10692119E-01 0.92197077E+02</pdfrwt>
<totfact> 0.84214453E+04</totfact>
</mgrwt>
</event>
<event>
 5    1  0.1265228E+001  0.9163765E+02  0.7546771E-02  0.1298934E+00
         -1   -1    0    0    0  501 -0.00000000000E+00  0.00000000000E+00  0.19950562321E+03  0.19950562321E+03  0.00000000000E+00 0.  1.
          1   -1    0    0  501    0  0.00000000000E+00 -0.00000000000E+00 -0.10522835921E+02  0.10522835921E+02  0.00000000000E+00 0. -1.
         23    2    1    2    0    0  0.00000000000E+00  0.00000000000E+00  0.18898278729E+03  0.21002845913E+03  0.91637654670E+02 0.  0.
        -13    1    3    3    0    0  0.12227670384E+02  0.43849549309E+02  0.82567542473E+02  0.94285194848E+02  0.00000000000E+00 0. -1.
         13    1    3    3    0    0 -0.12227670384E+02 -0.43849549309E+02  0.10641524481E+03  0.11574326428E+03  0.00000000000E+00 0.  1.
<mgrwt>
<rscale>  0 0.91637655E+02</rscale>
<asrwt>0</asrwt>
<pdfrwt beam="2">  1        1 0.16188980E-02 0.91637655E+02</pdfrwt>
<pdfrwt beam="1">  1       -1 0.30693170E-01 0.91637655E+02</pdfrwt>
<totfact> 0.68566267E+04</totfact>
</mgrwt>
</event>
<event>
 5    1  0.1265228E+001  0.9164906E+02  0.7546771E-02  0.1298907E+00
          1   -1    0    0  501    0  0.00000000000E+00  0.00000000000E+00  0.38935575737E+02  0.38935575737E+02  0.00000000000E+00 0.  1.
         -1   -1    0    0    0  501 -0.00000000000E+00 -0.00000000000E+00 -0.53932356584E+02  0.53932356584E+02  0.00000000000E+00 0. -1.
         23    2    1    2    0    0  0.00000000000E+00  0.00000000000E+00 -0.14996780847E+02  0.92867932322E+02  0.91649055739E+02 0.  0.
        -13    1    3    3    0    0 -0.13943763514E+02  0.37303767703E+02  0.15472186607E+02  0.42724561837E+02  0.00000000000E+00 0.  1.
         13    1    3    3    0    0  0.13943763514E+02 -0.37303767703E+02 -0.30468967454E+02  0.50143370484E+02  0.00000000000E+00 0. -1.
<mgrwt>
<rscale>  0 0.91649056E+02</rscale>
<asrwt>0</asrwt>
<pdfrwt beam="1">  1        1 0.59900886E-02 0.91649056E+02</pdfrwt>
<pdfrwt beam="2">  1       -1 0.82972856E-02 0.91649056E+02</pdfrwt>
<totfact> 0.88980502E+04</totfact>
</mgrwt>
</event>
<event>
 5    1  0.1265228E+001  0.9040321E+02  0.7546771E-02  0.1301878E+00
          4   -1    0    0  501    0  0.00000000000E+00  0.00000000000E+00  0.20272098057E+02  0.20272098057E+02  0.00000000000E+00 0. -1.
         -4   -1    0    0    0  501 -0.00000000000E+00 -0.00000000000E+00 -0.10078804498E+03  0.10078804498E+03  0.00000000000E+00 0.  1.
         23    2    1    2    0    0  0.00000000000E+00  0.00000000000E+00 -0.80515946920E+02  0.12106014303E+03  0.90403210801E+02 0.  0.
        -13    1    3    3    0    0  0.22276956594E+02 -0.33007607148E+02 -0.11617842471E+02  0.41481793457E+02  0.00000000000E+00 0.  1.
         13    1    3    3    0    0 -0.22276956594E+02  0.33007607148E+02 -0.68898104450E+02  0.79578349578E+02  0.00000000000E+00 0. -1.
<mgrwt>
<rscale>  0 0.90403211E+02</rscale>
<asrwt>0</asrwt>
<pdfrwt beam="1">  1        4 0.31187843E-02 0.90403211E+02</pdfrwt>
<pdfrwt beam="2">  1       -4 0.15505853E-01 0.90403211E+02</pdfrwt>
<totfact> 0.25798685E+04</totfact>
</mgrwt>
</event>
<event>
 5    1  0.1265228E+001  0.9390950E+02  0.7546771E-02  0.1293651E+00
          4   -1    0    0  501    0  0.00000000000E+00  0.00000000000E+00  0.38568067562E+02  0.38568067562E+02  0.00000000000E+00 0. -1.
         -4   -1    0    0    0  501 -0.00000000000E+00 -0.00000000000E+00 -0.57165133600E+02  0.57165133600E+02  0.00000000000E+00 0.  1.
         23    2    1    2    0    0  0.00000000000E+00  0.00000000000E+00 -0.18597066039E+02  0.95733201162E+02  0.93909503989E+02 0.  0.
        -13    1    3    3    0    0 -0.22652078551E+02 -0.15027693180E+02  0.29730740613E+02  0.40284800637E+02  0.00000000000E+00 0. -1.
         13    1    3    3    0    0  0.22652078551E+02  0.15027693180E+02 -0.48327806652E+02  0.55448400525E+02  0.00000000000E+00 0.  1.
<mgrwt>
<rscale>  0 0.93909504E+02</rscale>
<asrwt>0</asrwt>
<pdfrwt beam="1">  1        4 0.59335488E-02 0.93909504E+02</pdfrwt>
<pdfrwt beam="2">  1       -4 0.87946360E-02 0.93909504E+02</pdfrwt>
<totfact> 0.24661141E+04</totfact>
</mgrwt>
</event>
<event>
 5    1  0.1265228E+001  0.9754715E+02  0.7546771E-02  0.1285540E+00
          1   -1    0    0  501    0  0.00000000000E+00  0.00000000000E+00  0.22105954098E+03  0.22105954098E+03  0.00000000000E+00 0. -1.
         -1   -1    0    0    0  501 -0.00000000000E+00 -0.00000000000E+00 -0.10761179385E+02  0.10761179385E+02  0.00000000000E+00 0.  1.
         23    2    1    2    0    0  0.00000000000E+00  0.00000000000E+00  0.21029836159E+03  0.23182072036E+03  0.97547145018E+02 0.  0.
        -11    1    3    3    0    0 -0.41342897171E+02  0.15637124681E+02  0.56150251335E+02  0.71460517349E+02  0.00000000000E+00 0.  1.
         11    1    3    3    0    0  0.41342897171E+02 -0.15637124681E+02  0.15414811025E+03  0.16036020301E+03  0.00000000000E+00 0. -1.
<mgrwt>
<rscale>  0 0.97547145E+02</rscale>
<asrwt>0</asrwt>
<pdfrwt beam="1">  1        1 0.34009157E-01 0.97547145E+02</pdfrwt>
<pdfrwt beam="2">  1       -1 0.16555662E-02 0.97547145E+02</pdfrwt>
<totfact> 0.10068922E+05</totfact>
</mgrwt>
</event>
<event>
 5    1  0.1265228E+001  0.9050772E+02  0.7546771E-02  0.1301627E+00
         -3   -1    0    0    0  501 -0.00000000000E+00  0.00000000000E+00  0.25111639209E+02  0.25111639209E+02  0.00000000000E+00 0.  1.
          3   -1    0    0  501    0  0.00000000000E+00 -0.00000000000E+00 -0.81552294743E+02  0.81552294743E+02  0.00000000000E+00 0. -1.
         23    2    1    2    0    0  0.00000000000E+00  0.00000000000E+00 -0.56440655534E+02  0.10666393395E+03  0.90507719057E+02 0.  0.
        -13    1    3    3    0    0 -0.15972712065E+02 -0.26984798977E+02  0.10232316176E+02  0.32984954159E+02  0.00000000000E+00 0.  1.
         13    1    3    3    0    0  0.15972712065E+02  0.26984798977E+02 -0.66672971711E+02  0.73678979792E+02  0.00000000000E+00 0. -1.
<mgrwt>
<rscale>  0 0.90507719E+02</rscale>
<asrwt>0</asrwt>
<pdfrwt beam="2">  1        3 0.12546507E-01 0.90507719E+02</pdfrwt>
<pdfrwt beam="1">  1       -3 0.38633291E-02 0.90507719E+02</pdfrwt>
<totfact> 0.34874510E+04</totfact>
</mgrwt>
</event>
<event>
 5    1  0.1265228E+001  0.8061092E+02  0.7546771E-02  0.1327327E+00
         -2   -1    0    0    0  501 -0.00000000000E+00  0.00000000000E+00  0.12829842952E+03  0.12829842952E+03  0.00000000000E+00 0. -1.
          2   -1    0    0  501    0  0.00000000000E+00 -0.00000000000E+00 -0.12662120334E+02  0.12662120334E+02  0.00000000000E+00 0.  1.
         23    2    1    2    0    0  0.00000000000E+00  0.00000000000E+00  0.11563630918E+03  0.14096054985E+03  0.80610921175E+02 0.  0.
        -13    1    3    3    0    0  0.39258474161E+02  0.79300983490E+01  0.49917047192E+02  0.63998639467E+02  0.00000000000E+00 0.  1.
         13    1    3    3    0    0 -0.39258474161E+02 -0.79300983490E+01  0.65719261990E+02  0.76961910383E+02  0.00000000000E+00 0. -1.
<mgrwt>
<rscale>  0 0.80610921E+02</rscale>
<asrwt>0</asrwt>
<pdfrwt beam="2">  1        2 0.19480186E-02 0.80610921E+02</pdfrwt>
<pdfrwt beam="1">  1       -2 0.19738219E-01 0.80610921E+02</pdfrwt>
<totfact> 0.10055224E+05</totfact>
</mgrwt>
</event>
<event>
 5    1  0.1265228E+001  0.9120964E+02  0.7546771E-02  0.1299949E+00
         -1   -1    0    0    0  501 -0.00000000000E+00  0.00000000000E+00  0.29046684982E+03  0.29046684982E+03  0.00000000000E+00 0.  1.
          1   -1    0    0  501    0  0.00000000000E+00 -0.00000000000E+00 -0.71601963534E+01  0.71601963534E+01  0.00000000000E+00 0. -1.
         23    2    1    2    0    0  0.00000000000E+00  0.00000000000E+00  0.28330665346E+03  0.29762704617E+03  0.91209641570E+02 0.  0.
        -13    1    3    3    0    0  0.14824856171E+02  0.42540361668E+02  0.16480553058E+03  0.17085175341E+03  0.00000000000E+00 0. -1.
         13    1    3    3    0    0 -0.14824856171E+02 -0.42540361668E+02  0.11850112288E+03  0.12677529276E+03  0.00000000000E+00 0.  1.
<mgrwt>
<rscale>  0 0.91209642E+02</rscale>
<asrwt>0</asrwt>
<pdfrwt beam="2">  1        1 0.11015689E-02 0.91209642E+02</pdfrwt>
<pdfrwt beam="1">  1       -1 0.44687199E-01 0.91209642E+02</pdfrwt>
<totfact> 0.61293611E+04</totfact>
</mgrwt>
</event>
<event>
 5    1  0.1265228E+001  0.8752983E+02  0.7546771E-02  0.1308946E+00
         -1   -1    0    0    0  501 -0.00000000000E+00  0.00000000000E+00  0.21520166430E+02  0.21520166430E+02  0.00000000000E+00 0.  1.
          1   -1    0    0  501    0  0.00000000000E+00 -0.00000000000E+00 -0.89003387231E+02  0.89003387231E+02  0.00000000000E+00 0. -1.
         23    2    1    2    0    0  0.00000000000E+00  0.00000000000E+00 -0.67483220801E+02  0.11052355366E+03  0.87529828196E+02 0.  0.
        -13    1    3    3    0    0  0.10232702145E+02 -0.11218801273E+02 -0.85570593131E+02  0.86907399593E+02  0.00000000000E+00 0. -1.
         13    1    3    3    0    0 -0.10232702145E+02  0.11218801273E+02  0.18087372329E+02  0.23616154068E+02  0.00000000000E+00 0.  1.
<mgrwt>
<rscale>  0 0.87529828E+02</rscale>
<asrwt>0</asrwt>
<pdfrwt beam="2">  1        1 0.13692829E-01 0.87529828E+02</pdfrwt>
<pdfrwt beam="1">  1       -1 0.33107948E-02 0.87529828E+02</pdfrwt>
<totfact> 0.11453684E+05</totfact>
</mgrwt>
</event>
<event>
 5    1  0.1265228E+001  0.9196151E+02  0.7546771E-02  0.1298170E+00
         -1   -1    0    0    0  501 -0.00000000000E+00  0.00000000000E+00  0.22188313371E+03  0.22188313371E+03  0.00000000000E+00 0.  1.
          1   -1    0    0  501    0  0.00000000000E+00 -0.00000000000E+00 -0.95285735541E+01  0.95285735541E+01  0.00000000000E+00 0. -1.
         23    2    1    2    0    0  0.00000000000E+00  0.00000000000E+00  0.21235456016E+03  0.23141170727E+03  0.91961508470E+02 0.  0.
        -11    1    3    3    0    0  0.32156280733E+02 -0.26731581493E+01  0.18860831573E+03  0.19134855350E+03  0.00000000000E+00 0.  1.
         11    1    3    3    0    0 -0.32156280733E+02  0.26731581493E+01  0.23746244428E+02  0.40063153763E+02  0.00000000000E+00 0. -1.
<mgrwt>
<rscale>  0 0.91961508E+02</rscale>
<asrwt>0</asrwt>
<pdfrwt beam="2">  1        1 0.14659346E-02 0.91961508E+02</pdfrwt>
<pdfrwt beam="1">  1       -1 0.34135863E-01 0.91961508E+02</pdfrwt>
<totfact> 0.65824790E+04</totfact>
</mgrwt>
</event>
<event>
 5    1  0.1265228E+001  0.9178077E+02  0.7546771E-02  0.1298596E+00
          4   -1    0    0  501    0  0.00000000000E+00  0.00000000000E+00  0.15257358860E+03  0.15257358860E+03  0.00000000000E+00 0. -1.
         -4   -1    0    0    0  501 -0.00000000000E+00 -0.00000000000E+00 -0.13802699231E+02  0.13802699231E+02  0.00000000000E+00 0.  1.
         23    2    1    2    0    0  0.00000000000E+00  0.00000000000E+00  0.13877088937E+03  0.16637628783E+03  0.91780768226E+02 0.  0.
        -11    1    3    3    0    0 -0.30997549537E+02  0.28597292601E+02  0.10217953451E+03  0.11054099011E+03  0.00000000000E+00 0. -1.
         11    1    3    3    0    0  0.30997549537E+02 -0.28597292601E+02  0.36591354859E+02  0.55835297723E+02  0.00000000000E+00 0.  1.
<mgrwt>
<rscale>  0 0.91780768E+02</rscale>
<asrwt>0</asrwt>
<pdfrwt beam="1">  1        4 0.23472859E-01 0.91780768E+02</pdfrwt>
<pdfrwt beam="2">  1       -4 0.21234923E-02 0.91780768E+02</pdfrwt>
<totfact> 0.22474016E+04</totfact>
</mgrwt>
</event>
<event>
 5    1  0.1265228E+001  0.8990185E+02  0.7546771E-02  0.1303090E+00
         -1   -1    0    0    0  501 -0.00000000000E+00  0.00000000000E+00  0.74620711314E+01  0.74620711314E+01  0.00000000000E+00 0.  1.
          1   -1    0    0  501    0  0.00000000000E+00 -0.00000000000E+00 -0.27078081075E+03  0.27078081075E+03  0.00000000000E+00 0. -1.
         23    2    1    2    0    0  0.00000000000E+00  0.00000000000E+00 -0.26331873962E+03  0.27824288188E+03  0.89901850278E+02 0.  0.
        -11    1    3    3    0    0  0.82993722998E+01  0.37775703885E+02 -0.20255376651E+03  0.20621326754E+03  0.00000000000E+00 0. -1.
         11    1    3    3    0    0 -0.82993722998E+01 -0.37775703885E+02 -0.60764973115E+02  0.72029614341E+02  0.00000000000E+00 0.  1.
<mgrwt>
<rscale>  0 0.89901850E+02</rscale>
<asrwt>0</asrwt>
<pdfrwt beam="2">  1        1 0.41658574E-01 0.89901850E+02</pdfrwt>
<pdfrwt beam="1">  1       -1 0.11480113E-02 0.89901850E+02</pdfrwt>
<totfact> 0.13041670E+05</totfact>
</mgrwt>
</event>
<event>
 5    1  0.1265228E+001  0.9067902E+02  0.7546771E-02  0.1301216E+00
          4   -1    0    0  501    0  0.00000000000E+00  0.00000000000E+00  0.12704111690E+03  0.12704111690E+03  0.00000000000E+00 0. -1.
         -4   -1    0    0    0  501 -0.00000000000E+00 -0.00000000000E+00 -0.16181147046E+02  0.16181147046E+02  0.00000000000E+00 0.  1.
         23    2    1    2    0    0  0.00000000000E+00  0.00000000000E+00  0.11085996985E+03  0.14322226395E+03  0.90679016171E+02 0.  0.
        -13    1    3    3    0    0  0.36429305031E+02  0.35138345150E+01  0.13160213786E+02  0.38892576733E+02  0.00000000000E+00 0.  1.
         13    1    3    3    0    0 -0.36429305031E+02 -0.35138345150E+01  0.97699756068E+02  0.10432968721E+03  0.00000000000E+00 0. -1.
<mgrwt>
<rscale>  0 0.90679016E+02</rscale>
<asrwt>0</asrwt>
<pdfrwt beam="1">  1        4 0.19544786E-01 0.90679016E+02</pdfrwt>
<pdfrwt beam="2">  1       -4 0.24894073E-02 0.90679016E+02</pdfrwt>
<totfact> 0.24374249E+04</totfact>
</mgrwt>
</event>
<event>
 5    1  0.1265228E+001  0.9332375E+02  0.7546771E-02  0.1294997E+00
          2   -1    0    0  501    0  0.00000000000E+00  0.00000000000E+00  0.21411362745E+03  0.21411362745E+03  0.00000000000E+00 0.  1.
         -2   -1    0    0    0  501 -0.00000000000E+00 -0.00000000000E+00 -0.10169041960E+02  0.10169041960E+02  0.00000000000E+00 0. -1.
         23    2    1    2    0    0  0.00000000000E+00  0.00000000000E+00  0.20394458549E+03  0.22428266941E+03  0.93323747498E+02 0.  0.
        -11    1    3    3    0    0  0.24868755855E+01  0.44891920204E+02  0.71968728485E+02  0.84858511238E+02  0.00000000000E+00 0. -1.
         11    1    3    3    0    0 -0.24868755855E+01 -0.44891920204E+02  0.13197585700E+03  0.13942415817E+03  0.00000000000E+00 0.  1.
<mgrwt>
<rscale>  0 0.93323747E+02</rscale>
<asrwt>0</asrwt>
<pdfrwt beam="1">  1        2 0.32940555E-01 0.93323747E+02</pdfrwt>
<pdfrwt beam="2">  1       -2 0.15644682E-02 0.93323747E+02</pdfrwt>
<totfact> 0.14892554E+05</totfact>
</mgrwt>
</event>
<event>
 5    1  0.1265228E+001  0.9111398E+02  0.7546771E-02  0.1300176E+00
          2   -1    0    0  501    0  0.00000000000E+00  0.00000000000E+00  0.28468664013E+02  0.28468664013E+02  0.00000000000E+00 0.  1.
         -2   -1    0    0    0  501 -0.00000000000E+00 -0.00000000000E+00 -0.72902592977E+02  0.72902592977E+02  0.00000000000E+00 0. -1.
         23    2    1    2    0    0  0.00000000000E+00  0.00000000000E+00 -0.44433928964E+02  0.10137125699E+03  0.91113981917E+02 0.  0.
        -11    1    3    3    0    0  0.41427314488E+02  0.35964759938E+00 -0.11340782445E+01  0.41444394863E+02  0.00000000000E+00 0.  1.
         11    1    3    3    0    0 -0.41427314488E+02 -0.35964759938E+00 -0.43299850720E+02  0.59926862128E+02  0.00000000000E+00 0. -1.
<mgrwt>
<rscale>  0 0.91113982E+02</rscale>
<asrwt>0</asrwt>
<pdfrwt beam="1">  1        2 0.43797945E-02 0.91113982E+02</pdfrwt>
<pdfrwt beam="2">  1       -2 0.11215784E-01 0.91113982E+02</pdfrwt>
<totfact> 0.87410415E+04</totfact>
</mgrwt>
</event>
<event>
 5    1  0.1265228E+001  0.9157799E+02  0.7546771E-02  0.1299075E+00
         -3   -1    0    0    0  501 -0.00000000000E+00  0.00000000000E+00  0.22544780131E+02  0.22544780131E+02  0.00000000000E+00 0.  1.
          3   -1    0    0  501    0  0.00000000000E+00 -0.00000000000E+00 -0.92998562157E+02  0.92998562157E+02  0.00000000000E+00 0. -1.
         23    2    1    2    0    0  0.00000000000E+00  0.00000000000E+00 -0.70453782025E+02  0.11554334229E+03  0.91577991599E+02 0.  0.
        -11    1    3    3    0    0 -0.21336478165E+02 -0.18712104264E+02 -0.80564432695E+02  0.85416719452E+02  0.00000000000E+00 0. -1.
         11    1    3    3    0    0  0.21336478165E+02  0.18712104264E+02  0.10110650670E+02  0.30126622835E+02  0.00000000000E+00 0.  1.
<mgrwt>
<rscale>  0 0.91577992E+02</rscale>
<asrwt>0</asrwt>
<pdfrwt beam="2">  1        3 0.14307471E-01 0.91577992E+02</pdfrwt>
<pdfrwt beam="1">  1       -3 0.34684277E-02 0.91577992E+02</pdfrwt>
<totfact> 0.33155314E+04</totfact>
</mgrwt>
</event>
<event>
 5    1  0.1265228E+001  0.8742102E+02  0.7546771E-02  0.1309220E+00
         -1   -1    0    0    0  501 -0.00000000000E+00  0.00000000000E+00  0.27482877044E+02  0.27482877044E+02  0.00000000000E+00 0. -1.
          1   -1    0    0  501    0  0.00000000000E+00 -0.00000000000E+00 -0.69519968879E+02  0.69519968879E+02  0.00000000000E+00 0.  1.
         23    2    1    2    0    0  0.00000000000E+00  0.00000000000E+00 -0.42037091835E+02  0.97002845924E+02  0.87421021656E+02 0.  0.
        -11    1    3    3    0    0  0.27508394329E+02 -0.34651130742E+01 -0.58514182504E+02  0.64750508271E+02  0.00000000000E+00 0.  1.
         11    1    3    3    0    0 -0.27508394329E+02  0.34651130742E+01  0.16477090669E+02  0.32252337653E+02  0.00000000000E+00 0. -1.
<mgrwt>
<rscale>  0 0.87421022E+02</rscale>
<asrwt>0</asrwt>
<pdfrwt beam="2">  1        1 0.10695380E-01 0.87421022E+02</pdfrwt>
<pdfrwt beam="1">  1       -1 0.42281350E-02 0.87421022E+02</pdfrwt>
<totfact> 0.11064013E+05</totfact>
</mgrwt>
</event>
<event>
 4    1  0.1265228E+001  0.1753131E+03  0.7546771E-02  0.1172418E+00
          2   -1    0    0  501    0  0.00000000000E+00  0.00000000000E+00  0.22916995059E+03  0.22916995059E+03  0.00000000000E+00 0. -1.
         -2   -1    0    0    0  501 -0.00000000000E+00 -0.00000000000E+00 -0.33528282590E+02  0.33528282590E+02  0.00000000000E+00 0.  1.
        -11    1    1    2    0    0  0.38257178607E+02 -0.67230167480E+02  0.36035051544E+02  0.85334823338E+02  0.00000000000E+00 0.  1.
         11    1    1    2    0    0 -0.38257178607E+02  0.67230167480E+02  0.15960661646E+03  0.17736340985E+03  0.00000000000E+00 0. -1.
<mgrwt>
<rscale>  0 0.17531315E+03</rscale>
<asrwt>0</asrwt>
<pdfrwt beam="1">  1        2 0.35256915E-01 0.17531315E+03</pdfrwt>
<pdfrwt beam="2">  1       -2 0.51581975E-02 0.17531315E+03</pdfrwt>
<totfact> 0.26057679E+04</totfact>
</mgrwt>
</event>
<event>
 5    1  0.1265228E+001  0.9107426E+02  0.7546771E-02  0.1300271E+00
          1   -1    0    0  501    0  0.00000000000E+00  0.00000000000E+00  0.11209456915E+02  0.11209456915E+02  0.00000000000E+00 0. -1.
         -1   -1    0    0    0  501 -0.00000000000E+00 -0.00000000000E+00 -0.18498934051E+03  0.18498934051E+03  0.00000000000E+00 0.  1.
         23    2    1    2    0    0  0.00000000000E+00  0.00000000000E+00 -0.17377988360E+03  0.19619879743E+03  0.91074256345E+02 0.  0.
        -13    1    3    3    0    0 -0.12330351501E+02  0.42061871513E+02 -0.11348377817E+03  0.12165445537E+03  0.00000000000E+00 0.  1.
         13    1    3    3    0    0  0.12330351501E+02 -0.42061871513E+02 -0.60296105430E+02  0.74544342061E+02  0.00000000000E+00 0. -1.
<mgrwt>
<rscale>  0 0.91074256E+02</rscale>
<asrwt>0</asrwt>
<pdfrwt beam="1">  1        1 0.17245318E-02 0.91074256E+02</pdfrwt>
<pdfrwt beam="2">  1       -1 0.28459900E-01 0.91074256E+02</pdfrwt>
<totfact> 0.71156133E+04</totfact>
</mgrwt>
</event>
<event>
 5    1  0.1265228E+001  0.9360420E+02  0.7546771E-02  0.1294351E+00
         -1   -1    0    0    0  501 -0.00000000000E+00  0.00000000000E+00  0.51591198642E+02  0.51591198642E+02  0.00000000000E+00 0.  1.
          1   -1    0    0  501    0  0.00000000000E+00 -0.00000000000E+00 -0.42457567340E+02  0.42457567340E+02  0.00000000000E+00 0. -1.
         23    2    1    2    0    0  0.00000000000E+00  0.00000000000E+00  0.91336313021E+01  0.94048765983E+02  0.93604204832E+02 0.  0.
        -13    1    3    3    0    0  0.14958271192E+02 -0.36891022134E+02  0.29295479702E+02  0.49425929654E+02  0.00000000000E+00 0. -1.
         13    1    3    3    0    0 -0.14958271192E+02  0.36891022134E+02 -0.20161848400E+02  0.44622836329E+02  0.00000000000E+00 0.  1.
<mgrwt>
<rscale>  0 0.93604205E+02</rscale>
<asrwt>0</asrwt>
<pdfrwt beam="2">  1        1 0.65319334E-02 0.93604205E+02</pdfrwt>
<pdfrwt beam="1">  1       -1 0.79371075E-02 0.93604205E+02</pdfrwt>
<totfact> 0.84940945E+04</totfact>
</mgrwt>
</event>
<event>
 5    1  0.1265228E+001  0.9143976E+02  0.7546771E-02  0.1299402E+00
          3   -1    0    0  501    0  0.00000000000E+00  0.00000000000E+00  0.11516232739E+03  0.11516232739E+03  0.00000000000E+00 0. -1.
         -3   -1    0    0    0  501 -0.00000000000E+00 -0.00000000000E+00 -0.18150963482E+02  0.18150963482E+02  0.00000000000E+00 0.  1.
         23    2    1    2    0    0  0.00000000000E+00  0.00000000000E+00  0.97011363913E+02  0.13331329088E+03  0.91439755010E+02 0.  0.
        -11    1    3    3    0    0 -0.28800258911E+02 -0.30562696654E+02  0.22150740924E+02  0.47478296764E+02  0.00000000000E+00 0.  1.
         11    1    3    3    0    0  0.28800258911E+02  0.30562696654E+02  0.74860622989E+02  0.85834994113E+02  0.00000000000E+00 0. -1.
<mgrwt>
<rscale>  0 0.91439755E+02</rscale>
<asrwt>0</asrwt>
<pdfrwt beam="1">  1        3 0.17717281E-01 0.91439755E+02</pdfrwt>
<pdfrwt beam="2">  1       -3 0.27924560E-02 0.91439755E+02</pdfrwt>
<totfact> 0.32107066E+04</totfact>
</mgrwt>
</event>
<event>
 5    1  0.1265228E+001  0.9743845E+02  0.7546771E-02  0.1285777E+00
          3   -1    0    0  501    0  0.00000000000E+00  0.00000000000E+00  0.84061560854E+02  0.84061560854E+02  0.00000000000E+00 0. -1.
         -3   -1    0    0    0  501 -0.00000000000E+00 -0.00000000000E+00 -0.28236006926E+02  0.28236006926E+02  0.00000000000E+00 0.  1.
         23    2    1    2    0    0  0.00000000000E+00  0.00000000000E+00  0.55825553928E+02  0.11229756778E+03  0.97438448560E+02 0.  0.
        -11    1    3    3    0    0 -0.22694377851E+02  0.27867778464E+02 -0.99957187485E+01  0.37303649364E+02  0.00000000000E+00 0.  1.
         11    1    3    3    0    0  0.22694377851E+02 -0.27867778464E+02  0.65821272677E+02  0.74993918416E+02  0.00000000000E+00 0. -1.
<mgrwt>
<rscale>  0 0.97438449E+02</rscale>
<asrwt>0</asrwt>
<pdfrwt beam="1">  1        3 0.12932548E-01 0.97438449E+02</pdfrwt>
<pdfrwt beam="2">  1       -3 0.43440011E-02 0.97438449E+02</pdfrwt>
<totfact> 0.28175897E+04</totfact>
</mgrwt>
</event>
<event>
 5    1  0.1265228E+001  0.9033798E+02  0.7546771E-02  0.1302035E+00
         -2   -1    0    0    0  501 -0.00000000000E+00  0.00000000000E+00  0.81842562592E+01  0.81842562592E+01  0.00000000000E+00 0.  1.
          2   -1    0    0  501    0  0.00000000000E+00 -0.00000000000E+00 -0.24928808020E+03  0.24928808020E+03  0.00000000000E+00 0. -1.
         23    2    1    2    0    0  0.00000000000E+00  0.00000000000E+00 -0.24110382394E+03  0.25747233646E+03  0.90337977191E+02 0.  0.
        -11    1    3    3    0    0 -0.29704091022E+02  0.32596401138E+02 -0.14838663562E+03  0.15480133081E+03  0.00000000000E+00 0. -1.
         11    1    3    3    0    0  0.29704091022E+02 -0.32596401138E+02 -0.92717188327E+02  0.10267100565E+03  0.00000000000E+00 0.  1.
<mgrwt>
<rscale>  0 0.90337977E+02</rscale>
<asrwt>0</asrwt>
<pdfrwt beam="2">  1        2 0.38352007E-01 0.90337977E+02</pdfrwt>
<pdfrwt beam="1">  1       -2 0.12591165E-02 0.90337977E+02</pdfrwt>
<totfact> 0.17188182E+05</totfact>
</mgrwt>
</event>
<event>
 5    1  0.1265228E+001  0.9029791E+02  0.7546771E-02  0.1302132E+00
          1   -1    0    0  501    0  0.00000000000E+00  0.00000000000E+00  0.15902181997E+02  0.15902181997E+02  0.00000000000E+00 0. -1.
         -1   -1    0    0    0  501 -0.00000000000E+00 -0.00000000000E+00 -0.12818542281E+03  0.12818542281E+03  0.00000000000E+00 0.  1.
         23    2    1    2    0    0  0.00000000000E+00  0.00000000000E+00 -0.11228324081E+03  0.14408760480E+03  0.90297905243E+02 0.  0.
        -11    1    3    3    0    0 -0.39167818074E+02  0.21189131055E+02 -0.44272133877E+02  0.62794259973E+02  0.00000000000E+00 0. -1.
         11    1    3    3    0    0  0.39167818074E+02 -0.21189131055E+02 -0.68011106932E+02  0.81293344830E+02  0.00000000000E+00 0.  1.
<mgrwt>
<rscale>  0 0.90297905E+02</rscale>
<asrwt>0</asrwt>
<pdfrwt beam="1">  1        1 0.24464895E-02 0.90297905E+02</pdfrwt>
<pdfrwt beam="2">  1       -1 0.19720835E-01 0.90297905E+02</pdfrwt>
<totfact> 0.79421912E+04</totfact>
</mgrwt>
</event>
<event>
 5    1  0.1265228E+001  0.9029349E+02  0.7546771E-02  0.1302143E+00
         -2   -1    0    0    0  501 -0.00000000000E+00  0.00000000000E+00  0.12790087807E+03  0.12790087807E+03  0.00000000000E+00 0.  1.
          2   -1    0    0  501    0  0.00000000000E+00 -0.00000000000E+00 -0.15935999972E+02  0.15935999972E+02  0.00000000000E+00 0. -1.
         23    2    1    2    0    0  0.00000000000E+00  0.00000000000E+00  0.11196487810E+03  0.14383687805E+03  0.90293485689E+02 0.  0.
        -13    1    3    3    0    0  0.40945598860E+02  0.18966832429E+01  0.86127021226E+02  0.95383453799E+02  0.00000000000E+00 0.  1.
         13    1    3    3    0    0 -0.40945598860E+02 -0.18966832429E+01  0.25837856875E+02  0.48453424247E+02  0.00000000000E+00 0. -1.
<mgrwt>
<rscale>  0 0.90293486E+02</rscale>
<asrwt>0</asrwt>
<pdfrwt beam="2">  1        2 0.24516924E-02 0.90293486E+02</pdfrwt>
<pdfrwt beam="1">  1       -2 0.19677057E-01 0.90293486E+02</pdfrwt>
<totfact> 0.75680880E+04</totfact>
</mgrwt>
</event>
<event>
 5    1  0.1265228E+001  0.9036535E+02  0.7546771E-02  0.1301969E+00
          3   -1    0    0  501    0  0.00000000000E+00  0.00000000000E+00  0.19059567600E+03  0.19059567600E+03  0.00000000000E+00 0. -1.
         -3   -1    0    0    0  501 -0.00000000000E+00 -0.00000000000E+00 -0.10711021153E+02  0.10711021153E+02  0.00000000000E+00 0.  1.
         23    2    1    2    0    0  0.00000000000E+00  0.00000000000E+00  0.17988465485E+03  0.20130669715E+03  0.90365354364E+02 0.  0.
        -13    1    3    3    0    0 -0.33719553750E+02 -0.21020820710E+02  0.13785549773E+03  0.14346784121E+03  0.00000000000E+00 0. -1.
         13    1    3    3    0    0  0.33719553750E+02  0.21020820710E+02  0.42029157121E+02  0.57838855942E+02  0.00000000000E+00 0.  1.
<mgrwt>
<rscale>  0 0.90365354E+02</rscale>
<asrwt>0</asrwt>
<pdfrwt beam="1">  1        3 0.29322409E-01 0.90365354E+02</pdfrwt>
<pdfrwt beam="2">  1       -3 0.16478496E-02 0.90365354E+02</pdfrwt>
<totfact> 0.29124022E+04</totfact>
</mgrwt>
</event>
<event>
 5    1  0.1265228E+001  0.9577941E+02  0.7546771E-02  0.1289430E+00
          2   -1    0    0  501    0  0.00000000000E+00  0.00000000000E+00  0.19419727439E+02  0.19419727439E+02  0.00000000000E+00 0. -1.
         -2   -1    0    0    0  501 -0.00000000000E+00 -0.00000000000E+00 -0.11809764381E+03  0.11809764381E+03  0.00000000000E+00 0.  1.
         23    2    1    2    0    0  0.00000000000E+00  0.00000000000E+00 -0.98677916376E+02  0.13751737125E+03  0.95779414366E+02 0.  0.
        -13    1    3    3    0    0  0.11477315911E+02  0.40108506982E+02 -0.15575330302E+02  0.44531023196E+02  0.00000000000E+00 0. -1.
         13    1    3    3    0    0 -0.11477315911E+02 -0.40108506982E+02 -0.83102586074E+02  0.92986348057E+02  0.00000000000E+00 0.  1.
<mgrwt>
<rscale>  0 0.95779414E+02</rscale>
<asrwt>0</asrwt>
<pdfrwt beam="1">  1        2 0.29876503E-02 0.95779414E+02</pdfrwt>
<pdfrwt beam="2">  1       -2 0.18168869E-01 0.95779414E+02</pdfrwt>
<totfact> 0.66993613E+04</totfact>
</mgrwt>
</event>
<event>
 5    1  0.1265228E+001  0.9186191E+02  0.7546771E-02  0.1298404E+00
          1   -1    0    0  501    0  0.00000000000E+00  0.00000000000E+00  0.61070552461E+02  0.61070552461E+02  0.00000000000E+00 0. -1.
         -1   -1    0    0    0  501 -0.00000000000E+00 -0.00000000000E+00 -0.34544516973E+02  0.34544516973E+02  0.00000000000E+00 0.  1.
         23    2    1    2    0    0  0.00000000000E+00  0.00000000000E+00  0.26526035488E+02  0.95615069435E+02  0.91861912370E+02 0.  0.
        -13    1    3    3    0    0  0.18826169386E+02 -0.38118732371E+02 -0.48308386932E+01  0.42787841893E+02  0.00000000000E+00 0.  1.
         13    1    3    3    0    0 -0.18826169386E+02  0.38118732371E+02  0.31356874181E+02  0.52827227542E+02  0.00000000000E+00 0. -1.
<mgrwt>
<rscale>  0 0.91861912E+02</rscale>
<asrwt>0</asrwt>
<pdfrwt beam="1">  1        1 0.93954696E-02 0.91861912E+02</pdfrwt>
<pdfrwt beam="2">  1       -1 0.53145411E-02 0.91861912E+02</pdfrwt>
<totfact> 0.94642401E+04</totfact>
</mgrwt>
</event>
<event>
 5    1  0.1265228E+001  0.9142127E+02  0.7546771E-02  0.1299446E+00
         -4   -1    0    0    0  501 -0.00000000000E+00  0.00000000000E+00  0.31810499821E+02  0.31810499821E+02  0.00000000000E+00 0. -1.
          4   -1    0    0  501    0  0.00000000000E+00 -0.00000000000E+00 -0.65684670181E+02  0.65684670181E+02  0.00000000000E+00 0.  1.
         23    2    1    2    0    0  0.00000000000E+00  0.00000000000E+00 -0.33874170360E+02  0.97495170003E+02  0.91421270809E+02 0.  0.
        -13    1    3    3    0    0  0.45218992060E+02  0.53869717322E+01 -0.21160704591E+02  0.50215058759E+02  0.00000000000E+00 0.  1.
         13    1    3    3    0    0 -0.45218992060E+02 -0.53869717322E+01 -0.12713465769E+02  0.47280111244E+02  0.00000000000E+00 0. -1.
<mgrwt>
<rscale>  0 0.91421271E+02</rscale>
<asrwt>0</asrwt>
<pdfrwt beam="2">  1        4 0.10105334E-01 0.91421271E+02</pdfrwt>
<pdfrwt beam="1">  1       -4 0.48939231E-02 0.91421271E+02</pdfrwt>
<totfact> 0.26421315E+04</totfact>
</mgrwt>
</event>
<event>
 5    1  0.1265228E+001  0.9052111E+02  0.7546771E-02  0.1301595E+00
         -3   -1    0    0    0  501 -0.00000000000E+00  0.00000000000E+00  0.69645927738E+02  0.69645927738E+02  0.00000000000E+00 0.  1.
          3   -1    0    0  501    0  0.00000000000E+00 -0.00000000000E+00 -0.29413320391E+02  0.29413320391E+02  0.00000000000E+00 0. -1.
         23    2    1    2    0    0  0.00000000000E+00  0.00000000000E+00  0.40232607347E+02  0.99059248129E+02  0.90521113261E+02 0.  0.
        -13    1    3    3    0    0  0.26845041513E+02 -0.34513734430E+01 -0.19581345971E+02  0.33406546402E+02  0.00000000000E+00 0. -1.
         13    1    3    3    0    0 -0.26845041513E+02  0.34513734430E+01  0.59813953318E+02  0.65652701727E+02  0.00000000000E+00 0.  1.
<mgrwt>
<rscale>  0 0.90521113E+02</rscale>
<asrwt>0</asrwt>
<pdfrwt beam="2">  1        3 0.45251262E-02 0.90521113E+02</pdfrwt>
<pdfrwt beam="1">  1       -3 0.10714758E-01 0.90521113E+02</pdfrwt>
<totfact> 0.35430609E+04</totfact>
</mgrwt>
</event>
<event>
 5    1  0.1265228E+001  0.9153104E+02  0.7546771E-02  0.1299186E+00
          3   -1    0    0  501    0  0.00000000000E+00  0.00000000000E+00  0.16502048180E+03  0.16502048180E+03  0.00000000000E+00 0. -1.
         -3   -1    0    0    0  501 -0.00000000000E+00 -0.00000000000E+00 -0.12692258550E+02  0.12692258550E+02  0.00000000000E+00 0.  1.
         23    2    1    2    0    0  0.00000000000E+00  0.00000000000E+00  0.15232822325E+03  0.17771274035E+03  0.91531035635E+02 0.  0.
        -13    1    3    3    0    0  0.29587440092E+02  0.27524467424E+02  0.11787234397E+03  0.12460699175E+03  0.00000000000E+00 0. -1.
         13    1    3    3    0    0 -0.29587440092E+02 -0.27524467424E+02  0.34455879280E+02  0.53105748608E+02  0.00000000000E+00 0.  1.
<mgrwt>
<rscale>  0 0.91531036E+02</rscale>
<asrwt>0</asrwt>
<pdfrwt beam="1">  1        3 0.25387765E-01 0.91531036E+02</pdfrwt>
<pdfrwt beam="2">  1       -3 0.19526553E-02 0.91531036E+02</pdfrwt>
<totfact> 0.29382661E+04</totfact>
</mgrwt>
</event>
<event>
 5    1  0.1265228E+001  0.9594958E+02  0.7546771E-02  0.1289052E+00
          2   -1    0    0  501    0  0.00000000000E+00  0.00000000000E+00  0.99012715361E+01  0.99012715361E+01  0.00000000000E+00 0. -1.
         -2   -1    0    0    0  501 -0.00000000000E+00 -0.00000000000E+00 -0.23245304271E+03  0.23245304271E+03  0.00000000000E+00 0.  1.
         23    2    1    2    0    0  0.00000000000E+00  0.00000000000E+00 -0.22255177117E+03  0.24235431424E+03  0.95949584579E+02 0.  0.
        -13    1    3    3    0    0 -0.12042641532E+02 -0.44551418943E+02 -0.78176008632E+02  0.90781839983E+02  0.00000000000E+00 0.  1.
         13    1    3    3    0    0  0.12042641532E+02  0.44551418943E+02 -0.14437576254E+03  0.15157247426E+03  0.00000000000E+00 0. -1.
<mgrwt>
<rscale>  0 0.95949585E+02</rscale>
<asrwt>0</asrwt>
<pdfrwt beam="1">  1        2 0.15232727E-02 0.95949585E+02</pdfrwt>
<pdfrwt beam="2">  1       -2 0.35762002E-01 0.95949585E+02</pdfrwt>
<totfact> 0.51061019E+04</totfact>
</mgrwt>
</event>
<event>
 5    1  0.1265228E+001  0.8976450E+02  0.7546771E-02  0.1303423E+00
          3   -1    0    0  501    0  0.00000000000E+00  0.00000000000E+00  0.35367694242E+02  0.35367694242E+02  0.00000000000E+00 0. -1.
         -3   -1    0    0    0  501 -0.00000000000E+00 -0.00000000000E+00 -0.56956398063E+02  0.56956398063E+02  0.00000000000E+00 0.  1.
         23    2    1    2    0    0  0.00000000000E+00  0.00000000000E+00 -0.21588703821E+02  0.92324092305E+02  0.89764502379E+02 0.  0.
        -13    1    3    3    0    0  0.88872467764E+01 -0.24458846504E+02 -0.48404782148E+02  0.54956721721E+02  0.00000000000E+00 0.  1.
         13    1    3    3    0    0 -0.88872467764E+01  0.24458846504E+02  0.26816078327E+02  0.37367370584E+02  0.00000000000E+00 0. -1.
<mgrwt>
<rscale>  0 0.89764502E+02</rscale>
<asrwt>0</asrwt>
<pdfrwt beam="1">  1        3 0.54411838E-02 0.89764502E+02</pdfrwt>
<pdfrwt beam="2">  1       -3 0.87625227E-02 0.89764502E+02</pdfrwt>
<totfact> 0.36779332E+04</totfact>
</mgrwt>
</event>
<event>
 5    1  0.1265228E+001  0.1142876E+03  0.7546771E-02  0.1252830E+00
          4   -1    0    0  501    0  0.00000000000E+00  0.00000000000E+00  0.85937343174E+02  0.85937343174E+02  0.00000000000E+00 0. -1.
         -4   -1    0    0    0  501 -0.00000000000E+00 -0.00000000000E+00 -0.37997637093E+02  0.37997637093E+02  0.00000000000E+00 0.  1.
         23    2    1    2    0    0  0.00000000000E+00  0.00000000000E+00  0.47939706081E+02  0.12393498027E+03  0.11428763675E+03 0.  0.
        -13    1    3    3    0    0  0.11456262939E+02 -0.55328618031E+02  0.14710082068E+02  0.58385687015E+02  0.00000000000E+00 0.  1.
         13    1    3    3    0    0 -0.11456262939E+02  0.55328618031E+02  0.33229624013E+02  0.65549293252E+02  0.00000000000E+00 0. -1.
<mgrwt>
<rscale>  0 0.11428764E+03</rscale>
<asrwt>0</asrwt>
<pdfrwt beam="1">  1        4 0.13221130E-01 0.11428764E+03</pdfrwt>
<pdfrwt beam="2">  1       -4 0.58457903E-02 0.11428764E+03</pdfrwt>
<totfact> 0.13473211E+04</totfact>
</mgrwt>
</event>
<event>
 5    1  0.1265228E+001  0.8408849E+02  0.7546771E-02  0.1317834E+00
          1   -1    0    0  501    0  0.00000000000E+00  0.00000000000E+00  0.56336163536E+01  0.56336163536E+01  0.00000000000E+00 0. -1.
         -1   -1    0    0    0  501 -0.00000000000E+00 -0.00000000000E+00 -0.31378040465E+03  0.31378040465E+03  0.00000000000E+00 0.  1.
         23    2    1    2    0    0  0.00000000000E+00  0.00000000000E+00 -0.30814678830E+03  0.31941402100E+03  0.84088487181E+02 0.  0.
        -11    1    3    3    0    0 -0.39438583804E+02  0.79627849744E+01 -0.20042664711E+03  0.20442516653E+03  0.00000000000E+00 0.  1.
         11    1    3    3    0    0  0.39438583804E+02 -0.79627849744E+01 -0.10772014118E+03  0.11498885448E+03  0.00000000000E+00 0. -1.
<mgrwt>
<rscale>  0 0.84088487E+02</rscale>
<asrwt>0</asrwt>
<pdfrwt beam="1">  1        1 0.86671020E-03 0.84088487E+02</pdfrwt>
<pdfrwt beam="2">  1       -1 0.48273909E-01 0.84088487E+02</pdfrwt>
<totfact> 0.73484063E+04</totfact>
</mgrwt>
</event>
<event>
 5    1  0.1265228E+001  0.9417935E+02  0.7546771E-02  0.1293035E+00
         -1   -1    0    0    0  501 -0.00000000000E+00  0.00000000000E+00  0.28168371653E+02  0.28168371653E+02  0.00000000000E+00 0.  1.
          1   -1    0    0  501    0  0.00000000000E+00 -0.00000000000E+00 -0.78720834573E+02  0.78720834573E+02  0.00000000000E+00 0. -1.
         23    2    1    2    0    0  0.00000000000E+00  0.00000000000E+00 -0.50552462920E+02  0.10688920623E+03  0.94179354958E+02 0.  0.
        -13    1    3    3    0    0  0.10980808150E+02  0.37700588435E+02  0.42221998004E+01  0.39493537284E+02  0.00000000000E+00 0.  1.
         13    1    3    3    0    0 -0.10980808150E+02 -0.37700588435E+02 -0.54774662721E+02  0.67395668942E+02  0.00000000000E+00 0. -1.
<mgrwt>
<rscale>  0 0.94179355E+02</rscale>
<asrwt>0</asrwt>
<pdfrwt beam="2">  1        1 0.12110897E-01 0.94179355E+02</pdfrwt>
<pdfrwt beam="1">  1       -1 0.43335958E-02 0.94179355E+02</pdfrwt>
<totfact> 0.91907286E+04</totfact>
</mgrwt>
</event>
<event>
 5    1  0.1265228E+001  0.9179776E+02  0.7546771E-02  0.1298556E+00
         -4   -1    0    0    0  501 -0.00000000000E+00  0.00000000000E+00  0.18711492232E+02  0.18711492232E+02  0.00000000000E+00 0.  1.
          4   -1    0    0  501    0  0.00000000000E+00 -0.00000000000E+00 -0.11258895102E+03  0.11258895102E+03  0.00000000000E+00 0. -1.
         23    2    1    2    0    0  0.00000000000E+00  0.00000000000E+00 -0.93877458786E+02  0.13130044325E+03  0.91797762115E+02 0.  0.
        -11    1    3    3    0    0 -0.26004549145E+02 -0.34389251565E+02 -0.69456668095E+02  0.81750143378E+02  0.00000000000E+00 0. -1.
         11    1    3    3    0    0  0.26004549145E+02  0.34389251565E+02 -0.24420790690E+02  0.49550299871E+02  0.00000000000E+00 0.  1.
<mgrwt>
<rscale>  0 0.91797762E+02</rscale>
<asrwt>0</asrwt>
<pdfrwt beam="2">  1        4 0.17321377E-01 0.91797762E+02</pdfrwt>
<pdfrwt beam="1">  1       -4 0.28786911E-02 0.91797762E+02</pdfrwt>
<totfact> 0.24199208E+04</totfact>
</mgrwt>
</event>
<event>
 5    1  0.1265228E+001  0.9152320E+02  0.7546771E-02  0.1299204E+00
          1   -1    0    0  501    0  0.00000000000E+00  0.00000000000E+00  0.26503183313E+02  0.26503183313E+02  0.00000000000E+00 0. -1.
         -1   -1    0    0    0  501 -0.00000000000E+00 -0.00000000000E+00 -0.79014054845E+02  0.79014054845E+02  0.00000000000E+00 0.  1.
         23    2    1    2    0    0  0.00000000000E+00  0.00000000000E+00 -0.52510871533E+02  0.10551723816E+03  0.91523198805E+02 0.  0.
        -13    1    3    3    0    0  0.16545934630E+02 -0.31245619649E+02 -0.59750495551E+02  0.69427504771E+02  0.00000000000E+00 0.  1.
         13    1    3    3    0    0 -0.16545934630E+02  0.31245619649E+02  0.72396240187E+01  0.36089733388E+02  0.00000000000E+00 0. -1.
<mgrwt>
<rscale>  0 0.91523199E+02</rscale>
<asrwt>0</asrwt>
<pdfrwt beam="1">  1        1 0.40774128E-02 0.91523199E+02</pdfrwt>
<pdfrwt beam="2">  1       -1 0.12156008E-01 0.91523199E+02</pdfrwt>
<totfact> 0.84007962E+04</totfact>
</mgrwt>
</event>
<event>
 5    1  0.1265228E+001  0.7338567E+02  0.7546771E-02  0.1348944E+00
         -4   -1    0    0    0  501 -0.00000000000E+00  0.00000000000E+00  0.16117502997E+02  0.16117502997E+02  0.00000000000E+00 0. -1.
          4   -1    0    0  501    0  0.00000000000E+00 -0.00000000000E+00 -0.83534299013E+02  0.83534299013E+02  0.00000000000E+00 0.  1.
         23    2    1    2    0    0  0.00000000000E+00  0.00000000000E+00 -0.67416796017E+02  0.99651802010E+02  0.73385674751E+02 0.  0.
        -11    1    3    3    0    0 -0.19281585319E+02 -0.30822426894E+02 -0.26978435468E+02  0.45272922507E+02  0.00000000000E+00 0.  1.
         11    1    3    3    0    0  0.19281585319E+02  0.30822426894E+02 -0.40438360549E+02  0.54378879502E+02  0.00000000000E+00 0. -1.
<mgrwt>
<rscale>  0 0.73385675E+02</rscale>
<asrwt>0</asrwt>
<pdfrwt beam="2">  1        4 0.12851430E-01 0.73385675E+02</pdfrwt>
<pdfrwt beam="1">  1       -4 0.24796159E-02 0.73385675E+02</pdfrwt>
<totfact> 0.47232908E+04</totfact>
</mgrwt>
</event>
<event>
 5    1  0.1265228E+001  0.9141757E+02  0.7546771E-02  0.1299455E+00
         -2   -1    0    0    0  501 -0.00000000000E+00  0.00000000000E+00  0.44767059627E+02  0.44767059627E+02  0.00000000000E+00 0.  1.
          2   -1    0    0  501    0  0.00000000000E+00 -0.00000000000E+00 -0.46670321099E+02  0.46670321099E+02  0.00000000000E+00 0. -1.
         23    2    1    2    0    0  0.00000000000E+00  0.00000000000E+00 -0.19032614724E+01  0.91437380726E+02  0.91417570465E+02 0.  0.
        -13    1    3    3    0    0  0.64710016446E+01 -0.31614334421E+02 -0.33330748668E+02  0.46392659009E+02  0.00000000000E+00 0. -1.
         13    1    3    3    0    0 -0.64710016446E+01  0.31614334421E+02  0.31427487195E+02  0.45044721717E+02  0.00000000000E+00 0.  1.
<mgrwt>
<rscale>  0 0.91417570E+02</rscale>
<asrwt>0</asrwt>
<pdfrwt beam="2">  1        2 0.71800494E-02 0.91417570E+02</pdfrwt>
<pdfrwt beam="1">  1       -2 0.68872399E-02 0.91417570E+02</pdfrwt>
<totfact> 0.98529470E+04</totfact>
</mgrwt>
</event>
<event>
 5    1  0.1265228E+001  0.8295453E+02  0.7546771E-02  0.1320870E+00
          1   -1    0    0  501    0  0.00000000000E+00  0.00000000000E+00  0.68446992805E+02  0.68446992805E+02  0.00000000000E+00 0. -1.
         -1   -1    0    0    0  501 -0.00000000000E+00 -0.00000000000E+00 -0.25134244851E+02  0.25134244851E+02  0.00000000000E+00 0.  1.
         23    2    1    2    0    0  0.00000000000E+00  0.00000000000E+00  0.43312747954E+02  0.93581237656E+02  0.82954529146E+02 0.  0.
        -13    1    3    3    0    0  0.23371833041E+02  0.33182747449E+02  0.12016131903E+02  0.42328769577E+02  0.00000000000E+00 0.  1.
         13    1    3    3    0    0 -0.23371833041E+02 -0.33182747449E+02  0.31296616051E+02  0.51252468079E+02  0.00000000000E+00 0. -1.
<mgrwt>
<rscale>  0 0.82954529E+02</rscale>
<asrwt>0</asrwt>
<pdfrwt beam="1">  1        1 0.10530307E-01 0.82954529E+02</pdfrwt>
<pdfrwt beam="2">  1       -1 0.38668069E-02 0.82954529E+02</pdfrwt>
<totfact> 0.12738230E+05</totfact>
</mgrwt>
</event>
<event>
 5    1  0.1265228E+001  0.9184747E+02  0.7546771E-02  0.1298438E+00
          3   -1    0    0  501    0  0.00000000000E+00  0.00000000000E+00  0.33692802881E+02  0.33692802881E+02  0.00000000000E+00 0. -1.
         -3   -1    0    0    0  501 -0.00000000000E+00 -0.00000000000E+00 -0.62594650229E+02  0.62594650229E+02  0.00000000000E+00 0.  1.
         23    2    1    2    0    0  0.00000000000E+00  0.00000000000E+00 -0.28901847348E+02  0.96287453110E+02  0.91847465105E+02 0.  0.
        -11    1    3    3    0    0 -0.10457936255E+02 -0.40450103336E+02 -0.34435774655E+02  0.54142422062E+02  0.00000000000E+00 0.  1.
         11    1    3    3    0    0  0.10457936255E+02  0.40450103336E+02  0.55339273076E+01  0.42145031048E+02  0.00000000000E+00 0. -1.
<mgrwt>
<rscale>  0 0.91847465E+02</rscale>
<asrwt>0</asrwt>
<pdfrwt beam="1">  1        3 0.51835082E-02 0.91847465E+02</pdfrwt>
<pdfrwt beam="2">  1       -3 0.96299461E-02 0.91847465E+02</pdfrwt>
<totfact> 0.34257932E+04</totfact>
</mgrwt>
</event>
<event>
 5    1  0.1265228E+001  0.9100190E+02  0.7546771E-02  0.1300443E+00
          2   -1    0    0  501    0  0.00000000000E+00  0.00000000000E+00  0.75065316426E+02  0.75065316426E+02  0.00000000000E+00 0. -1.
         -2   -1    0    0    0  501 -0.00000000000E+00 -0.00000000000E+00 -0.27580465039E+02  0.27580465039E+02  0.00000000000E+00 0.  1.
         23    2    1    2    0    0  0.00000000000E+00  0.00000000000E+00  0.47484851386E+02  0.10264578147E+03  0.91001897461E+02 0.  0.
        -11    1    3    3    0    0  0.58996708716E+01 -0.37737152036E+02 -0.41487434729E+01  0.38420187826E+02  0.00000000000E+00 0.  1.
         11    1    3    3    0    0 -0.58996708716E+01  0.37737152036E+02  0.51633594859E+02  0.64225593639E+02  0.00000000000E+00 0. -1.
<mgrwt>
<rscale>  0 0.91001897E+02</rscale>
<asrwt>0</asrwt>
<pdfrwt beam="1">  1        2 0.11548510E-01 0.91001897E+02</pdfrwt>
<pdfrwt beam="2">  1       -2 0.42431485E-02 0.91001897E+02</pdfrwt>
<totfact> 0.11340535E+05</totfact>
</mgrwt>
</event>
<event>
 5    1  0.1265228E+001  0.9151903E+02  0.7546771E-02  0.1299214E+00
         -1   -1    0    0    0  501 -0.00000000000E+00  0.00000000000E+00  0.46673210881E+02  0.46673210881E+02  0.00000000000E+00 0.  1.
          1   -1    0    0  501    0  0.00000000000E+00 -0.00000000000E+00 -0.44863710166E+02  0.44863710166E+02  0.00000000000E+00 0. -1.
         23    2    1    2    0    0  0.00000000000E+00  0.00000000000E+00  0.18095007148E+01  0.91536921047E+02  0.91519034205E+02 0.  0.
        -13    1    3    3    0    0 -0.13735606552E+02  0.25269415052E+02  0.36502761204E+02  0.46472161558E+02  0.00000000000E+00 0.  1.
         13    1    3    3    0    0  0.13735606552E+02 -0.25269415052E+02 -0.34693260489E+02  0.45064759489E+02  0.00000000000E+00 0. -1.
<mgrwt>
<rscale>  0 0.91519034E+02</rscale>
<asrwt>0</asrwt>
<pdfrwt beam="2">  1        1 0.69021092E-02 0.91519034E+02</pdfrwt>
<pdfrwt beam="1">  1       -1 0.71804940E-02 0.91519034E+02</pdfrwt>
<totfact> 0.91282767E+04</totfact>
</mgrwt>
</event>
<event>
 5    1  0.1265228E+001  0.7210911E+02  0.7546771E-02  0.1353064E+00
         -1   -1    0    0    0  501 -0.00000000000E+00  0.00000000000E+00  0.85917081180E+02  0.85917081180E+02  0.00000000000E+00 0.  1.
          1   -1    0    0  501    0  0.00000000000E+00 -0.00000000000E+00 -0.15130063517E+02  0.15130063517E+02  0.00000000000E+00 0. -1.
         23    2    1    2    0    0  0.00000000000E+00  0.00000000000E+00  0.70787017662E+02  0.10104714470E+03  0.72109108869E+02 0.  0.
        -11    1    3    3    0    0  0.92372665972E+01 -0.10750529563E+02 -0.11062155452E+02  0.17979773729E+02  0.00000000000E+00 0. -1.
         11    1    3    3    0    0 -0.92372665972E+01  0.10750529563E+02  0.81849173115E+02  0.83067370969E+02  0.00000000000E+00 0.  1.
<mgrwt>
<rscale>  0 0.72109109E+02</rscale>
<asrwt>0</asrwt>
<pdfrwt beam="2">  1        1 0.23277021E-02 0.72109109E+02</pdfrwt>
<pdfrwt beam="1">  1       -1 0.13218012E-01 0.72109109E+02</pdfrwt>
<totfact> 0.15221779E+05</totfact>
</mgrwt>
</event>
<event>
 5    1  0.1265228E+001  0.9171406E+02  0.7546771E-02  0.1298753E+00
         -2   -1    0    0    0  501 -0.00000000000E+00  0.00000000000E+00  0.96647219452E+01  0.96647219452E+01  0.00000000000E+00 0.  1.
          2   -1    0    0  501    0  0.00000000000E+00 -0.00000000000E+00 -0.21758174353E+03  0.21758174353E+03  0.00000000000E+00 0. -1.
         23    2    1    2    0    0  0.00000000000E+00  0.00000000000E+00 -0.20791702158E+03  0.22724646547E+03  0.91714056753E+02 0.  0.
        -11    1    3    3    0    0  0.33791404348E+02 -0.23482471370E+02 -0.15410395038E+03  0.15950333223E+03  0.00000000000E+00 0. -1.
         11    1    3    3    0    0 -0.33791404348E+02  0.23482471370E+02 -0.53813071203E+02  0.67743133244E+02  0.00000000000E+00 0.  1.
<mgrwt>
<rscale>  0 0.91714057E+02</rscale>
<asrwt>0</asrwt>
<pdfrwt beam="2">  1        2 0.33474113E-01 0.91714057E+02</pdfrwt>
<pdfrwt beam="1">  1       -2 0.14868804E-02 0.91714057E+02</pdfrwt>
<totfact> 0.15699330E+05</totfact>
</mgrwt>
</event>
<event>
 5    1  0.1265228E+001  0.8939954E+02  0.7546771E-02  0.1304312E+00
          1   -1    0    0  501    0  0.00000000000E+00  0.00000000000E+00  0.25824578839E+02  0.25824578839E+02  0.00000000000E+00 0. -1.
         -1   -1    0    0    0  501 -0.00000000000E+00 -0.00000000000E+00 -0.77370843970E+02  0.77370843970E+02  0.00000000000E+00 0.  1.
         23    2    1    2    0    0  0.00000000000E+00  0.00000000000E+00 -0.51546265131E+02  0.10319542281E+03  0.89399540490E+02 0.  0.
        -11    1    3    3    0    0 -0.11996411004E+02  0.38739628032E+02 -0.40732963294E+01  0.40758611360E+02  0.00000000000E+00 0. -1.
         11    1    3    3    0    0  0.11996411004E+02 -0.38739628032E+02 -0.47472968802E+02  0.62436811449E+02  0.00000000000E+00 0.  1.
<mgrwt>
<rscale>  0 0.89399540E+02</rscale>
<asrwt>0</asrwt>
<pdfrwt beam="1">  1        1 0.39730121E-02 0.89399540E+02</pdfrwt>
<pdfrwt beam="2">  1       -1 0.11903207E-01 0.89399540E+02</pdfrwt>
<totfact> 0.89517568E+04</totfact>
</mgrwt>
</event>
<event>
 5    1  0.1265228E+001  0.9219845E+02  0.7546771E-02  0.1297613E+00
         -1   -1    0    0    0  501 -0.00000000000E+00  0.00000000000E+00  0.15233383290E+02  0.15233383290E+02  0.00000000000E+00 0.  1.
          1   -1    0    0  501    0  0.00000000000E+00 -0.00000000000E+00 -0.13950536599E+03  0.13950536599E+03  0.00000000000E+00 0. -1.
         23    2    1    2    0    0  0.00000000000E+00  0.00000000000E+00 -0.12427198270E+03  0.15473874928E+03  0.92198453592E+02 0.  0.
        -13    1    3    3    0    0 -0.45859960584E+02 -0.14948984697E+01 -0.54673963489E+02  0.71376557705E+02  0.00000000000E+00 0.  1.
         13    1    3    3    0    0  0.45859960584E+02  0.14948984697E+01 -0.69598019214E+02  0.83362191578E+02  0.00000000000E+00 0. -1.
<mgrwt>
<rscale>  0 0.92198454E+02</rscale>
<asrwt>0</asrwt>
<pdfrwt beam="2">  1        1 0.21462363E-01 0.92198454E+02</pdfrwt>
<pdfrwt beam="1">  1       -1 0.23435975E-02 0.92198454E+02</pdfrwt>
<totfact> 0.10737196E+05</totfact>
</mgrwt>
</event>
<event>
 5    1  0.1265228E+001  0.9245712E+02  0.7546771E-02  0.1297008E+00
         -2   -1    0    0    0  501 -0.00000000000E+00  0.00000000000E+00  0.16218929599E+02  0.16218929599E+02  0.00000000000E+00 0.  1.
          2   -1    0    0  501    0  0.00000000000E+00 -0.00000000000E+00 -0.13176452669E+03  0.13176452669E+03  0.00000000000E+00 0. -1.
         23    2    1    2    0    0  0.00000000000E+00  0.00000000000E+00 -0.11554559709E+03  0.14798345629E+03  0.92457116158E+02 0.  0.
        -11    1    3    3    0    0 -0.10649562392E+02  0.42502344347E+02 -0.34183237650E+02  0.55572980758E+02  0.00000000000E+00 0. -1.
         11    1    3    3    0    0  0.10649562392E+02 -0.42502344347E+02 -0.81362359444E+02  0.92410475534E+02  0.00000000000E+00 0.  1.
<mgrwt>
<rscale>  0 0.92457116E+02</rscale>
<asrwt>0</asrwt>
<pdfrwt beam="2">  1        2 0.20271466E-01 0.92457116E+02</pdfrwt>
<pdfrwt beam="1">  1       -2 0.24952199E-02 0.92457116E+02</pdfrwt>
<totfact> 0.12887180E+05</totfact>
</mgrwt>
</event>
<event>
 5    1  0.1265228E+001  0.5809001E+02  0.7546771E-02  0.1406026E+00
         -4   -1    0    0    0  501 -0.00000000000E+00  0.00000000000E+00  0.37428554946E+02  0.37428554946E+02  0.00000000000E+00 0.  1.
          4   -1    0    0  501    0  0.00000000000E+00 -0.00000000000E+00 -0.22539273529E+02  0.22539273529E+02  0.00000000000E+00 0. -1.
         23    2    1    2    0    0  0.00000000000E+00  0.00000000000E+00  0.14889281418E+02  0.59967828475E+02  0.58090014209E+02 0.  0.
        -13    1    3    3    0    0  0.24517699810E+02 -0.28402621401E+01 -0.83613362563E+01  0.26059482670E+02  0.00000000000E+00 0. -1.
         13    1    3    3    0    0 -0.24517699810E+02  0.28402621401E+01  0.23250617674E+02  0.33908345805E+02  0.00000000000E+00 0.  1.
<mgrwt>
<rscale>  0 0.58090014E+02</rscale>
<asrwt>0</asrwt>
<pdfrwt beam="2">  1        4 0.34675806E-02 0.58090014E+02</pdfrwt>
<pdfrwt beam="1">  1       -4 0.57582392E-02 0.58090014E+02</pdfrwt>
<totfact> 0.95944088E+04</totfact>
</mgrwt>
</event>
<event>
 5    1  0.1265228E+001  0.9082306E+02  0.7546771E-02  0.1300871E+00
          2   -1    0    0  501    0  0.00000000000E+00  0.00000000000E+00  0.22649516558E+03  0.22649516558E+03  0.00000000000E+00 0. -1.
         -2   -1    0    0    0  501 -0.00000000000E+00 -0.00000000000E+00 -0.91048617234E+01  0.91048617234E+01  0.00000000000E+00 0.  1.
         23    2    1    2    0    0  0.00000000000E+00  0.00000000000E+00  0.21739030385E+03  0.23560002730E+03  0.90823062348E+02 0.  0.
        -11    1    3    3    0    0 -0.71475590001E+01 -0.44557581542E+02  0.95533935074E+02  0.10565603827E+03  0.00000000000E+00 0. -1.
         11    1    3    3    0    0  0.71475590001E+01  0.44557581542E+02  0.12185636878E+03  0.12994398903E+03  0.00000000000E+00 0.  1.
<mgrwt>
<rscale>  0 0.90823062E+02</rscale>
<asrwt>0</asrwt>
<pdfrwt beam="1">  1        2 0.34845406E-01 0.90823062E+02</pdfrwt>
<pdfrwt beam="2">  1       -2 0.14007481E-02 0.90823062E+02</pdfrwt>
<totfact> 0.16355561E+05</totfact>
</mgrwt>
</event>
<event>
 5    1  0.1265228E+001  0.8185319E+02  0.7546771E-02  0.1323873E+00
          1   -1    0    0  501    0  0.00000000000E+00  0.00000000000E+00  0.19731031588E+02  0.19731031588E+02  0.00000000000E+00 0. -1.
         -1   -1    0    0    0  501 -0.00000000000E+00 -0.00000000000E+00 -0.84890966071E+02  0.84890966071E+02  0.00000000000E+00 0.  1.
         23    2    1    2    0    0  0.00000000000E+00  0.00000000000E+00 -0.65159934484E+02  0.10462199766E+03  0.81853193781E+02 0.  0.
        -11    1    3    3    0    0 -0.93102645691E+00  0.35786640620E+02 -0.72272590256E+01  0.36521003959E+02  0.00000000000E+00 0. -1.
         11    1    3    3    0    0  0.93102645691E+00 -0.35786640620E+02 -0.57932675458E+02  0.68100993700E+02  0.00000000000E+00 0.  1.
<mgrwt>
<rscale>  0 0.81853194E+02</rscale>
<asrwt>0</asrwt>
<pdfrwt beam="1">  1        1 0.30355433E-02 0.81853194E+02</pdfrwt>
<pdfrwt beam="2">  1       -1 0.13060149E-01 0.81853194E+02</pdfrwt>
<totfact> 0.11043044E+05</totfact>
</mgrwt>
</event>
<event>
 5    1  0.1265228E+001  0.9717799E+02  0.7546771E-02  0.1286345E+00
          1   -1    0    0  501    0  0.00000000000E+00  0.00000000000E+00  0.17514047737E+02  0.17514047737E+02  0.00000000000E+00 0. -1.
         -1   -1    0    0    0  501 -0.00000000000E+00 -0.00000000000E+00 -0.13479980828E+03  0.13479980828E+03  0.00000000000E+00 0.  1.
         23    2    1    2    0    0  0.00000000000E+00  0.00000000000E+00 -0.11728576054E+03  0.15231385602E+03  0.97177986750E+02 0.  0.
        -13    1    3    3    0    0  0.45219087625E+02  0.17180877563E+02 -0.51470242308E+02  0.70633804108E+02  0.00000000000E+00 0.  1.
         13    1    3    3    0    0 -0.45219087625E+02 -0.17180877563E+02 -0.65815518235E+02  0.81680051910E+02  0.00000000000E+00 0. -1.
<mgrwt>
<rscale>  0 0.97177987E+02</rscale>
<asrwt>0</asrwt>
<pdfrwt beam="1">  1        1 0.26944689E-02 0.97177987E+02</pdfrwt>
<pdfrwt beam="2">  1       -1 0.20738432E-01 0.97177987E+02</pdfrwt>
<totfact> 0.64933401E+04</totfact>
</mgrwt>
</event>
<event>
 5    1  0.1265228E+001  0.9275939E+02  0.7546771E-02  0.1296304E+00
         -2   -1    0    0    0  501 -0.00000000000E+00  0.00000000000E+00  0.14789829366E+02  0.14789829366E+02  0.00000000000E+00 0.  1.
          2   -1    0    0  501    0  0.00000000000E+00 -0.00000000000E+00 -0.14544291728E+03  0.14544291728E+03  0.00000000000E+00 0. -1.
         23    2    1    2    0    0  0.00000000000E+00  0.00000000000E+00 -0.13065308792E+03  0.16023274665E+03  0.92759386136E+02 0.  0.
        -11    1    3    3    0    0  0.31106963448E+01 -0.28196652260E+02 -0.19436412687E+01  0.28434228876E+02  0.00000000000E+00 0.  1.
         11    1    3    3    0    0 -0.31106963448E+01  0.28196652260E+02 -0.12870944665E+03  0.13179851777E+03  0.00000000000E+00 0. -1.
<mgrwt>
<rscale>  0 0.92759386E+02</rscale>
<asrwt>0</asrwt>
<pdfrwt beam="2">  1        2 0.22375834E-01 0.92759386E+02</pdfrwt>
<pdfrwt beam="1">  1       -2 0.22753583E-02 0.92759386E+02</pdfrwt>
<totfact> 0.13202417E+05</totfact>
</mgrwt>
</event>
<event>
 5    1  0.1265228E+001  0.9046143E+02  0.7546771E-02  0.1301738E+00
         -1   -1    0    0    0  501 -0.00000000000E+00  0.00000000000E+00  0.20165784631E+03  0.20165784631E+03  0.00000000000E+00 0.  1.
          1   -1    0    0  501    0  0.00000000000E+00 -0.00000000000E+00 -0.10144993813E+02  0.10144993813E+02  0.00000000000E+00 0. -1.
         23    2    1    2    0    0  0.00000000000E+00  0.00000000000E+00  0.19151285250E+03  0.21180284012E+03  0.90461430523E+02 0.  0.
        -11    1    3    3    0    0 -0.35957528391E+02 -0.17521786654E+02  0.14519522935E+03  0.15060415493E+03  0.00000000000E+00 0.  1.
         11    1    3    3    0    0  0.35957528391E+02  0.17521786654E+02  0.46317623147E+02  0.61198685195E+02  0.00000000000E+00 0. -1.
<mgrwt>
<rscale>  0 0.90461431E+02</rscale>
<asrwt>0</asrwt>
<pdfrwt beam="2">  1        1 0.15607684E-02 0.90461431E+02</pdfrwt>
<pdfrwt beam="1">  1       -1 0.31024281E-01 0.90461431E+02</pdfrwt>
<totfact> 0.70695584E+04</totfact>
</mgrwt>
</event>
<event>
 5    1  0.1265228E+001  0.9154043E+02  0.7546771E-02  0.1299164E+00
         -2   -1    0    0    0  501 -0.00000000000E+00  0.00000000000E+00  0.89956367403E+02  0.89956367403E+02  0.00000000000E+00 0.  1.
          2   -1    0    0  501    0  0.00000000000E+00 -0.00000000000E+00 -0.23288095415E+02  0.23288095415E+02  0.00000000000E+00 0. -1.
         23    2    1    2    0    0  0.00000000000E+00  0.00000000000E+00  0.66668271988E+02  0.11324446282E+03  0.91540427511E+02 0.  0.
        -13    1    3    3    0    0  0.22028120720E+02  0.19562228569E+02  0.76667777341E+02  0.82133226964E+02  0.00000000000E+00 0.  1.
         13    1    3    3    0    0 -0.22028120720E+02 -0.19562228569E+02 -0.99995053529E+01  0.31111235854E+02  0.00000000000E+00 0. -1.
<mgrwt>
<rscale>  0 0.91540428E+02</rscale>
<asrwt>0</asrwt>
<pdfrwt beam="2">  1        2 0.35827839E-02 0.91540428E+02</pdfrwt>
<pdfrwt beam="1">  1       -2 0.13839441E-01 0.91540428E+02</pdfrwt>
<totfact> 0.81508520E+04</totfact>
</mgrwt>
</event>
<event>
 5    1  0.1265228E+001  0.9034256E+02  0.7546771E-02  0.1302024E+00
         -1   -1    0    0    0  501 -0.00000000000E+00  0.00000000000E+00  0.67311935395E+01  0.67311935395E+01  0.00000000000E+00 0.  1.
          1   -1    0    0  501    0  0.00000000000E+00 -0.00000000000E+00 -0.30313261768E+03  0.30313261768E+03  0.00000000000E+00 0. -1.
         23    2    1    2    0    0  0.00000000000E+00  0.00000000000E+00 -0.29640142414E+03  0.30986381122E+03  0.90342555150E+02 0.  0.
        -11    1    3    3    0    0 -0.41736056405E+02 -0.16901730366E+02 -0.16050886797E+03  0.16670531963E+03  0.00000000000E+00 0.  1.
         11    1    3    3    0    0  0.41736056405E+02  0.16901730366E+02 -0.13589255617E+03  0.14315849160E+03  0.00000000000E+00 0. -1.
<mgrwt>
<rscale>  0 0.90342555E+02</rscale>
<asrwt>0</asrwt>
<pdfrwt beam="2">  1        1 0.46635775E-01 0.90342555E+02</pdfrwt>
<pdfrwt beam="1">  1       -1 0.10355685E-02 0.90342555E+02</pdfrwt>
<totfact> 0.13155529E+05</totfact>
</mgrwt>
</event>
<event>
 5    1  0.1265228E+001  0.9122348E+02  0.7546771E-02  0.1299916E+00
          1   -1    0    0  501    0  0.00000000000E+00  0.00000000000E+00  0.52775882847E+02  0.52775882847E+02  0.00000000000E+00 0.  1.
         -1   -1    0    0    0  501 -0.00000000000E+00 -0.00000000000E+00 -0.39420104248E+02  0.39420104248E+02  0.00000000000E+00 0. -1.
         23    2    1    2    0    0  0.00000000000E+00  0.00000000000E+00  0.13355778599E+02  0.92195987095E+02  0.91223479513E+02 0.  0.
        -13    1    3    3    0    0 -0.14334715240E+02 -0.22991222242E+02 -0.30405928936E+02  0.40725923877E+02  0.00000000000E+00 0. -1.
         13    1    3    3    0    0  0.14334715240E+02  0.22991222242E+02  0.43761707535E+02  0.51470063217E+02  0.00000000000E+00 0.  1.
<mgrwt>
<rscale>  0 0.91223480E+02</rscale>
<asrwt>0</asrwt>
<pdfrwt beam="1">  1        1 0.81193666E-02 0.91223480E+02</pdfrwt>
<pdfrwt beam="2">  1       -1 0.60646314E-02 0.91223480E+02</pdfrwt>
<totfact> 0.94392567E+04</totfact>
</mgrwt>
</event>
<event>
 5    1  0.1265228E+001  0.9350765E+02  0.7546771E-02  0.1294573E+00
         -1   -1    0    0    0  501 -0.00000000000E+00  0.00000000000E+00  0.64367179694E+02  0.64367179694E+02  0.00000000000E+00 0. -1.
          1   -1    0    0  501    0  0.00000000000E+00 -0.00000000000E+00 -0.33960167143E+02  0.33960167143E+02  0.00000000000E+00 0.  1.
         23    2    1    2    0    0  0.00000000000E+00  0.00000000000E+00  0.30407012551E+02  0.98327346838E+02  0.93507650617E+02 0.  0.
        -11    1    3    3    0    0 -0.39816537623E+02  0.82983196850E+01 -0.90436649036E+01  0.41665413148E+02  0.00000000000E+00 0.  1.
         11    1    3    3    0    0  0.39816537623E+02 -0.82983196850E+01  0.39450677454E+02  0.56661933690E+02  0.00000000000E+00 0. -1.
<mgrwt>
<rscale>  0 0.93507651E+02</rscale>
<asrwt>0</asrwt>
<pdfrwt beam="2">  1        1 0.52246411E-02 0.93507651E+02</pdfrwt>
<pdfrwt beam="1">  1       -1 0.99026430E-02 0.93507651E+02</pdfrwt>
<totfact> 0.82251264E+04</totfact>
</mgrwt>
</event>
<event>
 5    1  0.1265228E+001  0.9360142E+02  0.7546771E-02  0.1294357E+00
         -3   -1    0    0    0  501 -0.00000000000E+00  0.00000000000E+00  0.43520049913E+02  0.43520049913E+02  0.00000000000E+00 0.  1.
          3   -1    0    0  501    0  0.00000000000E+00 -0.00000000000E+00 -0.50328671014E+02  0.50328671014E+02  0.00000000000E+00 0. -1.
         23    2    1    2    0    0  0.00000000000E+00  0.00000000000E+00 -0.68086211006E+01  0.93848720927E+02  0.93601416113E+02 0.  0.
        -13    1    3    3    0    0 -0.37420093834E+02  0.24452220583E+02  0.10493472241E+02  0.45916091664E+02  0.00000000000E+00 0.  1.
         13    1    3    3    0    0  0.37420093834E+02 -0.24452220583E+02 -0.17302093341E+02  0.47932629263E+02  0.00000000000E+00 0. -1.
<mgrwt>
<rscale>  0 0.93601416E+02</rscale>
<asrwt>0</asrwt>
<pdfrwt beam="2">  1        3 0.77428724E-02 0.93601416E+02</pdfrwt>
<pdfrwt beam="1">  1       -3 0.66953923E-02 0.93601416E+02</pdfrwt>
<totfact> 0.32702799E+04</totfact>
</mgrwt>
</event>
<event>
 5    1  0.1265228E+001  0.8771266E+02  0.7546771E-02  0.1308487E+00
         -3   -1    0    0    0  501 -0.00000000000E+00  0.00000000000E+00  0.11529075546E+02  0.11529075546E+02  0.00000000000E+00 0.  1.
          3   -1    0    0  501    0  0.00000000000E+00 -0.00000000000E+00 -0.16682843728E+03  0.16682843728E+03  0.00000000000E+00 0. -1.
         23    2    1    2    0    0  0.00000000000E+00  0.00000000000E+00 -0.15529936173E+03  0.17835751282E+03  0.87712659442E+02 0.  0.
        -11    1    3    3    0    0  0.36051663904E+02  0.24768015837E+02 -0.84144117981E+02  0.94833589353E+02  0.00000000000E+00 0.  1.
         11    1    3    3    0    0 -0.36051663904E+02 -0.24768015837E+02 -0.71155243749E+02  0.83523923470E+02  0.00000000000E+00 0. -1.
<mgrwt>
<rscale>  0 0.87712659E+02</rscale>
<asrwt>0</asrwt>
<pdfrwt beam="2">  1        3 0.25665915E-01 0.87712659E+02</pdfrwt>
<pdfrwt beam="1">  1       -3 0.17737038E-02 0.87712659E+02</pdfrwt>
<totfact> 0.32916147E+04</totfact>
</mgrwt>
</event>
<event>
 5    1  0.1265228E+001  0.8956110E+02  0.7546771E-02  0.1303918E+00
          4   -1    0    0  501    0  0.00000000000E+00  0.00000000000E+00  0.48704123785E+02  0.48704123785E+02  0.00000000000E+00 0. -1.
         -4   -1    0    0    0  501 -0.00000000000E+00 -0.00000000000E+00 -0.41173055303E+02  0.41173055303E+02  0.00000000000E+00 0.  1.
         23    2    1    2    0    0  0.00000000000E+00  0.00000000000E+00  0.75310684822E+01  0.89877179087E+02  0.89561098297E+02 0.  0.
        -13    1    3    3    0    0  0.57497234761E+01 -0.40910198505E+02 -0.13575320595E+02  0.43485549221E+02  0.00000000000E+00 0.  1.
         13    1    3    3    0    0 -0.57497234761E+01  0.40910198505E+02  0.21106389078E+02  0.46391629866E+02  0.00000000000E+00 0. -1.
<mgrwt>
<rscale>  0 0.89561098E+02</rscale>
<asrwt>0</asrwt>
<pdfrwt beam="1">  1        4 0.74929421E-02 0.89561098E+02</pdfrwt>
<pdfrwt beam="2">  1       -4 0.63343162E-02 0.89561098E+02</pdfrwt>
<totfact> 0.28444583E+04</totfact>
</mgrwt>
</event>
<event>
 5    1  0.1265228E+001  0.8488001E+02  0.7546771E-02  0.1315747E+00
         -1   -1    0    0    0  501 -0.00000000000E+00  0.00000000000E+00  0.13444100483E+03  0.13444100483E+03  0.00000000000E+00 0.  1.
          1   -1    0    0  501    0  0.00000000000E+00 -0.00000000000E+00 -0.13397356596E+02  0.13397356596E+02  0.00000000000E+00 0. -1.
         23    2    1    2    0    0  0.00000000000E+00  0.00000000000E+00  0.12104364823E+03  0.14783836142E+03  0.84880011375E+02 0.  0.
        -13    1    3    3    0    0  0.20621148569E+02  0.19398596461E+02  0.11558971941E+03  0.11900638868E+03  0.00000000000E+00 0.  1.
         13    1    3    3    0    0 -0.20621148569E+02 -0.19398596461E+02  0.54539288260E+01  0.28831972749E+02  0.00000000000E+00 0. -1.
<mgrwt>
<rscale>  0 0.84880011E+02</rscale>
<asrwt>0</asrwt>
<pdfrwt beam="2">  1        1 0.20611319E-02 0.84880011E+02</pdfrwt>
<pdfrwt beam="1">  1       -1 0.20683231E-01 0.84880011E+02</pdfrwt>
<totfact> 0.92240306E+04</totfact>
</mgrwt>
</event>
<event>
 5    1  0.1265228E+001  0.9032725E+02  0.7546771E-02  0.1302061E+00
          1   -1    0    0  501    0  0.00000000000E+00  0.00000000000E+00  0.55430673227E+02  0.55430673227E+02  0.00000000000E+00 0. -1.
         -1   -1    0    0    0  501 -0.00000000000E+00 -0.00000000000E+00 -0.36798270086E+02  0.36798270086E+02  0.00000000000E+00 0.  1.
         23    2    1    2    0    0  0.00000000000E+00  0.00000000000E+00  0.18632403141E+02  0.92228943313E+02  0.90327246930E+02 0.  0.
        -11    1    3    3    0    0 -0.42841481001E+02 -0.67742243145E+01  0.22169730076E+02  0.48711184969E+02  0.00000000000E+00 0.  1.
         11    1    3    3    0    0  0.42841481001E+02  0.67742243145E+01 -0.35373269350E+01  0.43517758344E+02  0.00000000000E+00 0. -1.
<mgrwt>
<rscale>  0 0.90327247E+02</rscale>
<asrwt>0</asrwt>
<pdfrwt beam="1">  1        1 0.85277959E-02 0.90327247E+02</pdfrwt>
<pdfrwt beam="2">  1       -1 0.56612723E-02 0.90327247E+02</pdfrwt>
<totfact> 0.97736491E+04</totfact>
</mgrwt>
</event>
<event>
 5    1  0.1265228E+001  0.9178532E+02  0.7546771E-02  0.1298585E+00
          4   -1    0    0  501    0  0.00000000000E+00  0.00000000000E+00  0.34806304128E+02  0.34806304128E+02  0.00000000000E+00 0. -1.
         -4   -1    0    0    0  501 -0.00000000000E+00 -0.00000000000E+00 -0.60510197597E+02  0.60510197597E+02  0.00000000000E+00 0.  1.
         23    2    1    2    0    0  0.00000000000E+00  0.00000000000E+00 -0.25703893469E+02  0.95316501726E+02  0.91785322147E+02 0.  0.
        -11    1    3    3    0    0  0.37566520276E+02 -0.19679704355E+02 -0.31065283937E+02  0.52569820955E+02  0.00000000000E+00 0.  1.
         11    1    3    3    0    0 -0.37566520276E+02  0.19679704355E+02  0.53613904672E+01  0.42746680771E+02  0.00000000000E+00 0. -1.
<mgrwt>
<rscale>  0 0.91785322E+02</rscale>
<asrwt>0</asrwt>
<pdfrwt beam="1">  1        4 0.53548161E-02 0.91785322E+02</pdfrwt>
<pdfrwt beam="2">  1       -4 0.93092611E-02 0.91785322E+02</pdfrwt>
<totfact> 0.26272312E+04</totfact>
</mgrwt>
</event>
<event>
 5    1  0.1265228E+001  0.9215414E+02  0.7546771E-02  0.1297717E+00
          1   -1    0    0  501    0  0.00000000000E+00  0.00000000000E+00  0.65851462049E+02  0.65851462049E+02  0.00000000000E+00 0. -1.
         -1   -1    0    0    0  501 -0.00000000000E+00 -0.00000000000E+00 -0.32240685153E+02  0.32240685153E+02  0.00000000000E+00 0.  1.
         23    2    1    2    0    0  0.00000000000E+00  0.00000000000E+00  0.33610776896E+02  0.98092147202E+02  0.92154137287E+02 0.  0.
        -13    1    3    3    0    0 -0.30458049947E+00  0.44979268643E+02  0.61680129897E+01  0.45401230833E+02  0.00000000000E+00 0. -1.
         13    1    3    3    0    0  0.30458049947E+00 -0.44979268643E+02  0.27442763906E+02  0.52690916368E+02  0.00000000000E+00 0.  1.
<mgrwt>
<rscale>  0 0.92154137E+02</rscale>
<asrwt>0</asrwt>
<pdfrwt beam="1">  1        1 0.10130994E-01 0.92154137E+02</pdfrwt>
<pdfrwt beam="2">  1       -1 0.49601054E-02 0.92154137E+02</pdfrwt>
<totfact> 0.94901818E+04</totfact>
</mgrwt>
</event>
<event>
 5    1  0.1265228E+001  0.9035122E+02  0.7546771E-02  0.1302003E+00
          2   -1    0    0  501    0  0.00000000000E+00  0.00000000000E+00  0.76418842872E+01  0.76418842872E+01  0.00000000000E+00 0. -1.
         -2   -1    0    0    0  501 -0.00000000000E+00 -0.00000000000E+00 -0.26705925021E+03  0.26705925021E+03  0.00000000000E+00 0.  1.
         23    2    1    2    0    0  0.00000000000E+00  0.00000000000E+00 -0.25941736592E+03  0.27470113450E+03  0.90351223300E+02 0.  0.
        -11    1    3    3    0    0  0.24875207977E+02 -0.32420522709E+02 -0.18826794438E+03  0.19265171981E+03  0.00000000000E+00 0.  1.
         11    1    3    3    0    0 -0.24875207977E+02  0.32420522709E+02 -0.71149421541E+02  0.82049414685E+02  0.00000000000E+00 0. -1.
<mgrwt>
<rscale>  0 0.90351223E+02</rscale>
<asrwt>0</asrwt>
<pdfrwt beam="1">  1        2 0.11756744E-02 0.90351223E+02</pdfrwt>
<pdfrwt beam="2">  1       -2 0.41086041E-01 0.90351223E+02</pdfrwt>
<totfact> 0.55600687E+04</totfact>
</mgrwt>
</event>
<event>
 5    1  0.1265228E+001  0.9118256E+02  0.7546771E-02  0.1300013E+00
          1   -1    0    0  501    0  0.00000000000E+00  0.00000000000E+00  0.19236138173E+03  0.19236138173E+03  0.00000000000E+00 0. -1.
         -1   -1    0    0    0  501 -0.00000000000E+00 -0.00000000000E+00 -0.10805519322E+02  0.10805519322E+02  0.00000000000E+00 0.  1.
         23    2    1    2    0    0  0.00000000000E+00  0.00000000000E+00  0.18155586241E+03  0.20316690105E+03  0.91182555944E+02 0.  0.
        -11    1    3    3    0    0 -0.11818332883E+02 -0.33413740371E+02  0.26880068264E+02  0.44482458426E+02  0.00000000000E+00 0.  1.
         11    1    3    3    0    0  0.11818332883E+02  0.33413740371E+02  0.15467579415E+03  0.15868444263E+03  0.00000000000E+00 0. -1.
<mgrwt>
<rscale>  0 0.91182556E+02</rscale>
<asrwt>0</asrwt>
<pdfrwt beam="1">  1        1 0.29594056E-01 0.91182556E+02</pdfrwt>
<pdfrwt beam="2">  1       -1 0.16623877E-02 0.91182556E+02</pdfrwt>
<totfact> 0.11749722E+05</totfact>
</mgrwt>
</event>
<event>
 5    1  0.1265228E+001  0.9087066E+02  0.7546771E-02  0.1300757E+00
          1   -1    0    0  501    0  0.00000000000E+00  0.00000000000E+00  0.18723773325E+03  0.18723773325E+03  0.00000000000E+00 0. -1.
         -1   -1    0    0    0  501 -0.00000000000E+00 -0.00000000000E+00 -0.11025390028E+02  0.11025390028E+02  0.00000000000E+00 0.  1.
         23    2    1    2    0    0  0.00000000000E+00  0.00000000000E+00  0.17621234322E+03  0.19826312328E+03  0.90870656144E+02 0.  0.
        -13    1    3    3    0    0  0.37987249138E+02  0.67027942585E+00  0.33740451450E+02  0.50812384668E+02  0.00000000000E+00 0.  1.
         13    1    3    3    0    0 -0.37987249138E+02 -0.67027942585E+00  0.14247189177E+03  0.14745073861E+03  0.00000000000E+00 0. -1.
<mgrwt>
<rscale>  0 0.90870656E+02</rscale>
<asrwt>0</asrwt>
<pdfrwt beam="1">  1        1 0.28805803E-01 0.90870656E+02</pdfrwt>
<pdfrwt beam="2">  1       -1 0.16962140E-02 0.90870656E+02</pdfrwt>
<totfact> 0.11796751E+05</totfact>
</mgrwt>
</event>
<event>
 5    1  0.1265228E+001  0.1133058E+03  0.7546771E-02  0.1254568E+00
          3   -1    0    0  501    0  0.00000000000E+00  0.00000000000E+00  0.19240765988E+02  0.19240765988E+02  0.00000000000E+00 0. -1.
         -3   -1    0    0    0  501 -0.00000000000E+00 -0.00000000000E+00 -0.16680983242E+03  0.16680983242E+03  0.00000000000E+00 0.  1.
         23    2    1    2    0    0  0.00000000000E+00  0.00000000000E+00 -0.14756906643E+03  0.18605059841E+03  0.11330576243E+03 0.  0.
        -11    1    3    3    0    0 -0.40194612922E+02 -0.15575897775E+02 -0.13414607683E+03  0.14090204196E+03  0.00000000000E+00 0.  1.
         11    1    3    3    0    0  0.40194612922E+02  0.15575897775E+02 -0.13422989602E+02  0.45148556448E+02  0.00000000000E+00 0. -1.
<mgrwt>
<rscale>  0 0.11330576E+03</rscale>
<asrwt>0</asrwt>
<pdfrwt beam="1">  1        3 0.29601179E-02 0.11330576E+03</pdfrwt>
<pdfrwt beam="2">  1       -3 0.25663051E-01 0.11330576E+03</pdfrwt>
<totfact> 0.16127625E+04</totfact>
</mgrwt>
</event>
<event>
 5    1  0.1265228E+001  0.9114900E+02  0.7546771E-02  0.1300093E+00
         -1   -1    0    0    0  501 -0.00000000000E+00  0.00000000000E+00  0.12316022388E+03  0.12316022388E+03  0.00000000000E+00 0.  1.
          1   -1    0    0  501    0  0.00000000000E+00 -0.00000000000E+00 -0.16864494331E+02  0.16864494331E+02  0.00000000000E+00 0. -1.
         23    2    1    2    0    0  0.00000000000E+00  0.00000000000E+00  0.10629572955E+03  0.14002471821E+03  0.91148996646E+02 0.  0.
        -11    1    3    3    0    0  0.32568044561E+01 -0.25069361760E+02  0.11140183055E+03  0.11423417844E+03  0.00000000000E+00 0.  1.
         11    1    3    3    0    0 -0.32568044561E+01  0.25069361760E+02 -0.51061009979E+01  0.25790539772E+02  0.00000000000E+00 0. -1.
<mgrwt>
<rscale>  0 0.91148997E+02</rscale>
<asrwt>0</asrwt>
<pdfrwt beam="2">  1        1 0.25945377E-02 0.91148997E+02</pdfrwt>
<pdfrwt beam="1">  1       -1 0.18947726E-01 0.91148997E+02</pdfrwt>
<totfact> 0.78172813E+04</totfact>
</mgrwt>
</event>
<event>
 5    1  0.1265228E+001  0.9931155E+02  0.7546771E-02  0.1281750E+00
          2   -1    0    0  501    0  0.00000000000E+00  0.00000000000E+00  0.61650969253E+02  0.61650969253E+02  0.00000000000E+00 0. -1.
         -2   -1    0    0    0  501 -0.00000000000E+00 -0.00000000000E+00 -0.39994438711E+02  0.39994438711E+02  0.00000000000E+00 0.  1.
         23    2    1    2    0    0  0.00000000000E+00  0.00000000000E+00  0.21656530542E+02  0.10164540796E+03  0.99311548397E+02 0.  0.
        -13    1    3    3    0    0  0.13371632326E+02  0.22157613506E+02 -0.32546124780E+02  0.41581373540E+02  0.00000000000E+00 0.  1.
         13    1    3    3    0    0 -0.13371632326E+02 -0.22157613506E+02  0.54202655322E+02  0.60064034424E+02  0.00000000000E+00 0. -1.
<mgrwt>
<rscale>  0 0.99311548E+02</rscale>
<asrwt>0</asrwt>
<pdfrwt beam="1">  1        2 0.94847645E-02 0.99311548E+02</pdfrwt>
<pdfrwt beam="2">  1       -2 0.61529906E-02 0.99311548E+02</pdfrwt>
<totfact> 0.83818310E+04</totfact>
</mgrwt>
</event>
<event>
 5    1  0.1265228E+001  0.9586746E+02  0.7546771E-02  0.1289234E+00
          1   -1    0    0  501    0  0.00000000000E+00  0.00000000000E+00  0.15649673281E+02  0.15649673281E+02  0.00000000000E+00 0. -1.
         -1   -1    0    0    0  501 -0.00000000000E+00 -0.00000000000E+00 -0.14681727711E+03  0.14681727711E+03  0.00000000000E+00 0.  1.
         23    2    1    2    0    0  0.00000000000E+00  0.00000000000E+00 -0.13116760383E+03  0.16246695039E+03  0.95867458897E+02 0.  0.
        -13    1    3    3    0    0 -0.34704557819E+02 -0.30553620065E+02 -0.44166581217E+02  0.63942293741E+02  0.00000000000E+00 0.  1.
         13    1    3    3    0    0  0.34704557819E+02  0.30553620065E+02 -0.87001022613E+02  0.98524656651E+02  0.00000000000E+00 0. -1.
<mgrwt>
<rscale>  0 0.95867459E+02</rscale>
<asrwt>0</asrwt>
<pdfrwt beam="1">  1        1 0.24076421E-02 0.95867459E+02</pdfrwt>
<pdfrwt beam="2">  1       -1 0.22587273E-01 0.95867459E+02</pdfrwt>
<totfact> 0.65972352E+04</totfact>
</mgrwt>
</event>
<event>
 5    1  0.1265228E+001  0.9231807E+02  0.7546771E-02  0.1297333E+00
          1   -1    0    0  501    0  0.00000000000E+00  0.00000000000E+00  0.27269396048E+03  0.27269396048E+03  0.00000000000E+00 0. -1.
         -1   -1    0    0    0  501 -0.00000000000E+00 -0.00000000000E+00 -0.78133616915E+01  0.78133616915E+01  0.00000000000E+00 0.  1.
         23    2    1    2    0    0  0.00000000000E+00  0.00000000000E+00  0.26488059879E+03  0.28050732218E+03  0.92318070698E+02 0.  0.
        -13    1    3    3    0    0  0.23485119566E+02  0.38356601365E+02  0.10088141950E+03  0.11045288819E+03  0.00000000000E+00 0. -1.
         13    1    3    3    0    0 -0.23485119566E+02 -0.38356601365E+02  0.16399917929E+03  0.17005443399E+03  0.00000000000E+00 0.  1.
<mgrwt>
<rscale>  0 0.92318071E+02</rscale>
<asrwt>0</asrwt>
<pdfrwt beam="1">  1        1 0.41952910E-01 0.92318071E+02</pdfrwt>
<pdfrwt beam="2">  1       -1 0.12020559E-02 0.92318071E+02</pdfrwt>
<totfact> 0.12167407E+05</totfact>
</mgrwt>
</event>
<event>
 5    1  0.1265228E+001  0.9523687E+02  0.7546771E-02  0.1290643E+00
         -2   -1    0    0    0  501 -0.00000000000E+00  0.00000000000E+00  0.20562484097E+03  0.20562484097E+03  0.00000000000E+00 0.  1.
          2   -1    0    0  501    0  0.00000000000E+00 -0.00000000000E+00 -0.11027438926E+02  0.11027438926E+02  0.00000000000E+00 0. -1.
         23    2    1    2    0    0  0.00000000000E+00  0.00000000000E+00  0.19459740204E+03  0.21665227989E+03  0.95236870495E+02 0.  0.
        -11    1    3    3    0    0  0.36689911193E+02  0.13454238844E+02  0.15919667980E+03  0.16392299713E+03  0.00000000000E+00 0.  1.
         11    1    3    3    0    0 -0.36689911193E+02 -0.13454238844E+02  0.35400722237E+02  0.52729282767E+02  0.00000000000E+00 0. -1.
<mgrwt>
<rscale>  0 0.95236870E+02</rscale>
<asrwt>0</asrwt>
<pdfrwt beam="2">  1        2 0.16965292E-02 0.95236870E+02</pdfrwt>
<pdfrwt beam="1">  1       -2 0.31634588E-01 0.95236870E+02</pdfrwt>
<totfact> 0.55073845E+04</totfact>
</mgrwt>
</event>
<event>
 5    1  0.1265228E+001  0.9053216E+02  0.7546771E-02  0.1301568E+00
         -1   -1    0    0    0  501 -0.00000000000E+00  0.00000000000E+00  0.49503176408E+02  0.49503176408E+02  0.00000000000E+00 0.  1.
          1   -1    0    0  501    0  0.00000000000E+00 -0.00000000000E+00 -0.41391642805E+02  0.41391642805E+02  0.00000000000E+00 0. -1.
         23    2    1    2    0    0  0.00000000000E+00  0.00000000000E+00  0.81115336035E+01  0.90894819213E+02  0.90532155516E+02 0.  0.
        -11    1    3    3    0    0  0.25392811412E+02 -0.25911154313E+02  0.31235135983E+02  0.47872920415E+02  0.00000000000E+00 0.  1.
         11    1    3    3    0    0 -0.25392811412E+02  0.25911154313E+02 -0.23123602379E+02  0.43021898798E+02  0.00000000000E+00 0. -1.
<mgrwt>
<rscale>  0 0.90532156E+02</rscale>
<asrwt>0</asrwt>
<pdfrwt beam="2">  1        1 0.63679450E-02 0.90532156E+02</pdfrwt>
<pdfrwt beam="1">  1       -1 0.76158733E-02 0.90532156E+02</pdfrwt>
<totfact> 0.92975014E+04</totfact>
</mgrwt>
</event>
<event>
 5    1  0.1265228E+001  0.9084544E+02  0.7546771E-02  0.1300817E+00
         -2   -1    0    0    0  501 -0.00000000000E+00  0.00000000000E+00  0.92897548744E+02  0.92897548744E+02  0.00000000000E+00 0.  1.
          2   -1    0    0  501    0  0.00000000000E+00 -0.00000000000E+00 -0.22209663443E+02  0.22209663443E+02  0.00000000000E+00 0. -1.
         23    2    1    2    0    0  0.00000000000E+00  0.00000000000E+00  0.70687885301E+02  0.11510721219E+03  0.90845435599E+02 0.  0.
        -11    1    3    3    0    0  0.13236863090E+02  0.24078482003E+02  0.81173153718E+02  0.85697542115E+02  0.00000000000E+00 0.  1.
         11    1    3    3    0    0 -0.13236863090E+02 -0.24078482003E+02 -0.10485268416E+02  0.29409670073E+02  0.00000000000E+00 0. -1.
<mgrwt>
<rscale>  0 0.90845436E+02</rscale>
<asrwt>0</asrwt>
<pdfrwt beam="2">  1        2 0.34168713E-02 0.90845436E+02</pdfrwt>
<pdfrwt beam="1">  1       -2 0.14291930E-01 0.90845436E+02</pdfrwt>
<totfact> 0.82294418E+04</totfact>
</mgrwt>
</event>
<event>
 5    1  0.1265228E+001  0.9034890E+02  0.7546771E-02  0.1302009E+00
          1   -1    0    0  501    0  0.00000000000E+00  0.00000000000E+00  0.16433729178E+03  0.16433729178E+03  0.00000000000E+00 0. -1.
         -1   -1    0    0    0  501 -0.00000000000E+00 -0.00000000000E+00 -0.12417940646E+02  0.12417940646E+02  0.00000000000E+00 0.  1.
         23    2    1    2    0    0  0.00000000000E+00  0.00000000000E+00  0.15191935113E+03  0.17675523243E+03  0.90348895627E+02 0.  0.
        -13    1    3    3    0    0  0.28186616921E+02 -0.35301622329E+02  0.75564399383E+02  0.88037880294E+02  0.00000000000E+00 0.  1.
         13    1    3    3    0    0 -0.28186616921E+02  0.35301622329E+02  0.76354951751E+02  0.88717352132E+02  0.00000000000E+00 0. -1.
<mgrwt>
<rscale>  0 0.90348896E+02</rscale>
<asrwt>0</asrwt>
<pdfrwt beam="1">  1        1 0.25282659E-01 0.90348896E+02</pdfrwt>
<pdfrwt beam="2">  1       -1 0.19104525E-02 0.90348896E+02</pdfrwt>
<totfact> 0.11688030E+05</totfact>
</mgrwt>
</event>
<event>
 5    1  0.1265228E+001  0.8940988E+02  0.7546771E-02  0.1304287E+00
         -3   -1    0    0    0  501 -0.00000000000E+00  0.00000000000E+00  0.36742463337E+02  0.36742463337E+02  0.00000000000E+00 0.  1.
          3   -1    0    0  501    0  0.00000000000E+00 -0.00000000000E+00 -0.54392972981E+02  0.54392972981E+02  0.00000000000E+00 0. -1.
         23    2    1    2    0    0  0.00000000000E+00  0.00000000000E+00 -0.17650509644E+02  0.91135436319E+02  0.89409883471E+02 0.  0.
        -13    1    3    3    0    0  0.32697600301E+02 -0.30398069568E+02 -0.11184248417E+02  0.46024592465E+02  0.00000000000E+00 0.  1.
         13    1    3    3    0    0 -0.32697600301E+02  0.30398069568E+02 -0.64662612274E+01  0.45110843854E+02  0.00000000000E+00 0. -1.
<mgrwt>
<rscale>  0 0.89409883E+02</rscale>
<asrwt>0</asrwt>
<pdfrwt beam="2">  1        3 0.83681497E-02 0.89409883E+02</pdfrwt>
<pdfrwt beam="1">  1       -3 0.56526866E-02 0.89409883E+02</pdfrwt>
<totfact> 0.37272206E+04</totfact>
</mgrwt>
</event>
<event>
 5    1  0.1265228E+001  0.9063826E+02  0.7546771E-02  0.1301313E+00
         -3   -1    0    0    0  501 -0.00000000000E+00  0.00000000000E+00  0.15609937824E+03  0.15609937824E+03  0.00000000000E+00 0.  1.
          3   -1    0    0  501    0  0.00000000000E+00 -0.00000000000E+00 -0.13157153872E+02  0.13157153872E+02  0.00000000000E+00 0. -1.
         23    2    1    2    0    0  0.00000000000E+00  0.00000000000E+00  0.14294222436E+03  0.16925653211E+03  0.90638259886E+02 0.  0.
        -13    1    3    3    0    0 -0.43518019705E+02  0.11063471711E+02  0.60019748290E+02  0.74957245347E+02  0.00000000000E+00 0. -1.
         13    1    3    3    0    0  0.43518019705E+02 -0.11063471711E+02  0.82922476074E+02  0.94299286761E+02  0.00000000000E+00 0.  1.
<mgrwt>
<rscale>  0 0.90638260E+02</rscale>
<asrwt>0</asrwt>
<pdfrwt beam="2">  1        3 0.20241776E-02 0.90638260E+02</pdfrwt>
<pdfrwt beam="1">  1       -3 0.24015288E-01 0.90638260E+02</pdfrwt>
<totfact> 0.30655927E+04</totfact>
</mgrwt>
</event>
<event>
 5    1  0.1265228E+001  0.9016254E+02  0.7546771E-02  0.1302459E+00
          2   -1    0    0  501    0  0.00000000000E+00  0.00000000000E+00  0.38026772780E+03  0.38026772780E+03  0.00000000000E+00 0. -1.
         -2   -1    0    0    0  501 -0.00000000000E+00 -0.00000000000E+00 -0.53444480821E+01  0.53444480821E+01  0.00000000000E+00 0.  1.
         23    2    1    2    0    0  0.00000000000E+00  0.00000000000E+00  0.37492327971E+03  0.38561217588E+03  0.90162544962E+02 0.  0.
        -11    1    3    3    0    0 -0.38835825490E+02  0.22549962749E+02  0.20435330627E+03  0.20922952934E+03  0.00000000000E+00 0.  1.
         11    1    3    3    0    0  0.38835825490E+02 -0.22549962749E+02  0.17056997344E+03  0.17638264654E+03  0.00000000000E+00 0. -1.
<mgrwt>
<rscale>  0 0.90162545E+02</rscale>
<asrwt>0</asrwt>
<pdfrwt beam="1">  1        2 0.58502706E-01 0.90162545E+02</pdfrwt>
<pdfrwt beam="2">  1       -2 0.82222308E-03 0.90162545E+02</pdfrwt>
<totfact> 0.20193046E+05</totfact>
</mgrwt>
</event>
<event>
 5    1  0.1265228E+001  0.8979485E+02  0.7546771E-02  0.1303349E+00
          1   -1    0    0  501    0  0.00000000000E+00  0.00000000000E+00  0.18270513085E+03  0.18270513085E+03  0.00000000000E+00 0. -1.
         -1   -1    0    0    0  501 -0.00000000000E+00 -0.00000000000E+00 -0.11032961571E+02  0.11032961571E+02  0.00000000000E+00 0.  1.
         23    2    1    2    0    0  0.00000000000E+00  0.00000000000E+00  0.17167216928E+03  0.19373809242E+03  0.89794848125E+02 0.  0.
        -11    1    3    3    0    0  0.33152273508E+02  0.12680268138E+01  0.20568536683E+02  0.39035187101E+02  0.00000000000E+00 0.  1.
         11    1    3    3    0    0 -0.33152273508E+02 -0.12680268138E+01  0.15110363259E+03  0.15470290532E+03  0.00000000000E+00 0. -1.
<mgrwt>
<rscale>  0 0.89794848E+02</rscale>
<asrwt>0</asrwt>
<pdfrwt beam="1">  1        1 0.28108480E-01 0.89794848E+02</pdfrwt>
<pdfrwt beam="2">  1       -1 0.16973788E-02 0.89794848E+02</pdfrwt>
<totfact> 0.12122411E+05</totfact>
</mgrwt>
</event>
<event>
 5    1  0.1265228E+001  0.9053049E+02  0.7546771E-02  0.1301572E+00
          2   -1    0    0  501    0  0.00000000000E+00  0.00000000000E+00  0.22406703371E+03  0.22406703371E+03  0.00000000000E+00 0. -1.
         -2   -1    0    0    0  501 -0.00000000000E+00 -0.00000000000E+00 -0.91443272009E+01  0.91443272009E+01  0.00000000000E+00 0.  1.
         23    2    1    2    0    0  0.00000000000E+00  0.00000000000E+00  0.21492270651E+03  0.23321136091E+03  0.90530487046E+02 0.  0.
        -11    1    3    3    0    0  0.14943706595E+02 -0.28020196954E+02  0.24366303651E+02  0.40027022844E+02  0.00000000000E+00 0.  1.
         11    1    3    3    0    0 -0.14943706595E+02  0.28020196954E+02  0.19055640286E+03  0.19318433807E+03  0.00000000000E+00 0. -1.
<mgrwt>
<rscale>  0 0.90530487E+02</rscale>
<asrwt>0</asrwt>
<pdfrwt beam="1">  1        2 0.34471847E-01 0.90530487E+02</pdfrwt>
<pdfrwt beam="2">  1       -2 0.14068197E-02 0.90530487E+02</pdfrwt>
<totfact> 0.16432558E+05</totfact>
</mgrwt>
</event>
<event>
 5    1  0.1265228E+001  0.9267095E+02  0.7546771E-02  0.1296510E+00
         -2   -1    0    0    0  501 -0.00000000000E+00  0.00000000000E+00  0.75067935015E+01  0.75067935015E+01  0.00000000000E+00 0.  1.
          2   -1    0    0  501    0  0.00000000000E+00 -0.00000000000E+00 -0.28600443533E+03  0.28600443533E+03  0.00000000000E+00 0. -1.
         23    2    1    2    0    0  0.00000000000E+00  0.00000000000E+00 -0.27849764183E+03  0.29351122883E+03  0.92670949850E+02 0.  0.
        -11    1    3    3    0    0  0.23618965392E+02  0.29340543201E+02 -0.53777125738E+02  0.65655938453E+02  0.00000000000E+00 0.  1.
         11    1    3    3    0    0 -0.23618965392E+02 -0.29340543201E+02 -0.22472051609E+03  0.22785529038E+03  0.00000000000E+00 0. -1.
<mgrwt>
<rscale>  0 0.92670950E+02</rscale>
<asrwt>0</asrwt>
<pdfrwt beam="2">  1        2 0.44000679E-01 0.92670950E+02</pdfrwt>
<pdfrwt beam="1">  1       -2 0.11548914E-02 0.92670950E+02</pdfrwt>
<totfact> 0.16898014E+05</totfact>
</mgrwt>
</event>
<event>
 5    1  0.1265228E+001  0.9055000E+02  0.7546771E-02  0.1301525E+00
          3   -1    0    0  501    0  0.00000000000E+00  0.00000000000E+00  0.27160109167E+02  0.27160109167E+02  0.00000000000E+00 0. -1.
         -3   -1    0    0    0  501 -0.00000000000E+00 -0.00000000000E+00 -0.75471921990E+02  0.75471921990E+02  0.00000000000E+00 0.  1.
         23    2    1    2    0    0  0.00000000000E+00  0.00000000000E+00 -0.48311812823E+02  0.10263203116E+03  0.90550000337E+02 0.  0.
        -11    1    3    3    0    0 -0.34799877380E+02  0.28413963422E+02 -0.17800524453E+02  0.48324356735E+02  0.00000000000E+00 0.  1.
         11    1    3    3    0    0  0.34799877380E+02 -0.28413963422E+02 -0.30511288371E+02  0.54307674422E+02  0.00000000000E+00 0. -1.
<mgrwt>
<rscale>  0 0.90550000E+02</rscale>
<asrwt>0</asrwt>
<pdfrwt beam="1">  1        3 0.41784784E-02 0.90550000E+02</pdfrwt>
<pdfrwt beam="2">  1       -3 0.11611065E-01 0.90550000E+02</pdfrwt>
<totfact> 0.35131050E+04</totfact>
</mgrwt>
</event>
<event>
 5    1  0.1265228E+001  0.9262057E+02  0.7546771E-02  0.1296627E+00
         -1   -1    0    0    0  501 -0.00000000000E+00  0.00000000000E+00  0.69276331495E+02  0.69276331495E+02  0.00000000000E+00 0.  1.
          1   -1    0    0  501    0  0.00000000000E+00 -0.00000000000E+00 -0.30957792375E+02  0.30957792375E+02  0.00000000000E+00 0. -1.
         23    2    1    2    0    0  0.00000000000E+00  0.00000000000E+00  0.38318539120E+02  0.10023412387E+03  0.92620565469E+02 0.  0.
        -13    1    3    3    0    0  0.17611423849E+02 -0.40405195786E+02  0.37820953430E+01  0.44238516495E+02  0.00000000000E+00 0. -1.
         13    1    3    3    0    0 -0.17611423849E+02  0.40405195786E+02  0.34536443777E+02  0.55995607375E+02  0.00000000000E+00 0.  1.
<mgrwt>
<rscale>  0 0.92620565E+02</rscale>
<asrwt>0</asrwt>
<pdfrwt beam="2">  1        1 0.47627373E-02 0.92620565E+02</pdfrwt>
<pdfrwt beam="1">  1       -1 0.10657897E-01 0.92620565E+02</pdfrwt>
<totfact> 0.83278829E+04</totfact>
</mgrwt>
</event>
<event>
 5    1  0.1265228E+001  0.9429162E+02  0.7546771E-02  0.1292780E+00
          2   -1    0    0  501    0  0.00000000000E+00  0.00000000000E+00  0.12450631825E+03  0.12450631825E+03  0.00000000000E+00 0. -1.
         -2   -1    0    0    0  501 -0.00000000000E+00 -0.00000000000E+00 -0.17852326850E+02  0.17852326850E+02  0.00000000000E+00 0.  1.
         23    2    1    2    0    0  0.00000000000E+00  0.00000000000E+00  0.10665399140E+03  0.14235864510E+03  0.94291621860E+02 0.  0.
        -11    1    3    3    0    0 -0.58434183341E+00  0.46458180699E+02  0.65407369559E+02  0.80229844833E+02  0.00000000000E+00 0. -1.
         11    1    3    3    0    0  0.58434183341E+00 -0.46458180699E+02  0.41246621840E+02  0.62128800265E+02  0.00000000000E+00 0.  1.
<mgrwt>
<rscale>  0 0.94291622E+02</rscale>
<asrwt>0</asrwt>
<pdfrwt beam="1">  1        2 0.19154818E-01 0.94291622E+02</pdfrwt>
<pdfrwt beam="2">  1       -2 0.27465119E-02 0.94291622E+02</pdfrwt>
<totfact> 0.11986486E+05</totfact>
</mgrwt>
</event>
<event>
 5    1  0.1265228E+001  0.8309548E+02  0.7546771E-02  0.1320490E+00
          3   -1    0    0  501    0  0.00000000000E+00  0.00000000000E+00  0.11684612830E+02  0.11684612830E+02  0.00000000000E+00 0. -1.
         -3   -1    0    0    0  501 -0.00000000000E+00 -0.00000000000E+00 -0.14773402226E+03  0.14773402226E+03  0.00000000000E+00 0.  1.
         23    2    1    2    0    0  0.00000000000E+00  0.00000000000E+00 -0.13604940943E+03  0.15941863509E+03  0.83095483679E+02 0.  0.
        -11    1    3    3    0    0  0.31589407220E+02  0.20028015571E+02 -0.33321453086E+02  0.50093226009E+02  0.00000000000E+00 0. -1.
         11    1    3    3    0    0 -0.31589407220E+02 -0.20028015571E+02 -0.10272795634E+03  0.10932540908E+03  0.00000000000E+00 0.  1.
<mgrwt>
<rscale>  0 0.83095484E+02</rscale>
<asrwt>0</asrwt>
<pdfrwt beam="1">  1        3 0.17976327E-02 0.83095484E+02</pdfrwt>
<pdfrwt beam="2">  1       -3 0.22728312E-01 0.83095484E+02</pdfrwt>
<totfact> 0.39451404E+04</totfact>
</mgrwt>
</event>
<event>
 5    1  0.1265228E+001  0.9239419E+02  0.7546771E-02  0.1297155E+00
         -1   -1    0    0    0  501 -0.00000000000E+00  0.00000000000E+00  0.84364905713E+01  0.84364905713E+01  0.00000000000E+00 0.  1.
          1   -1    0    0  501    0  0.00000000000E+00 -0.00000000000E+00 -0.25296912307E+03  0.25296912307E+03  0.00000000000E+00 0. -1.
         23    2    1    2    0    0  0.00000000000E+00  0.00000000000E+00 -0.24453263250E+03  0.26140561364E+03  0.92394190762E+02 0.  0.
        -11    1    3    3    0    0  0.20249915378E+01  0.42978947514E+02 -0.16985155043E+03  0.17521655088E+03  0.00000000000E+00 0.  1.
         11    1    3    3    0    0 -0.20249915378E+01 -0.42978947514E+02 -0.74681082074E+02  0.86189062763E+02  0.00000000000E+00 0. -1.
<mgrwt>
<rscale>  0 0.92394191E+02</rscale>
<asrwt>0</asrwt>
<pdfrwt beam="2">  1        1 0.38918323E-01 0.92394191E+02</pdfrwt>
<pdfrwt beam="1">  1       -1 0.12979218E-02 0.92394191E+02</pdfrwt>
<totfact> 0.11963429E+05</totfact>
</mgrwt>
</event>
<event>
 5    1  0.1265228E+001  0.9208385E+02  0.7546771E-02  0.1297882E+00
         -1   -1    0    0    0  501 -0.00000000000E+00  0.00000000000E+00  0.12330124879E+03  0.12330124879E+03  0.00000000000E+00 0.  1.
          1   -1    0    0  501    0  0.00000000000E+00 -0.00000000000E+00 -0.17192518760E+02  0.17192518760E+02  0.00000000000E+00 0. -1.
         23    2    1    2    0    0  0.00000000000E+00  0.00000000000E+00  0.10610873003E+03  0.14049376755E+03  0.92083853807E+02 0.  0.
        -13    1    3    3    0    0  0.29961993887E+02  0.32004750920E+02  0.31594652497E+02  0.54039311853E+02  0.00000000000E+00 0. -1.
         13    1    3    3    0    0 -0.29961993887E+02 -0.32004750920E+02  0.74514077536E+02  0.86454455699E+02  0.00000000000E+00 0.  1.
<mgrwt>
<rscale>  0 0.92083854E+02</rscale>
<asrwt>0</asrwt>
<pdfrwt beam="2">  1        1 0.26450030E-02 0.92083854E+02</pdfrwt>
<pdfrwt beam="1">  1       -1 0.18969422E-01 0.92083854E+02</pdfrwt>
<totfact> 0.76116082E+04</totfact>
</mgrwt>
</event>
<event>
 5    1  0.1265228E+001  0.9025221E+02  0.7546771E-02  0.1302242E+00
          2   -1    0    0  501    0  0.00000000000E+00  0.00000000000E+00  0.32670469536E+02  0.32670469536E+02  0.00000000000E+00 0. -1.
         -2   -1    0    0    0  501 -0.00000000000E+00 -0.00000000000E+00 -0.62330461575E+02  0.62330461575E+02  0.00000000000E+00 0.  1.
         23    2    1    2    0    0  0.00000000000E+00  0.00000000000E+00 -0.29659992039E+02  0.95000931111E+02  0.90252212074E+02 0.  0.
        -13    1    3    3    0    0  0.14961889292E+02 -0.63401537259E+01 -0.59143880567E+02  0.61335587460E+02  0.00000000000E+00 0.  1.
         13    1    3    3    0    0 -0.14961889292E+02  0.63401537259E+01  0.29483888528E+02  0.33665343652E+02  0.00000000000E+00 0. -1.
<mgrwt>
<rscale>  0 0.90252212E+02</rscale>
<asrwt>0</asrwt>
<pdfrwt beam="1">  1        2 0.50262261E-02 0.90252212E+02</pdfrwt>
<pdfrwt beam="2">  1       -2 0.95893018E-02 0.90252212E+02</pdfrwt>
<totfact> 0.93240972E+04</totfact>
</mgrwt>
</event>
<event>
 5    1  0.1265228E+001  0.9403562E+02  0.7546771E-02  0.1293363E+00
         -1   -1    0    0    0  501 -0.00000000000E+00  0.00000000000E+00  0.65635465165E+01  0.65635465165E+01  0.00000000000E+00 0.  1.
          1   -1    0    0  501    0  0.00000000000E+00 -0.00000000000E+00 -0.33681099190E+03  0.33681099190E+03  0.00000000000E+00 0. -1.
         23    2    1    2    0    0  0.00000000000E+00  0.00000000000E+00 -0.33024744538E+03  0.34337453842E+03  0.94035623305E+02 0.  0.
        -13    1    3    3    0    0  0.36462514843E+02  0.29615274074E+02 -0.17251316065E+03  0.17879421144E+03  0.00000000000E+00 0.  1.
         13    1    3    3    0    0 -0.36462514843E+02 -0.29615274074E+02 -0.15773428473E+03  0.16458032697E+03  0.00000000000E+00 0. -1.
<mgrwt>
<rscale>  0 0.94035623E+02</rscale>
<asrwt>0</asrwt>
<pdfrwt beam="2">  1        1 0.51817072E-01 0.94035623E+02</pdfrwt>
<pdfrwt beam="1">  1       -1 0.10097765E-02 0.94035623E+02</pdfrwt>
<totfact> 0.12057705E+05</totfact>
</mgrwt>
</event>
<event>
 5    1  0.1265228E+001  0.8652082E+02  0.7546771E-02  0.1311503E+00
         -4   -1    0    0    0  501 -0.00000000000E+00  0.00000000000E+00  0.20156178975E+02  0.20156178975E+02  0.00000000000E+00 0.  1.
          4   -1    0    0  501    0  0.00000000000E+00 -0.00000000000E+00 -0.92848100769E+02  0.92848100769E+02  0.00000000000E+00 0. -1.
         23    2    1    2    0    0  0.00000000000E+00  0.00000000000E+00 -0.72691921794E+02  0.11300427974E+03  0.86520816839E+02 0.  0.
        -13    1    3    3    0    0  0.17134480029E+02  0.35451215345E+02 -0.59749606831E+02  0.71556932521E+02  0.00000000000E+00 0. -1.
         13    1    3    3    0    0 -0.17134480029E+02 -0.35451215345E+02 -0.12942314963E+02  0.41447347224E+02  0.00000000000E+00 0.  1.
<mgrwt>
<rscale>  0 0.86520817E+02</rscale>
<asrwt>0</asrwt>
<pdfrwt beam="2">  1        4 0.14284323E-01 0.86520817E+02</pdfrwt>
<pdfrwt beam="1">  1       -4 0.31009507E-02 0.86520817E+02</pdfrwt>
<totfact> 0.29563514E+04</totfact>
</mgrwt>
</event>
<event>
 5    1  0.1265228E+001  0.9168672E+02  0.7546771E-02  0.1298818E+00
         -2   -1    0    0    0  501 -0.00000000000E+00  0.00000000000E+00  0.69073455466E+02  0.69073455466E+02  0.00000000000E+00 0. -1.
          2   -1    0    0  501    0  0.00000000000E+00 -0.00000000000E+00 -0.30425781267E+02  0.30425781267E+02  0.00000000000E+00 0.  1.
         23    2    1    2    0    0  0.00000000000E+00  0.00000000000E+00  0.38647674198E+02  0.99499236733E+02  0.91686724173E+02 0.  0.
        -11    1    3    3    0    0 -0.97044461172E+01 -0.20827357315E+02  0.62373383003E+02  0.66471001154E+02  0.00000000000E+00 0. -1.
         11    1    3    3    0    0  0.97044461172E+01  0.20827357315E+02 -0.23725708805E+02  0.33028235579E+02  0.00000000000E+00 0.  1.
<mgrwt>
<rscale>  0 0.91686724E+02</rscale>
<asrwt>0</asrwt>
<pdfrwt beam="2">  1        2 0.46808894E-02 0.91686724E+02</pdfrwt>
<pdfrwt beam="1">  1       -2 0.10626685E-01 0.91686724E+02</pdfrwt>
<totfact> 0.87341069E+04</totfact>
</mgrwt>
</event>
<event>
 5    1  0.1265228E+001  0.9213102E+02  0.7546771E-02  0.1297772E+00
         -2   -1    0    0    0  501 -0.00000000000E+00  0.00000000000E+00  0.69187820293E+01  0.69187820293E+01  0.00000000000E+00 0.  1.
          2   -1    0    0  501    0  0.00000000000E+00 -0.00000000000E+00 -0.30670590903E+03  0.30670590903E+03  0.00000000000E+00 0. -1.
         23    2    1    2    0    0  0.00000000000E+00  0.00000000000E+00 -0.29978712700E+03  0.31362469106E+03  0.92131022608E+02 0.  0.
        -13    1    3    3    0    0  0.40859063827E+02  0.12805384739E+02 -0.20772250756E+03  0.21208979495E+03  0.00000000000E+00 0. -1.
         13    1    3    3    0    0 -0.40859063827E+02 -0.12805384739E+02 -0.92064619446E+02  0.10153489611E+03  0.00000000000E+00 0.  1.
<mgrwt>
<rscale>  0 0.92131023E+02</rscale>
<asrwt>0</asrwt>
<pdfrwt beam="2">  1        2 0.47185533E-01 0.92131023E+02</pdfrwt>
<pdfrwt beam="1">  1       -2 0.10644278E-02 0.92131023E+02</pdfrwt>
<totfact> 0.17617778E+05</totfact>
</mgrwt>
</event>
<event>
 5    1  0.1265228E+001  0.9454753E+02  0.7546771E-02  0.1292198E+00
         -1   -1    0    0    0  501 -0.00000000000E+00  0.00000000000E+00  0.81468471866E+02  0.81468471866E+02  0.00000000000E+00 0.  1.
          1   -1    0    0  501    0  0.00000000000E+00 -0.00000000000E+00 -0.27431580440E+02  0.27431580440E+02  0.00000000000E+00 0. -1.
         23    2    1    2    0    0  0.00000000000E+00  0.00000000000E+00  0.54036891426E+02  0.10890005231E+03  0.94547531735E+02 0.  0.
        -13    1    3    3    0    0 -0.61613009664E+01 -0.31386063812E+02 -0.13076221444E+02  0.34554799934E+02  0.00000000000E+00 0. -1.
         13    1    3    3    0    0  0.61613009664E+01  0.31386063812E+02  0.67113112870E+02  0.74345252372E+02  0.00000000000E+00 0.  1.
<mgrwt>
<rscale>  0 0.94547532E+02</rscale>
<asrwt>0</asrwt>
<pdfrwt beam="2">  1        1 0.42202432E-02 0.94547532E+02</pdfrwt>
<pdfrwt beam="1">  1       -1 0.12533611E-01 0.94547532E+02</pdfrwt>
<totfact> 0.76887983E+04</totfact>
</mgrwt>
</event>
<event>
 5    1  0.1265228E+001  0.8977872E+02  0.7546771E-02  0.1303388E+00
         -1   -1    0    0    0  501 -0.00000000000E+00  0.00000000000E+00  0.63112649761E+02  0.63112649761E+02  0.00000000000E+00 0.  1.
          1   -1    0    0  501    0  0.00000000000E+00 -0.00000000000E+00 -0.31927907138E+02  0.31927907138E+02  0.00000000000E+00 0. -1.
         23    2    1    2    0    0  0.00000000000E+00  0.00000000000E+00  0.31184742624E+02  0.95040556899E+02  0.89778724001E+02 0.  0.
        -11    1    3    3    0    0 -0.42082006507E+02  0.14203128711E+02  0.22488026869E+02  0.49782883497E+02  0.00000000000E+00 0.  1.
         11    1    3    3    0    0  0.42082006507E+02 -0.14203128711E+02  0.86967157549E+01  0.45257673402E+02  0.00000000000E+00 0. -1.
<mgrwt>
<rscale>  0 0.89778724E+02</rscale>
<asrwt>0</asrwt>
<pdfrwt beam="2">  1        1 0.49119857E-02 0.89778724E+02</pdfrwt>
<pdfrwt beam="1">  1       -1 0.97096384E-02 0.89778724E+02</pdfrwt>
<totfact> 0.91499788E+04</totfact>
</mgrwt>
</event>
<event>
 5    1  0.1265228E+001  0.8717024E+02  0.7546771E-02  0.1309853E+00
          2   -1    0    0  501    0  0.00000000000E+00  0.00000000000E+00  0.31909100011E+03  0.31909100011E+03  0.00000000000E+00 0.  1.
         -2   -1    0    0    0  501 -0.00000000000E+00 -0.00000000000E+00 -0.59533572337E+01  0.59533572337E+01  0.00000000000E+00 0. -1.
         23    2    1    2    0    0  0.00000000000E+00  0.00000000000E+00  0.31313764288E+03  0.32504435735E+03  0.87170240650E+02 0.  0.
        -13    1    3    3    0    0 -0.36631091077E+02 -0.23515395499E+02  0.14835515172E+03  0.15460938426E+03  0.00000000000E+00 0.  1.
         13    1    3    3    0    0  0.36631091077E+02  0.23515395499E+02  0.16478249116E+03  0.17043497309E+03  0.00000000000E+00 0. -1.
<mgrwt>
<rscale>  0 0.87170241E+02</rscale>
<asrwt>0</asrwt>
<pdfrwt beam="1">  1        2 0.49090910E-01 0.87170241E+02</pdfrwt>
<pdfrwt beam="2">  1       -2 0.91590136E-03 0.87170241E+02</pdfrwt>
<totfact> 0.20713991E+05</totfact>
</mgrwt>
</event>
<event>
 5    1  0.1265228E+001  0.8562647E+02  0.7546771E-02  0.1313802E+00
          4   -1    0    0  501    0  0.00000000000E+00  0.00000000000E+00  0.16787375729E+02  0.16787375729E+02  0.00000000000E+00 0. -1.
         -4   -1    0    0    0  501 -0.00000000000E+00 -0.00000000000E+00 -0.10918759883E+03  0.10918759883E+03  0.00000000000E+00 0.  1.
         23    2    1    2    0    0  0.00000000000E+00  0.00000000000E+00 -0.92400223099E+02  0.12597497456E+03  0.85626473628E+02 0.  0.
        -11    1    3    3    0    0  0.21743583987E+02  0.29575453323E+02 -0.13783848421E+02  0.39210781185E+02  0.00000000000E+00 0. -1.
         11    1    3    3    0    0 -0.21743583987E+02 -0.29575453323E+02 -0.78616374678E+02  0.86764193371E+02  0.00000000000E+00 0.  1.
<mgrwt>
<rscale>  0 0.85626474E+02</rscale>
<asrwt>0</asrwt>
<pdfrwt beam="1">  1        4 0.25826732E-02 0.85626474E+02</pdfrwt>
<pdfrwt beam="2">  1       -4 0.16798092E-01 0.85626474E+02</pdfrwt>
<totfact> 0.29515356E+04</totfact>
</mgrwt>
</event>
<event>
 5    1  0.1265228E+001  0.1023723E+03  0.7546771E-02  0.1275385E+00
          4   -1    0    0  501    0  0.00000000000E+00  0.00000000000E+00  0.97789029824E+01  0.97789029824E+01  0.00000000000E+00 0.  1.
         -4   -1    0    0    0  501 -0.00000000000E+00 -0.00000000000E+00 -0.26792579665E+03  0.26792579665E+03  0.00000000000E+00 0. -1.
         23    2    1    2    0    0  0.00000000000E+00  0.00000000000E+00 -0.25814689367E+03  0.27770469964E+03  0.10237226913E+03 0.  0.
        -11    1    3    3    0    0  0.33572847833E+02  0.16850273503E+02 -0.22339382347E+03  0.22653006024E+03  0.00000000000E+00 0. -1.
         11    1    3    3    0    0 -0.33572847833E+02 -0.16850273503E+02 -0.34753070204E+02  0.51174639396E+02  0.00000000000E+00 0.  1.
<mgrwt>
<rscale>  0 0.10237227E+03</rscale>
<asrwt>0</asrwt>
<pdfrwt beam="1">  1        4 0.15044467E-02 0.10237227E+03</pdfrwt>
<pdfrwt beam="2">  1       -4 0.41219351E-01 0.10237227E+03</pdfrwt>
<totfact> 0.13572222E+04</totfact>
</mgrwt>
</event>
<event>
 5    1  0.1265228E+001  0.9192353E+02  0.7546771E-02  0.1298259E+00
         -3   -1    0    0    0  501 -0.00000000000E+00  0.00000000000E+00  0.18841044119E+02  0.18841044119E+02  0.00000000000E+00 0.  1.
          3   -1    0    0  501    0  0.00000000000E+00 -0.00000000000E+00 -0.11212136776E+03  0.11212136776E+03  0.00000000000E+00 0. -1.
         23    2    1    2    0    0  0.00000000000E+00  0.00000000000E+00 -0.93280323640E+02  0.13096241188E+03  0.91923525534E+02 0.  0.
        -13    1    3    3    0    0 -0.14750665751E+02  0.42348272957E+02 -0.32285033547E+02  0.55256508700E+02  0.00000000000E+00 0. -1.
         13    1    3    3    0    0  0.14750665751E+02 -0.42348272957E+02 -0.60995290093E+02  0.75705903178E+02  0.00000000000E+00 0.  1.
<mgrwt>
<rscale>  0 0.91923526E+02</rscale>
<asrwt>0</asrwt>
<pdfrwt beam="2">  1        3 0.17249441E-01 0.91923526E+02</pdfrwt>
<pdfrwt beam="1">  1       -3 0.28986222E-02 0.91923526E+02</pdfrwt>
<totfact> 0.31799780E+04</totfact>
</mgrwt>
</event>
<event>
 5    1  0.1265228E+001  0.9155036E+02  0.7546771E-02  0.1299140E+00
         -2   -1    0    0    0  501 -0.00000000000E+00  0.00000000000E+00  0.27736419946E+03  0.27736419946E+03  0.00000000000E+00 0.  1.
          2   -1    0    0  501    0  0.00000000000E+00 -0.00000000000E+00 -0.75545701180E+01  0.75545701180E+01  0.00000000000E+00 0. -1.
         23    2    1    2    0    0  0.00000000000E+00  0.00000000000E+00  0.26980962934E+03  0.28491876958E+03  0.91550364129E+02 0.  0.
        -13    1    3    3    0    0 -0.35537514322E+02 -0.16779685064E+02  0.61859020125E+02  0.73287182548E+02  0.00000000000E+00 0. -1.
         13    1    3    3    0    0  0.35537514322E+02  0.16779685064E+02  0.20795060922E+03  0.21163158703E+03  0.00000000000E+00 0.  1.
<mgrwt>
<rscale>  0 0.91550364E+02</rscale>
<asrwt>0</asrwt>
<pdfrwt beam="2">  1        2 0.11622418E-02 0.91550364E+02</pdfrwt>
<pdfrwt beam="1">  1       -2 0.42671408E-01 0.91550364E+02</pdfrwt>
<totfact> 0.52685096E+04</totfact>
</mgrwt>
</event>
<event>
 5    1  0.1265228E+001  0.8913665E+02  0.7546771E-02  0.1304956E+00
         -1   -1    0    0    0  501 -0.00000000000E+00  0.00000000000E+00  0.94094522113E+02  0.94094522113E+02  0.00000000000E+00 0.  1.
          1   -1    0    0  501    0  0.00000000000E+00 -0.00000000000E+00 -0.21110002851E+02  0.21110002851E+02  0.00000000000E+00 0. -1.
         23    2    1    2    0    0  0.00000000000E+00  0.00000000000E+00  0.72984519263E+02  0.11520452496E+03  0.89136650824E+02 0.  0.
        -11    1    3    3    0    0  0.27517088032E+02  0.29173147762E+02  0.61622753648E+02  0.73522965468E+02  0.00000000000E+00 0.  1.
         11    1    3    3    0    0 -0.27517088032E+02 -0.29173147762E+02  0.11361765615E+02  0.41681559496E+02  0.00000000000E+00 0. -1.
<mgrwt>
<rscale>  0 0.89136651E+02</rscale>
<asrwt>0</asrwt>
<pdfrwt beam="2">  1        1 0.32476928E-02 0.89136651E+02</pdfrwt>
<pdfrwt beam="1">  1       -1 0.14476080E-01 0.89136651E+02</pdfrwt>
<totfact> 0.87207797E+04</totfact>
</mgrwt>
</event>
<event>
 5    1  0.1265228E+001  0.9109811E+02  0.7546771E-02  0.1300214E+00
          3   -1    0    0  501    0  0.00000000000E+00  0.00000000000E+00  0.13153382851E+02  0.13153382851E+02  0.00000000000E+00 0. -1.
         -3   -1    0    0    0  501 -0.00000000000E+00 -0.00000000000E+00 -0.15773252836E+03  0.15773252836E+03  0.00000000000E+00 0.  1.
         23    2    1    2    0    0  0.00000000000E+00  0.00000000000E+00 -0.14457914551E+03  0.17088591121E+03  0.91098108293E+02 0.  0.
        -13    1    3    3    0    0  0.33673255082E+02 -0.16683656264E+01 -0.12974204026E+03  0.13405099240E+03  0.00000000000E+00 0.  1.
         13    1    3    3    0    0 -0.33673255082E+02  0.16683656264E+01 -0.14837105243E+02  0.36834918809E+02  0.00000000000E+00 0. -1.
<mgrwt>
<rscale>  0 0.91098108E+02</rscale>
<asrwt>0</asrwt>
<pdfrwt beam="1">  1        3 0.20235972E-02 0.91098108E+02</pdfrwt>
<pdfrwt beam="2">  1       -3 0.24266544E-01 0.91098108E+02</pdfrwt>
<totfact> 0.30146837E+04</totfact>
</mgrwt>
</event>
<event>
 5    1  0.1265228E+001  0.9792315E+02  0.7546771E-02  0.1284725E+00
         -1   -1    0    0    0  501 -0.00000000000E+00  0.00000000000E+00  0.40715029465E+02  0.40715029465E+02  0.00000000000E+00 0.  1.
          1   -1    0    0  501    0  0.00000000000E+00 -0.00000000000E+00 -0.58878404551E+02  0.58878404551E+02  0.00000000000E+00 0. -1.
         23    2    1    2    0    0  0.00000000000E+00  0.00000000000E+00 -0.18163375086E+02  0.99593434016E+02  0.97923153057E+02 0.  0.
        -11    1    3    3    0    0  0.12426042270E+02  0.19035578829E+02 -0.53185815299E+02  0.57840217297E+02  0.00000000000E+00 0. -1.
         11    1    3    3    0    0 -0.12426042270E+02 -0.19035578829E+02  0.35022440214E+02  0.41753216719E+02  0.00000000000E+00 0.  1.
<mgrwt>
<rscale>  0 0.97923153E+02</rscale>
<asrwt>0</asrwt>
<pdfrwt beam="2">  1        1 0.90582160E-02 0.97923153E+02</pdfrwt>
<pdfrwt beam="1">  1       -1 0.62638507E-02 0.97923153E+02</pdfrwt>
<totfact> 0.78725848E+04</totfact>
</mgrwt>
</event>
<event>
 5    1  0.1265228E+001  0.9108112E+02  0.7546771E-02  0.1300255E+00
          3   -1    0    0  501    0  0.00000000000E+00  0.00000000000E+00  0.29982386302E+02  0.29982386302E+02  0.00000000000E+00 0. -1.
         -3   -1    0    0    0  501 -0.00000000000E+00 -0.00000000000E+00 -0.69172033494E+02  0.69172033494E+02  0.00000000000E+00 0.  1.
         23    2    1    2    0    0  0.00000000000E+00  0.00000000000E+00 -0.39189647192E+02  0.99154419796E+02  0.91081120536E+02 0.  0.
        -11    1    3    3    0    0 -0.30799462072E+02 -0.11091763158E+02  0.14870664350E+02  0.35955121083E+02  0.00000000000E+00 0. -1.
         11    1    3    3    0    0  0.30799462072E+02  0.11091763158E+02 -0.54060311542E+02  0.63199298714E+02  0.00000000000E+00 0.  1.
<mgrwt>
<rscale>  0 0.91081121E+02</rscale>
<asrwt>0</asrwt>
<pdfrwt beam="1">  1        3 0.46126749E-02 0.91081121E+02</pdfrwt>
<pdfrwt beam="2">  1       -3 0.10641851E-01 0.91081121E+02</pdfrwt>
<totfact> 0.34834734E+04</totfact>
</mgrwt>
</event>
<event>
 5    1  0.1265228E+001  0.9000851E+02  0.7546771E-02  0.1302831E+00
          1   -1    0    0  501    0  0.00000000000E+00  0.00000000000E+00  0.15288744017E+03  0.15288744017E+03  0.00000000000E+00 0. -1.
         -1   -1    0    0    0  501 -0.00000000000E+00 -0.00000000000E+00 -0.13247543494E+02  0.13247543494E+02  0.00000000000E+00 0.  1.
         23    2    1    2    0    0  0.00000000000E+00  0.00000000000E+00  0.13963989668E+03  0.16613498367E+03  0.90008511004E+02 0.  0.
        -13    1    3    3    0    0 -0.31922826077E+02 -0.83635665324E-01  0.12837215082E+03  0.13228183143E+03  0.00000000000E+00 0. -1.
         13    1    3    3    0    0  0.31922826077E+02  0.83635665324E-01  0.11267745856E+02  0.33853152236E+02  0.00000000000E+00 0.  1.
<mgrwt>
<rscale>  0 0.90008511E+02</rscale>
<asrwt>0</asrwt>
<pdfrwt beam="1">  1        1 0.23521143E-01 0.90008511E+02</pdfrwt>
<pdfrwt beam="2">  1       -1 0.20380837E-02 0.90008511E+02</pdfrwt>
<totfact> 0.11650387E+05</totfact>
</mgrwt>
</event>
<event>
 5    1  0.1265228E+001  0.9112504E+02  0.7546771E-02  0.1300150E+00
          2   -1    0    0  501    0  0.00000000000E+00  0.00000000000E+00  0.60069099583E+02  0.60069099583E+02  0.00000000000E+00 0. -1.
         -2   -1    0    0    0  501 -0.00000000000E+00 -0.00000000000E+00 -0.34559252072E+02  0.34559252072E+02  0.00000000000E+00 0.  1.
         23    2    1    2    0    0  0.00000000000E+00  0.00000000000E+00  0.25509847511E+02  0.94628351655E+02  0.91125038364E+02 0.  0.
        -11    1    3    3    0    0  0.81470618711E+00 -0.38447143813E+02  0.38129910758E+02  0.54154747788E+02  0.00000000000E+00 0. -1.
         11    1    3    3    0    0 -0.81470618711E+00  0.38447143813E+02 -0.12620063247E+02  0.40473603867E+02  0.00000000000E+00 0.  1.
<mgrwt>
<rscale>  0 0.91125038E+02</rscale>
<asrwt>0</asrwt>
<pdfrwt beam="1">  1        2 0.92413999E-02 0.91125038E+02</pdfrwt>
<pdfrwt beam="2">  1       -2 0.53168080E-02 0.91125038E+02</pdfrwt>
<totfact> 0.10627245E+05</totfact>
</mgrwt>
</event>
<event>
 5    1  0.1265228E+001  0.9102001E+02  0.7546771E-02  0.1300400E+00
         -2   -1    0    0    0  501 -0.00000000000E+00  0.00000000000E+00  0.14675236068E+02  0.14675236068E+02  0.00000000000E+00 0.  1.
          2   -1    0    0  501    0  0.00000000000E+00 -0.00000000000E+00 -0.14113303794E+03  0.14113303794E+03  0.00000000000E+00 0. -1.
         23    2    1    2    0    0  0.00000000000E+00  0.00000000000E+00 -0.12645780188E+03  0.15580827401E+03  0.91020012058E+02 0.  0.
        -13    1    3    3    0    0 -0.20043239676E+02  0.21519671954E+02 -0.37740607462E+01  0.29649136113E+02  0.00000000000E+00 0.  1.
         13    1    3    3    0    0  0.20043239676E+02 -0.21519671954E+02 -0.12268374113E+03  0.12615913790E+03  0.00000000000E+00 0. -1.
<mgrwt>
<rscale>  0 0.91020012E+02</rscale>
<asrwt>0</asrwt>
<pdfrwt beam="2">  1        2 0.21712776E-01 0.91020012E+02</pdfrwt>
<pdfrwt beam="1">  1       -2 0.22577285E-02 0.91020012E+02</pdfrwt>
<totfact> 0.13760564E+05</totfact>
</mgrwt>
</event>
<event>
 5    1  0.1265228E+001  0.9129274E+02  0.7546771E-02  0.1299751E+00
          3   -1    0    0  501    0  0.00000000000E+00  0.00000000000E+00  0.26544943440E+03  0.26544943440E+03  0.00000000000E+00 0. -1.
         -3   -1    0    0    0  501 -0.00000000000E+00 -0.00000000000E+00 -0.78492950004E+01  0.78492950004E+01  0.00000000000E+00 0.  1.
         23    2    1    2    0    0  0.00000000000E+00  0.00000000000E+00  0.25760013940E+03  0.27329872940E+03  0.91292736147E+02 0.  0.
        -13    1    3    3    0    0  0.38265392590E+02 -0.24822877741E+02  0.13413464499E+03  0.14167751591E+03  0.00000000000E+00 0.  1.
         13    1    3    3    0    0 -0.38265392590E+02  0.24822877741E+02  0.12346549441E+03  0.13162121349E+03  0.00000000000E+00 0. -1.
<mgrwt>
<rscale>  0 0.91292736E+02</rscale>
<asrwt>0</asrwt>
<pdfrwt beam="1">  1        3 0.40838368E-01 0.91292736E+02</pdfrwt>
<pdfrwt beam="2">  1       -3 0.12075841E-02 0.91292736E+02</pdfrwt>
<totfact> 0.25016770E+04</totfact>
</mgrwt>
</event>
<event>
 5    1  0.1265228E+001  0.9088204E+02  0.7546771E-02  0.1300730E+00
          2   -1    0    0  501    0  0.00000000000E+00  0.00000000000E+00  0.33710722786E+03  0.33710722786E+03  0.00000000000E+00 0. -1.
         -2   -1    0    0    0  501 -0.00000000000E+00 -0.00000000000E+00 -0.61253106631E+01  0.61253106631E+01  0.00000000000E+00 0.  1.
         23    2    1    2    0    0  0.00000000000E+00  0.00000000000E+00  0.33098191720E+03  0.34323253852E+03  0.90882044375E+02 0.  0.
        -13    1    3    3    0    0  0.37035627348E+02  0.25457549142E+02  0.19087126898E+03  0.19609070815E+03  0.00000000000E+00 0.  1.
         13    1    3    3    0    0 -0.37035627348E+02 -0.25457549142E+02  0.14011064822E+03  0.14714183037E+03  0.00000000000E+00 0. -1.
<mgrwt>
<rscale>  0 0.90882044E+02</rscale>
<asrwt>0</asrwt>
<pdfrwt beam="1">  1        2 0.51862636E-01 0.90882044E+02</pdfrwt>
<pdfrwt beam="2">  1       -2 0.94235575E-03 0.90882044E+02</pdfrwt>
<totfact> 0.18921855E+05</totfact>
</mgrwt>
</event>
<event>
 5    1  0.1265228E+001  0.9295197E+02  0.7546771E-02  0.1295857E+00
         -1   -1    0    0    0  501 -0.00000000000E+00  0.00000000000E+00  0.18429801812E+03  0.18429801812E+03  0.00000000000E+00 0.  1.
          1   -1    0    0  501    0  0.00000000000E+00 -0.00000000000E+00 -0.11720241711E+02  0.11720241711E+02  0.00000000000E+00 0. -1.
         23    2    1    2    0    0  0.00000000000E+00  0.00000000000E+00  0.17257777641E+03  0.19601825983E+03  0.92951972959E+02 0.  0.
        -13    1    3    3    0    0  0.15746235287E+02 -0.26228546746E+02  0.16007130579E+03  0.16296841267E+03  0.00000000000E+00 0.  1.
         13    1    3    3    0    0 -0.15746235287E+02  0.26228546746E+02  0.12506470617E+02  0.33049847162E+02  0.00000000000E+00 0. -1.
<mgrwt>
<rscale>  0 0.92951973E+02</rscale>
<asrwt>0</asrwt>
<pdfrwt beam="2">  1        1 0.18031142E-02 0.92951973E+02</pdfrwt>
<pdfrwt beam="1">  1       -1 0.28353539E-01 0.92951973E+02</pdfrwt>
<totfact> 0.67538570E+04</totfact>
</mgrwt>
</event>
<event>
 5    1  0.1265228E+001  0.9051379E+02  0.7546771E-02  0.1301612E+00
          1   -1    0    0  501    0  0.00000000000E+00  0.00000000000E+00  0.64288837433E+02  0.64288837433E+02  0.00000000000E+00 0. -1.
         -1   -1    0    0    0  501 -0.00000000000E+00 -0.00000000000E+00 -0.31859128763E+02  0.31859128763E+02  0.00000000000E+00 0.  1.
         23    2    1    2    0    0  0.00000000000E+00  0.00000000000E+00  0.32429708670E+02  0.96147966196E+02  0.90513785686E+02 0.  0.
        -11    1    3    3    0    0 -0.39269572823E+02  0.17136959690E+02  0.73330215648E+00  0.42852216619E+02  0.00000000000E+00 0.  1.
         11    1    3    3    0    0  0.39269572823E+02 -0.17136959690E+02  0.31696406513E+02  0.53295749577E+02  0.00000000000E+00 0. -1.
<mgrwt>
<rscale>  0 0.90513786E+02</rscale>
<asrwt>0</asrwt>
<pdfrwt beam="1">  1        1 0.98905904E-02 0.90513786E+02</pdfrwt>
<pdfrwt beam="2">  1       -1 0.49014044E-02 0.90513786E+02</pdfrwt>
<totfact> 0.99371442E+04</totfact>
</mgrwt>
</event>
<event>
 5    1  0.1265228E+001  0.9050159E+02  0.7546771E-02  0.1301642E+00
          1   -1    0    0  501    0  0.00000000000E+00  0.00000000000E+00  0.82265426785E+02  0.82265426785E+02  0.00000000000E+00 0. -1.
         -1   -1    0    0    0  501 -0.00000000000E+00 -0.00000000000E+00 -0.24890582807E+02  0.24890582807E+02  0.00000000000E+00 0.  1.
         23    2    1    2    0    0  0.00000000000E+00  0.00000000000E+00  0.57374843978E+02  0.10715600959E+03  0.90501589325E+02 0.  0.
        -11    1    3    3    0    0 -0.38843118545E+02  0.11322422899E+02  0.46937968586E+01  0.40731030524E+02  0.00000000000E+00 0.  1.
         11    1    3    3    0    0  0.38843118545E+02 -0.11322422899E+02  0.52681047119E+02  0.66424979068E+02  0.00000000000E+00 0. -1.
<mgrwt>
<rscale>  0 0.90501589E+02</rscale>
<asrwt>0</asrwt>
<pdfrwt beam="1">  1        1 0.12656219E-01 0.90501589E+02</pdfrwt>
<pdfrwt beam="2">  1       -1 0.38293205E-02 0.90501589E+02</pdfrwt>
<totfact> 0.10327210E+05</totfact>
</mgrwt>
</event>
<event>
 5    1  0.1265228E+001  0.9353767E+02  0.7546771E-02  0.1294504E+00
         -1   -1    0    0    0  501 -0.00000000000E+00  0.00000000000E+00  0.68062079463E+02  0.68062079463E+02  0.00000000000E+00 0. -1.
          1   -1    0    0  501    0  0.00000000000E+00 -0.00000000000E+00 -0.32137189179E+02  0.32137189179E+02  0.00000000000E+00 0.  1.
         23    2    1    2    0    0  0.00000000000E+00  0.00000000000E+00  0.35924890284E+02  0.10019926864E+03  0.93537669922E+02 0.  0.
        -13    1    3    3    0    0 -0.13673892674E+02 -0.36966081457E+02 -0.90071103418E+01  0.40430119414E+02  0.00000000000E+00 0.  1.
         13    1    3    3    0    0  0.13673892674E+02  0.36966081457E+02  0.44932000626E+02  0.59769149228E+02  0.00000000000E+00 0. -1.
<mgrwt>
<rscale>  0 0.93537670E+02</rscale>
<asrwt>0</asrwt>
<pdfrwt beam="2">  1        1 0.49441830E-02 0.93537670E+02</pdfrwt>
<pdfrwt beam="1">  1       -1 0.10471089E-01 0.93537670E+02</pdfrwt>
<totfact> 0.81445957E+04</totfact>
</mgrwt>
</event>
<event>
 5    1  0.1265228E+001  0.9264141E+02  0.7546771E-02  0.1296578E+00
         -1   -1    0    0    0  501 -0.00000000000E+00  0.00000000000E+00  0.88588576708E+01  0.88588576708E+01  0.00000000000E+00 0.  1.
          1   -1    0    0  501    0  0.00000000000E+00 -0.00000000000E+00 -0.24219915389E+03  0.24219915389E+03  0.00000000000E+00 0. -1.
         23    2    1    2    0    0  0.00000000000E+00  0.00000000000E+00 -0.23334029622E+03  0.25105801156E+03  0.92641412604E+02 0.  0.
        -11    1    3    3    0    0  0.27511623190E+02  0.36888330137E+02 -0.13100230104E+03  0.13884970720E+03  0.00000000000E+00 0.  1.
         11    1    3    3    0    0 -0.27511623190E+02 -0.36888330137E+02 -0.10233799517E+03  0.11220830436E+03  0.00000000000E+00 0. -1.
<mgrwt>
<rscale>  0 0.92641413E+02</rscale>
<asrwt>0</asrwt>
<pdfrwt beam="2">  1        1 0.37261407E-01 0.92641413E+02</pdfrwt>
<pdfrwt beam="1">  1       -1 0.13629012E-02 0.92641413E+02</pdfrwt>
<totfact> 0.11777553E+05</totfact>
</mgrwt>
</event>
<event>
 5    1  0.1265228E+001  0.8520899E+02  0.7546771E-02  0.1314887E+00
         -2   -1    0    0    0  501 -0.00000000000E+00  0.00000000000E+00  0.88670460835E+02  0.88670460835E+02  0.00000000000E+00 0.  1.
          2   -1    0    0  501    0  0.00000000000E+00 -0.00000000000E+00 -0.20470663558E+02  0.20470663558E+02  0.00000000000E+00 0. -1.
         23    2    1    2    0    0  0.00000000000E+00  0.00000000000E+00  0.68199797277E+02  0.10914112439E+03  0.85208994156E+02 0.  0.
        -11    1    3    3    0    0  0.19669246663E+02  0.51999641035E+01  0.82046387815E+02  0.84531228812E+02  0.00000000000E+00 0.  1.
         11    1    3    3    0    0 -0.19669246663E+02 -0.51999641035E+01 -0.13846590538E+02  0.24609895580E+02  0.00000000000E+00 0. -1.
<mgrwt>
<rscale>  0 0.85208994E+02</rscale>
<asrwt>0</asrwt>
<pdfrwt beam="2">  1        2 0.31493329E-02 0.85208994E+02</pdfrwt>
<pdfrwt beam="1">  1       -2 0.13641609E-01 0.85208994E+02</pdfrwt>
<totfact> 0.97714655E+04</totfact>
</mgrwt>
</event>
<event>
 5    1  0.1265228E+001  0.9276395E+02  0.7546771E-02  0.1296293E+00
          1   -1    0    0  501    0  0.00000000000E+00  0.00000000000E+00  0.38979168587E+02  0.38979168587E+02  0.00000000000E+00 0. -1.
         -1   -1    0    0    0  501 -0.00000000000E+00 -0.00000000000E+00 -0.55190700916E+02  0.55190700916E+02  0.00000000000E+00 0.  1.
         23    2    1    2    0    0  0.00000000000E+00  0.00000000000E+00 -0.16211532329E+02  0.94169869502E+02  0.92763950658E+02 0.  0.
        -13    1    3    3    0    0  0.33851962991E+02  0.63924182217E+01 -0.39632350432E+02  0.52512299606E+02  0.00000000000E+00 0.  1.
         13    1    3    3    0    0 -0.33851962991E+02 -0.63924182217E+01  0.23420818104E+02  0.41657569897E+02  0.00000000000E+00 0. -1.
<mgrwt>
<rscale>  0 0.92763951E+02</rscale>
<asrwt>0</asrwt>
<pdfrwt beam="1">  1        1 0.59967952E-02 0.92763951E+02</pdfrwt>
<pdfrwt beam="2">  1       -1 0.84908770E-02 0.92763951E+02</pdfrwt>
<totfact> 0.85995013E+04</totfact>
</mgrwt>
</event>
<event>
 5    1  0.1265228E+001  0.9631918E+02  0.7546771E-02  0.1288232E+00
         -1   -1    0    0    0  501 -0.00000000000E+00  0.00000000000E+00  0.94808396218E+02  0.94808396218E+02  0.00000000000E+00 0.  1.
          1   -1    0    0  501    0  0.00000000000E+00 -0.00000000000E+00 -0.24463507230E+02  0.24463507230E+02  0.00000000000E+00 0. -1.
         23    2    1    2    0    0  0.00000000000E+00  0.00000000000E+00  0.70344888988E+02  0.11927190345E+03  0.96319175378E+02 0.  0.
        -13    1    3    3    0    0 -0.16058445957E+02 -0.32916098576E+02 -0.35529108132E+01  0.36796282520E+02  0.00000000000E+00 0. -1.
         13    1    3    3    0    0  0.16058445957E+02  0.32916098576E+02  0.73897799801E+02  0.82475620929E+02  0.00000000000E+00 0.  1.
<mgrwt>
<rscale>  0 0.96319175E+02</rscale>
<asrwt>0</asrwt>
<pdfrwt beam="2">  1        1 0.37636165E-02 0.96319175E+02</pdfrwt>
<pdfrwt beam="1">  1       -1 0.14585907E-01 0.96319175E+02</pdfrwt>
<totfact> 0.71341409E+04</totfact>
</mgrwt>
</event>
<event>
 5    1  0.1265228E+001  0.9289868E+02  0.7546771E-02  0.1295980E+00
          2   -1    0    0  501    0  0.00000000000E+00  0.00000000000E+00  0.21274488055E+03  0.21274488055E+03  0.00000000000E+00 0. -1.
         -2   -1    0    0    0  501 -0.00000000000E+00 -0.00000000000E+00 -0.10141447679E+02  0.10141447679E+02  0.00000000000E+00 0.  1.
         23    2    1    2    0    0  0.00000000000E+00  0.00000000000E+00  0.20260343287E+03  0.22288632822E+03  0.92898677602E+02 0.  0.
        -11    1    3    3    0    0  0.30022106947E+02  0.35260038786E+02  0.92669836903E+02  0.10359679489E+03  0.00000000000E+00 0. -1.
         11    1    3    3    0    0 -0.30022106947E+02 -0.35260038786E+02  0.10993359596E+03  0.11928953333E+03  0.00000000000E+00 0.  1.
<mgrwt>
<rscale>  0 0.92898678E+02</rscale>
<asrwt>0</asrwt>
<pdfrwt beam="1">  1        2 0.32729978E-01 0.92898678E+02</pdfrwt>
<pdfrwt beam="2">  1       -2 0.15602229E-02 0.92898678E+02</pdfrwt>
<totfact> 0.15041647E+05</totfact>
</mgrwt>
</event>
<event>
 5    1  0.1265228E+001  0.9133298E+02  0.7546771E-02  0.1299655E+00
          1   -1    0    0  501    0  0.00000000000E+00  0.00000000000E+00  0.14013079693E+03  0.14013079693E+03  0.00000000000E+00 0. -1.
         -1   -1    0    0    0  501 -0.00000000000E+00 -0.00000000000E+00 -0.14882012162E+02  0.14882012162E+02  0.00000000000E+00 0.  1.
         23    2    1    2    0    0  0.00000000000E+00  0.00000000000E+00  0.12524878477E+03  0.15501280909E+03  0.91332978146E+02 0.  0.
        -13    1    3    3    0    0  0.25543293068E+02  0.28217757413E+02  0.19797510684E+02  0.42902716505E+02  0.00000000000E+00 0.  1.
         13    1    3    3    0    0 -0.25543293068E+02 -0.28217757413E+02  0.10545127409E+03  0.11211009259E+03  0.00000000000E+00 0. -1.
<mgrwt>
<rscale>  0 0.91332978E+02</rscale>
<asrwt>0</asrwt>
<pdfrwt beam="1">  1        1 0.21558583E-01 0.91332978E+02</pdfrwt>
<pdfrwt beam="2">  1       -1 0.22895404E-02 0.91332978E+02</pdfrwt>
<totfact> 0.11023742E+05</totfact>
</mgrwt>
</event>
<event>
 4    1  0.1265228E+001  0.4314369E+02  0.7546771E-02  0.1486274E+00
          3   -1    0    0  501    0  0.00000000000E+00  0.00000000000E+00  0.48940638070E+01  0.48940638070E+01  0.00000000000E+00 0.  1.
         -3   -1    0    0    0  501 -0.00000000000E+00 -0.00000000000E+00 -0.95083471801E+02  0.95083471801E+02  0.00000000000E+00 0. -1.
        -11    1    1    2    0    0 -0.54597805248E+01 -0.16006889501E+02 -0.76125523649E+02  0.77981568756E+02  0.00000000000E+00 0. -1.
         11    1    1    2    0    0  0.54597805248E+01  0.16006889501E+02 -0.14063884345E+02  0.21995966852E+02  0.00000000000E+00 0.  1.
<mgrwt>
<rscale>  0 0.43143694E+02</rscale>
<asrwt>0</asrwt>
<pdfrwt beam="1">  1        3 0.75293288E-03 0.43143694E+02</pdfrwt>
<pdfrwt beam="2">  1       -3 0.14628227E-01 0.43143694E+02</pdfrwt>
<totfact> 0.24085185E+05</totfact>
</mgrwt>
</event>
<event>
 5    1  0.1265228E+001  0.9098985E+02  0.7546771E-02  0.1300472E+00
          2   -1    0    0  501    0  0.00000000000E+00  0.00000000000E+00  0.26859825535E+03  0.26859825535E+03  0.00000000000E+00 0. -1.
         -2   -1    0    0    0  501 -0.00000000000E+00 -0.00000000000E+00 -0.77058892130E+01  0.77058892130E+01  0.00000000000E+00 0.  1.
         23    2    1    2    0    0  0.00000000000E+00  0.00000000000E+00  0.26089236613E+03  0.27630414456E+03  0.90989854346E+02 0.  0.
        -11    1    3    3    0    0  0.16033183850E+02  0.42123364640E+02  0.11164161645E+03  0.12039639262E+03  0.00000000000E+00 0. -1.
         11    1    3    3    0    0 -0.16033183850E+02 -0.42123364640E+02  0.14925074968E+03  0.15590775194E+03  0.00000000000E+00 0.  1.
<mgrwt>
<rscale>  0 0.90989854E+02</rscale>
<asrwt>0</asrwt>
<pdfrwt beam="1">  1        2 0.41322801E-01 0.90989854E+02</pdfrwt>
<pdfrwt beam="2">  1       -2 0.11855216E-02 0.90989854E+02</pdfrwt>
<totfact> 0.17335061E+05</totfact>
</mgrwt>
</event>
<event>
 5    1  0.1265228E+001  0.9441835E+02  0.7546771E-02  0.1292492E+00
          3   -1    0    0  501    0  0.00000000000E+00  0.00000000000E+00  0.94041662615E+01  0.94041662615E+01  0.00000000000E+00 0. -1.
         -3   -1    0    0    0  501 -0.00000000000E+00 -0.00000000000E+00 -0.23699137461E+03  0.23699137461E+03  0.00000000000E+00 0.  1.
         23    2    1    2    0    0  0.00000000000E+00  0.00000000000E+00 -0.22758720835E+03  0.24639554087E+03  0.94418351804E+02 0.  0.
        -11    1    3    3    0    0  0.38313500666E+02  0.11757532163E+02 -0.17890558304E+03  0.18333949803E+03  0.00000000000E+00 0.  1.
         11    1    3    3    0    0 -0.38313500666E+02 -0.11757532163E+02 -0.48681625307E+02  0.63056042838E+02  0.00000000000E+00 0. -1.
<mgrwt>
<rscale>  0 0.94418352E+02</rscale>
<asrwt>0</asrwt>
<pdfrwt beam="1">  1        3 0.14467950E-02 0.94418352E+02</pdfrwt>
<pdfrwt beam="2">  1       -3 0.36460208E-01 0.94418352E+02</pdfrwt>
<totfact> 0.23897137E+04</totfact>
</mgrwt>
</event>
<event>
 5    1  0.1265228E+001  0.9279748E+02  0.7546771E-02  0.1296215E+00
          1   -1    0    0  501    0  0.00000000000E+00  0.00000000000E+00  0.11569449164E+02  0.11569449164E+02  0.00000000000E+00 0. -1.
         -1   -1    0    0    0  501 -0.00000000000E+00 -0.00000000000E+00 -0.18607999033E+03  0.18607999033E+03  0.00000000000E+00 0.  1.
         23    2    1    2    0    0  0.00000000000E+00  0.00000000000E+00 -0.17451054117E+03  0.19764943949E+03  0.92797478169E+02 0.  0.
        -13    1    3    3    0    0 -0.39797555350E+02 -0.21702408955E+02 -0.10834053966E+03  0.11744152800E+03  0.00000000000E+00 0.  1.
         13    1    3    3    0    0  0.39797555350E+02  0.21702408955E+02 -0.66170001506E+02  0.80207911490E+02  0.00000000000E+00 0. -1.
<mgrwt>
<rscale>  0 0.92797478E+02</rscale>
<asrwt>0</asrwt>
<pdfrwt beam="1">  1        1 0.17799153E-02 0.92797478E+02</pdfrwt>
<pdfrwt beam="2">  1       -1 0.28627690E-01 0.92797478E+02</pdfrwt>
<totfact> 0.67655312E+04</totfact>
</mgrwt>
</event>
<event>
 5    1  0.1265228E+001  0.7742833E+02  0.7546771E-02  0.1336512E+00
          1   -1    0    0  501    0  0.00000000000E+00  0.00000000000E+00  0.41099721837E+01  0.41099721837E+01  0.00000000000E+00 0. -1.
         -1   -1    0    0    0  501 -0.00000000000E+00 -0.00000000000E+00 -0.36467076858E+03  0.36467076858E+03  0.00000000000E+00 0.  1.
         23    2    1    2    0    0  0.00000000000E+00  0.00000000000E+00 -0.36056079640E+03  0.36878074077E+03  0.77428333705E+02 0.  0.
        -13    1    3    3    0    0 -0.30762070025E+02  0.23417921758E+02 -0.17065669469E+03  0.17498117457E+03  0.00000000000E+00 0. -1.
         13    1    3    3    0    0  0.30762070025E+02 -0.23417921758E+02 -0.18990410171E+03  0.19379956620E+03  0.00000000000E+00 0.  1.
<mgrwt>
<rscale>  0 0.77428334E+02</rscale>
<asrwt>0</asrwt>
<pdfrwt beam="1">  1        1 0.63230348E-03 0.77428334E+02</pdfrwt>
<pdfrwt beam="2">  1       -1 0.56103189E-01 0.77428334E+02</pdfrwt>
<totfact> 0.85273830E+04</totfact>
</mgrwt>
</event>
<event>
 5    1  0.1265228E+001  0.9107719E+02  0.7546771E-02  0.1300264E+00
          2   -1    0    0  501    0  0.00000000000E+00  0.00000000000E+00  0.28147995691E+02  0.28147995691E+02  0.00000000000E+00 0. -1.
         -2   -1    0    0    0  501 -0.00000000000E+00 -0.00000000000E+00 -0.73673576478E+02  0.73673576478E+02  0.00000000000E+00 0.  1.
         23    2    1    2    0    0  0.00000000000E+00  0.00000000000E+00 -0.45525580787E+02  0.10182157217E+03  0.91077187335E+02 0.  0.
        -13    1    3    3    0    0  0.14625166887E+02  0.54965555027E+01 -0.70583376715E+02  0.72291913084E+02  0.00000000000E+00 0.  1.
         13    1    3    3    0    0 -0.14625166887E+02 -0.54965555027E+01  0.25057795928E+02  0.29529659084E+02  0.00000000000E+00 0. -1.
<mgrwt>
<rscale>  0 0.91077187E+02</rscale>
<asrwt>0</asrwt>
<pdfrwt beam="1">  1        2 0.43304610E-02 0.91077187E+02</pdfrwt>
<pdfrwt beam="2">  1       -2 0.11334396E-01 0.91077187E+02</pdfrwt>
<totfact> 0.87248683E+04</totfact>
</mgrwt>
</event>
<event>
 5    1  0.1265228E+001  0.8905178E+02  0.7546771E-02  0.1305164E+00
         -2   -1    0    0    0  501 -0.00000000000E+00  0.00000000000E+00  0.60361523404E+02  0.60361523404E+02  0.00000000000E+00 0.  1.
          2   -1    0    0  501    0  0.00000000000E+00 -0.00000000000E+00 -0.32844680673E+02  0.32844680673E+02  0.00000000000E+00 0. -1.
         23    2    1    2    0    0  0.00000000000E+00  0.00000000000E+00  0.27516842731E+02  0.93206204077E+02  0.89051781816E+02 0.  0.
        -13    1    3    3    0    0 -0.16354666231E+02 -0.89183831173E+00  0.57093905629E+02  0.59396839504E+02  0.00000000000E+00 0.  1.
         13    1    3    3    0    0  0.16354666231E+02  0.89183831173E+00 -0.29577062899E+02  0.33809364573E+02  0.00000000000E+00 0. -1.
<mgrwt>
<rscale>  0 0.89051782E+02</rscale>
<asrwt>0</asrwt>
<pdfrwt beam="2">  1        2 0.50530278E-02 0.89051782E+02</pdfrwt>
<pdfrwt beam="1">  1       -2 0.92863882E-02 0.89051782E+02</pdfrwt>
<totfact> 0.97105642E+04</totfact>
</mgrwt>
</event>
<event>
 5    1  0.1265228E+001  0.9072170E+02  0.7546771E-02  0.1301113E+00
         -1   -1    0    0    0  501 -0.00000000000E+00  0.00000000000E+00  0.22964012093E+03  0.22964012093E+03  0.00000000000E+00 0.  1.
          1   -1    0    0  501    0  0.00000000000E+00 -0.00000000000E+00 -0.89601358114E+01  0.89601358114E+01  0.00000000000E+00 0. -1.
         23    2    1    2    0    0  0.00000000000E+00  0.00000000000E+00  0.22067998512E+03  0.23860025675E+03  0.90721699087E+02 0.  0.
        -11    1    3    3    0    0  0.31749118395E+02  0.75008833462E+01  0.19323111414E+03  0.19596564302E+03  0.00000000000E+00 0.  1.
         11    1    3    3    0    0 -0.31749118395E+02 -0.75008833462E+01  0.27448870980E+02  0.42634613730E+02  0.00000000000E+00 0. -1.
<mgrwt>
<rscale>  0 0.90721699E+02</rscale>
<asrwt>0</asrwt>
<pdfrwt beam="2">  1        1 0.13784826E-02 0.90721699E+02</pdfrwt>
<pdfrwt beam="1">  1       -1 0.35329245E-01 0.90721699E+02</pdfrwt>
<totfact> 0.67469018E+04</totfact>
</mgrwt>
</event>
<event>
 5    1  0.1265228E+001  0.9210337E+02  0.7546771E-02  0.1297837E+00
          4   -1    0    0  501    0  0.00000000000E+00  0.00000000000E+00  0.23234982208E+02  0.23234982208E+02  0.00000000000E+00 0. -1.
         -4   -1    0    0    0  501 -0.00000000000E+00 -0.00000000000E+00 -0.91274337436E+02  0.91274337436E+02  0.00000000000E+00 0.  1.
         23    2    1    2    0    0  0.00000000000E+00  0.00000000000E+00 -0.68039355228E+02  0.11450931964E+03  0.92103368156E+02 0.  0.
        -11    1    3    3    0    0 -0.38477392104E+02  0.25217930221E+02 -0.36598944846E+02  0.58787213504E+02  0.00000000000E+00 0. -1.
         11    1    3    3    0    0  0.38477392104E+02 -0.25217930221E+02 -0.31440410382E+02  0.55722106140E+02  0.00000000000E+00 0.  1.
<mgrwt>
<rscale>  0 0.92103368E+02</rscale>
<asrwt>0</asrwt>
<pdfrwt beam="1">  1        4 0.35746126E-02 0.92103368E+02</pdfrwt>
<pdfrwt beam="2">  1       -4 0.14042206E-01 0.92103368E+02</pdfrwt>
<totfact> 0.24896110E+04</totfact>
</mgrwt>
</event>
<event>
 5    1  0.1265228E+001  0.9104445E+02  0.7546771E-02  0.1300342E+00
         -1   -1    0    0    0  501 -0.00000000000E+00  0.00000000000E+00  0.49675931526E+02  0.49675931526E+02  0.00000000000E+00 0.  1.
          1   -1    0    0  501    0  0.00000000000E+00 -0.00000000000E+00 -0.41715832034E+02  0.41715832034E+02  0.00000000000E+00 0. -1.
         23    2    1    2    0    0  0.00000000000E+00  0.00000000000E+00  0.79600994916E+01  0.91391763560E+02  0.91044446633E+02 0.  0.
        -13    1    3    3    0    0  0.12385666423E+02 -0.10347879884E+02  0.46707547719E+02  0.49417389295E+02  0.00000000000E+00 0.  1.
         13    1    3    3    0    0 -0.12385666423E+02  0.10347879884E+02 -0.38747448227E+02  0.41974374265E+02  0.00000000000E+00 0. -1.
<mgrwt>
<rscale>  0 0.91044447E+02</rscale>
<asrwt>0</asrwt>
<pdfrwt beam="2">  1        1 0.64178203E-02 0.91044447E+02</pdfrwt>
<pdfrwt beam="1">  1       -1 0.76424510E-02 0.91044447E+02</pdfrwt>
<totfact> 0.91617737E+04</totfact>
</mgrwt>
</event>
<event>
 5    1  0.1265228E+001  0.8672106E+02  0.7546771E-02  0.1310992E+00
         -1   -1    0    0    0  501 -0.00000000000E+00  0.00000000000E+00  0.34346677270E+02  0.34346677270E+02  0.00000000000E+00 0.  1.
          1   -1    0    0  501    0  0.00000000000E+00 -0.00000000000E+00 -0.54739949946E+02  0.54739949946E+02  0.00000000000E+00 0. -1.
         23    2    1    2    0    0  0.00000000000E+00  0.00000000000E+00 -0.20393272676E+02  0.89086627216E+02  0.86721056142E+02 0.  0.
        -11    1    3    3    0    0 -0.43817042712E+01  0.37248677534E+02  0.12156329162E+02  0.39426382652E+02  0.00000000000E+00 0.  1.
         11    1    3    3    0    0  0.43817042712E+01 -0.37248677534E+02 -0.32549601838E+02  0.49660244564E+02  0.00000000000E+00 0. -1.
<mgrwt>
<rscale>  0 0.86721056E+02</rscale>
<asrwt>0</asrwt>
<pdfrwt beam="2">  1        1 0.84215307E-02 0.86721056E+02</pdfrwt>
<pdfrwt beam="1">  1       -1 0.52841042E-02 0.86721056E+02</pdfrwt>
<totfact> 0.10920415E+05</totfact>
</mgrwt>
</event>
<event>
 5    1  0.1265228E+001  0.1017155E+03  0.7546771E-02  0.1276729E+00
          1   -1    0    0  501    0  0.00000000000E+00  0.00000000000E+00  0.14386966775E+03  0.14386966775E+03  0.00000000000E+00 0. -1.
         -1   -1    0    0    0  501 -0.00000000000E+00 -0.00000000000E+00 -0.17978166024E+02  0.17978166024E+02  0.00000000000E+00 0.  1.
         23    2    1    2    0    0  0.00000000000E+00  0.00000000000E+00  0.12589150172E+03  0.16184783377E+03  0.10171554006E+03 0.  0.
        -11    1    3    3    0    0  0.25273003604E+02 -0.15054096726E+02  0.12895890525E+03  0.13227150026E+03  0.00000000000E+00 0. -1.
         11    1    3    3    0    0 -0.25273003604E+02  0.15054096726E+02 -0.30674035240E+01  0.29576333509E+02  0.00000000000E+00 0.  1.
<mgrwt>
<rscale>  0 0.10171554E+03</rscale>
<asrwt>0</asrwt>
<pdfrwt beam="1">  1        1 0.22133794E-01 0.10171554E+03</pdfrwt>
<pdfrwt beam="2">  1       -1 0.27658718E-02 0.10171554E+03</pdfrwt>
<totfact> 0.82647869E+04</totfact>
</mgrwt>
</event>
<event>
 5    1  0.1265228E+001  0.9229673E+02  0.7546771E-02  0.1297383E+00
         -3   -1    0    0    0  501 -0.00000000000E+00  0.00000000000E+00  0.11092616162E+02  0.11092616162E+02  0.00000000000E+00 0.  1.
          3   -1    0    0  501    0  0.00000000000E+00 -0.00000000000E+00 -0.19198999876E+03  0.19198999876E+03  0.00000000000E+00 0. -1.
         23    2    1    2    0    0  0.00000000000E+00  0.00000000000E+00 -0.18089738259E+03  0.20308261492E+03  0.92296725037E+02 0.  0.
        -11    1    3    3    0    0 -0.67495604826E+01  0.32357970431E+02 -0.19590206418E+02  0.38423573554E+02  0.00000000000E+00 0.  1.
         11    1    3    3    0    0  0.67495604826E+01 -0.32357970431E+02 -0.16130717618E+03  0.16465904136E+03  0.00000000000E+00 0. -1.
<mgrwt>
<rscale>  0 0.92296725E+02</rscale>
<asrwt>0</asrwt>
<pdfrwt beam="2">  1        3 0.29536922E-01 0.92296725E+02</pdfrwt>
<pdfrwt beam="1">  1       -3 0.17065564E-02 0.92296725E+02</pdfrwt>
<totfact> 0.27419986E+04</totfact>
</mgrwt>
</event>
<event>
 5    1  0.1265228E+001  0.9077535E+02  0.7546771E-02  0.1300985E+00
         -2   -1    0    0    0  501 -0.00000000000E+00  0.00000000000E+00  0.60836216038E+01  0.60836216038E+01  0.00000000000E+00 0.  1.
          2   -1    0    0  501    0  0.00000000000E+00 -0.00000000000E+00 -0.33862080602E+03  0.33862080602E+03  0.00000000000E+00 0. -1.
         23    2    1    2    0    0  0.00000000000E+00  0.00000000000E+00 -0.33253718442E+03  0.34470442763E+03  0.90775345794E+02 0.  0.
        -11    1    3    3    0    0 -0.27223130089E+02  0.35231691935E+02 -0.13280247052E+03  0.14006736631E+03  0.00000000000E+00 0.  1.
         11    1    3    3    0    0  0.27223130089E+02 -0.35231691935E+02 -0.19973471390E+03  0.20463706132E+03  0.00000000000E+00 0. -1.
<mgrwt>
<rscale>  0 0.90775346E+02</rscale>
<asrwt>0</asrwt>
<pdfrwt beam="2">  1        2 0.52095512E-01 0.90775346E+02</pdfrwt>
<pdfrwt beam="1">  1       -2 0.93594172E-03 0.90775346E+02</pdfrwt>
<totfact> 0.19012361E+05</totfact>
</mgrwt>
</event>
<event>
 5    1  0.1265228E+001  0.9280723E+02  0.7546771E-02  0.1296193E+00
          2   -1    0    0  501    0  0.00000000000E+00  0.00000000000E+00  0.12546997451E+03  0.12546997451E+03  0.00000000000E+00 0. -1.
         -2   -1    0    0    0  501 -0.00000000000E+00 -0.00000000000E+00 -0.17161837705E+02  0.17161837705E+02  0.00000000000E+00 0.  1.
         23    2    1    2    0    0  0.00000000000E+00  0.00000000000E+00  0.10830813680E+03  0.14263181222E+03  0.92807226861E+02 0.  0.
        -11    1    3    3    0    0 -0.25078885930E+02  0.25095751375E+02  0.10012004049E+03  0.10622038299E+03  0.00000000000E+00 0. -1.
         11    1    3    3    0    0  0.25078885930E+02 -0.25095751375E+02  0.81880963188E+01  0.36411429221E+02  0.00000000000E+00 0.  1.
<mgrwt>
<rscale>  0 0.92807227E+02</rscale>
<asrwt>0</asrwt>
<pdfrwt beam="1">  1        2 0.19303072E-01 0.92807227E+02</pdfrwt>
<pdfrwt beam="2">  1       -2 0.26402828E-02 0.92807227E+02</pdfrwt>
<totfact> 0.12551101E+05</totfact>
</mgrwt>
</event>
<event>
 5    1  0.1265228E+001  0.8772969E+02  0.7546771E-02  0.1308445E+00
         -1   -1    0    0    0  501 -0.00000000000E+00  0.00000000000E+00  0.40537430398E+02  0.40537430398E+02  0.00000000000E+00 0.  1.
          1   -1    0    0  501    0  0.00000000000E+00 -0.00000000000E+00 -0.47465386631E+02  0.47465386631E+02  0.00000000000E+00 0. -1.
         23    2    1    2    0    0  0.00000000000E+00  0.00000000000E+00 -0.69279562329E+01  0.88002817029E+02  0.87729694103E+02 0.  0.
        -11    1    3    3    0    0  0.23375749173E+01  0.24420328430E+02 -0.39940741003E+02  0.46873014508E+02  0.00000000000E+00 0. -1.
         11    1    3    3    0    0 -0.23375749173E+01 -0.24420328430E+02  0.33012784770E+02  0.41129802521E+02  0.00000000000E+00 0.  1.
<mgrwt>
<rscale>  0 0.87729694E+02</rscale>
<asrwt>0</asrwt>
<pdfrwt beam="2">  1        1 0.73023671E-02 0.87729694E+02</pdfrwt>
<pdfrwt beam="1">  1       -1 0.62365278E-02 0.87729694E+02</pdfrwt>
<totfact> 0.10359867E+05</totfact>
</mgrwt>
</event>
<event>
 5    1  0.1265228E+001  0.9073399E+02  0.7546771E-02  0.1301084E+00
         -3   -1    0    0    0  501 -0.00000000000E+00  0.00000000000E+00  0.36002826375E+02  0.36002826375E+02  0.00000000000E+00 0.  1.
          3   -1    0    0  501    0  0.00000000000E+00 -0.00000000000E+00 -0.57166736130E+02  0.57166736130E+02  0.00000000000E+00 0. -1.
         23    2    1    2    0    0  0.00000000000E+00  0.00000000000E+00 -0.21163909755E+02  0.93169562506E+02  0.90733986474E+02 0.  0.
        -13    1    3    3    0    0 -0.29743123980E+02 -0.21116637186E+02 -0.38280049669E+02  0.52876535371E+02  0.00000000000E+00 0. -1.
         13    1    3    3    0    0  0.29743123980E+02  0.21116637186E+02  0.17116139914E+02  0.40293027135E+02  0.00000000000E+00 0.  1.
<mgrwt>
<rscale>  0 0.90733986E+02</rscale>
<asrwt>0</asrwt>
<pdfrwt beam="2">  1        3 0.87948825E-02 0.90733986E+02</pdfrwt>
<pdfrwt beam="1">  1       -3 0.55388964E-02 0.90733986E+02</pdfrwt>
<totfact> 0.35655400E+04</totfact>
</mgrwt>
</event>
<event>
 5    1  0.1265228E+001  0.7487843E+02  0.7546771E-02  0.1344248E+00
         -1   -1    0    0    0  501 -0.00000000000E+00  0.00000000000E+00  0.47974640133E+01  0.47974640133E+01  0.00000000000E+00 0.  1.
          1   -1    0    0  501    0  0.00000000000E+00 -0.00000000000E+00 -0.29217414583E+03  0.29217414583E+03  0.00000000000E+00 0. -1.
         23    2    1    2    0    0  0.00000000000E+00  0.00000000000E+00 -0.28737668182E+03  0.29697160984E+03  0.74878433484E+02 0.  0.
        -11    1    3    3    0    0 -0.64766787150E+01  0.36459847307E+02 -0.16556538228E+03  0.16965601564E+03  0.00000000000E+00 0. -1.
         11    1    3    3    0    0  0.64766787150E+01 -0.36459847307E+02 -0.12181129953E+03  0.12731559420E+03  0.00000000000E+00 0.  1.
<mgrwt>
<rscale>  0 0.74878433E+02</rscale>
<asrwt>0</asrwt>
<pdfrwt beam="2">  1        1 0.44949861E-01 0.74878433E+02</pdfrwt>
<pdfrwt beam="1">  1       -1 0.73807151E-03 0.74878433E+02</pdfrwt>
<totfact> 0.21429924E+05</totfact>
</mgrwt>
</event>
<event>
 5    1  0.1265228E+001  0.8642905E+02  0.7546771E-02  0.1311737E+00
         -3   -1    0    0    0  501 -0.00000000000E+00  0.00000000000E+00  0.86633448422E+02  0.86633448422E+02  0.00000000000E+00 0.  1.
          3   -1    0    0  501    0  0.00000000000E+00 -0.00000000000E+00 -0.21556285603E+02  0.21556285603E+02  0.00000000000E+00 0. -1.
         23    2    1    2    0    0  0.00000000000E+00  0.00000000000E+00  0.65077162819E+02  0.10818973403E+03  0.86429054305E+02 0.  0.
        -13    1    3    3    0    0 -0.19139494719E+02  0.17718201685E+02 -0.10593024704E+02  0.28150792199E+02  0.00000000000E+00 0. -1.
         13    1    3    3    0    0  0.19139494719E+02 -0.17718201685E+02  0.75670187522E+02  0.80038941827E+02  0.00000000000E+00 0.  1.
<mgrwt>
<rscale>  0 0.86429054E+02</rscale>
<asrwt>0</asrwt>
<pdfrwt beam="2">  1        3 0.33163517E-02 0.86429054E+02</pdfrwt>
<pdfrwt beam="1">  1       -3 0.13328223E-01 0.86429054E+02</pdfrwt>
<totfact> 0.39382754E+04</totfact>
</mgrwt>
</event>
<event>
 5    1  0.1265228E+001  0.6290544E+02  0.7546771E-02  0.1386028E+00
          1   -1    0    0  501    0  0.00000000000E+00  0.00000000000E+00  0.33888852365E+01  0.33888852365E+01  0.00000000000E+00 0. -1.
         -1   -1    0    0    0  501 -0.00000000000E+00 -0.00000000000E+00 -0.29191715255E+03  0.29191715255E+03  0.00000000000E+00 0.  1.
         23    2    1    2    0    0  0.00000000000E+00  0.00000000000E+00 -0.28852826732E+03  0.29530603779E+03  0.62905444234E+02 0.  0.
        -11    1    3    3    0    0  0.16167095676E+02 -0.26069610365E+02 -0.17688094203E+03  0.17952121663E+03  0.00000000000E+00 0. -1.
         11    1    3    3    0    0 -0.16167095676E+02  0.26069610365E+02 -0.11164732529E+03  0.11578482116E+03  0.00000000000E+00 0.  1.
<mgrwt>
<rscale>  0 0.62905444E+02</rscale>
<asrwt>0</asrwt>
<pdfrwt beam="1">  1        1 0.52136674E-03 0.62905444E+02</pdfrwt>
<pdfrwt beam="2">  1       -1 0.44910350E-01 0.62905444E+02</pdfrwt>
<totfact> 0.15937334E+05</totfact>
</mgrwt>
</event>
<event>
 5    1  0.1265228E+001  0.9091148E+02  0.7546771E-02  0.1300659E+00
          1   -1    0    0  501    0  0.00000000000E+00  0.00000000000E+00  0.91301466926E+01  0.91301466926E+01  0.00000000000E+00 0. -1.
         -1   -1    0    0    0  501 -0.00000000000E+00 -0.00000000000E+00 -0.22630789078E+03  0.22630789078E+03  0.00000000000E+00 0.  1.
         23    2    1    2    0    0  0.00000000000E+00  0.00000000000E+00 -0.21717774408E+03  0.23543803747E+03  0.90911478714E+02 0.  0.
        -11    1    3    3    0    0 -0.42187993397E+02 -0.16342417476E+02 -0.11997283408E+03  0.12822005425E+03  0.00000000000E+00 0.  1.
         11    1    3    3    0    0  0.42187993397E+02  0.16342417476E+02 -0.97204910006E+02  0.10721798322E+03  0.00000000000E+00 0. -1.
<mgrwt>
<rscale>  0 0.90911479E+02</rscale>
<asrwt>0</asrwt>
<pdfrwt beam="1">  1        1 0.14046380E-02 0.90911479E+02</pdfrwt>
<pdfrwt beam="2">  1       -1 0.34816597E-01 0.90911479E+02</pdfrwt>
<totfact> 0.67412512E+04</totfact>
</mgrwt>
</event>
<event>
 5    1  0.1265228E+001  0.9350798E+02  0.7546771E-02  0.1294572E+00
         -2   -1    0    0    0  501 -0.00000000000E+00  0.00000000000E+00  0.96083004477E+02  0.96083004477E+02  0.00000000000E+00 0.  1.
          2   -1    0    0  501    0  0.00000000000E+00 -0.00000000000E+00 -0.22750492711E+02  0.22750492711E+02  0.00000000000E+00 0. -1.
         23    2    1    2    0    0  0.00000000000E+00  0.00000000000E+00  0.73332511766E+02  0.11883349719E+03  0.93507982397E+02 0.  0.
        -13    1    3    3    0    0  0.12092410629E+02 -0.30385584097E+02 -0.57961972651E+01  0.33213039886E+02  0.00000000000E+00 0. -1.
         13    1    3    3    0    0 -0.12092410629E+02  0.30385584097E+02  0.79128709031E+02  0.85620457302E+02  0.00000000000E+00 0.  1.
<mgrwt>
<rscale>  0 0.93507982E+02</rscale>
<asrwt>0</asrwt>
<pdfrwt beam="2">  1        2 0.35000759E-02 0.93507982E+02</pdfrwt>
<pdfrwt beam="1">  1       -2 0.14782000E-01 0.93507982E+02</pdfrwt>
<totfact> 0.75845898E+04</totfact>
</mgrwt>
</event>
<event>
 5    1  0.1265228E+001  0.9202475E+02  0.7546771E-02  0.1298021E+00
         -2   -1    0    0    0  501 -0.00000000000E+00  0.00000000000E+00  0.29361542393E+02  0.29361542393E+02  0.00000000000E+00 0.  1.
          2   -1    0    0  501    0  0.00000000000E+00 -0.00000000000E+00 -0.72105844739E+02  0.72105844739E+02  0.00000000000E+00 0. -1.
         23    2    1    2    0    0  0.00000000000E+00  0.00000000000E+00 -0.42744302347E+02  0.10146738713E+03  0.92024753563E+02 0.  0.
        -11    1    3    3    0    0 -0.20812077994E+02 -0.36143304315E+02 -0.42799627889E+02  0.59760264262E+02  0.00000000000E+00 0. -1.
         11    1    3    3    0    0  0.20812077994E+02  0.36143304315E+02  0.55325542248E-01  0.41707122870E+02  0.00000000000E+00 0.  1.
<mgrwt>
<rscale>  0 0.92024754E+02</rscale>
<asrwt>0</asrwt>
<pdfrwt beam="2">  1        2 0.11093207E-01 0.92024754E+02</pdfrwt>
<pdfrwt beam="1">  1       -2 0.45171604E-02 0.92024754E+02</pdfrwt>
<totfact> 0.10868269E+05</totfact>
</mgrwt>
</event>
<event>
 5    1  0.1265228E+001  0.9778482E+02  0.7546771E-02  0.1285024E+00
          1   -1    0    0  501    0  0.00000000000E+00  0.00000000000E+00  0.42377665983E+02  0.42377665983E+02  0.00000000000E+00 0. -1.
         -1   -1    0    0    0  501 -0.00000000000E+00 -0.00000000000E+00 -0.56408674336E+02  0.56408674336E+02  0.00000000000E+00 0.  1.
         23    2    1    2    0    0  0.00000000000E+00  0.00000000000E+00 -0.14031008353E+02  0.98786340319E+02  0.97784824172E+02 0.  0.
        -13    1    3    3    0    0  0.20713996974E+02  0.44287335259E+02 -0.71911369856E+01  0.49418115971E+02  0.00000000000E+00 0.  1.
         13    1    3    3    0    0 -0.20713996974E+02 -0.44287335259E+02 -0.68398713677E+01  0.49368224348E+02  0.00000000000E+00 0. -1.
<mgrwt>
<rscale>  0 0.97784824E+02</rscale>
<asrwt>0</asrwt>
<pdfrwt beam="1">  1        1 0.65196409E-02 0.97784824E+02</pdfrwt>
<pdfrwt beam="2">  1       -1 0.86782576E-02 0.97784824E+02</pdfrwt>
<totfact> 0.75000304E+04</totfact>
</mgrwt>
</event>
<event>
 5    1  0.1265228E+001  0.9120797E+02  0.7546771E-02  0.1299953E+00
          4   -1    0    0  501    0  0.00000000000E+00  0.00000000000E+00  0.72278015681E+02  0.72278015681E+02  0.00000000000E+00 0. -1.
         -4   -1    0    0    0  501 -0.00000000000E+00 -0.00000000000E+00 -0.28773939864E+02  0.28773939864E+02  0.00000000000E+00 0.  1.
         23    2    1    2    0    0  0.00000000000E+00  0.00000000000E+00  0.43504075816E+02  0.10105195554E+03  0.91207966247E+02 0.  0.
        -13    1    3    3    0    0  0.34494612425E+02 -0.12248269951E+02 -0.83833242242E+01  0.37552343844E+02  0.00000000000E+00 0.  1.
         13    1    3    3    0    0 -0.34494612425E+02  0.12248269951E+02  0.51887400040E+02  0.63499611701E+02  0.00000000000E+00 0. -1.
<mgrwt>
<rscale>  0 0.91207966E+02</rscale>
<asrwt>0</asrwt>
<pdfrwt beam="1">  1        4 0.11119695E-01 0.91207966E+02</pdfrwt>
<pdfrwt beam="2">  1       -4 0.44267600E-02 0.91207966E+02</pdfrwt>
<totfact> 0.26368838E+04</totfact>
</mgrwt>
</event>
<event>
 5    1  0.1265228E+001  0.9733248E+02  0.7546771E-02  0.1286008E+00
          1   -1    0    0  501    0  0.00000000000E+00  0.00000000000E+00  0.24918524574E+03  0.24918524574E+03  0.00000000000E+00 0. -1.
         -1   -1    0    0    0  501 -0.00000000000E+00 -0.00000000000E+00 -0.95045871499E+01  0.95045871499E+01  0.00000000000E+00 0.  1.
         23    2    1    2    0    0  0.00000000000E+00  0.00000000000E+00  0.23968065860E+03  0.25868983289E+03  0.97332479361E+02 0.  0.
        -13    1    3    3    0    0 -0.37908467188E+02  0.25884693816E+01  0.39021890824E+02  0.54465218459E+02  0.00000000000E+00 0.  1.
         13    1    3    3    0    0  0.37908467188E+02 -0.25884693816E+01  0.20065876777E+03  0.20422461444E+03  0.00000000000E+00 0. -1.
<mgrwt>
<rscale>  0 0.97332479E+02</rscale>
<asrwt>0</asrwt>
<pdfrwt beam="1">  1        1 0.38336187E-01 0.97332479E+02</pdfrwt>
<pdfrwt beam="2">  1       -1 0.14622444E-02 0.97332479E+02</pdfrwt>
<totfact> 0.10372314E+05</totfact>
</mgrwt>
</event>
<event>
 5    1  0.1265228E+001  0.8958812E+02  0.7546771E-02  0.1303852E+00
          2   -1    0    0  501    0  0.00000000000E+00  0.00000000000E+00  0.75683603419E+02  0.75683603419E+02  0.00000000000E+00 0. -1.
         -2   -1    0    0    0  501 -0.00000000000E+00 -0.00000000000E+00 -0.26511787362E+02  0.26511787362E+02  0.00000000000E+00 0.  1.
         23    2    1    2    0    0  0.00000000000E+00  0.00000000000E+00  0.49171816057E+02  0.10219539078E+03  0.89588115298E+02 0.  0.
        -11    1    3    3    0    0 -0.10684351243E+02 -0.22227791764E+02  0.67241659272E+02  0.71621720377E+02  0.00000000000E+00 0. -1.
         11    1    3    3    0    0  0.10684351243E+02  0.22227791764E+02 -0.18069843215E+02  0.30573670404E+02  0.00000000000E+00 0.  1.
<mgrwt>
<rscale>  0 0.89588115E+02</rscale>
<asrwt>0</asrwt>
<pdfrwt beam="1">  1        2 0.11643631E-01 0.89588115E+02</pdfrwt>
<pdfrwt beam="2">  1       -2 0.40787365E-02 0.89588115E+02</pdfrwt>
<totfact> 0.11872345E+05</totfact>
</mgrwt>
</event>
<event>
 5    1  0.1265228E+001  0.9066989E+02  0.7546771E-02  0.1301238E+00
          1   -1    0    0  501    0  0.00000000000E+00  0.00000000000E+00  0.21227869047E+02  0.21227869047E+02  0.00000000000E+00 0. -1.
         -1   -1    0    0    0  501 -0.00000000000E+00 -0.00000000000E+00 -0.96818821797E+02  0.96818821797E+02  0.00000000000E+00 0.  1.
         23    2    1    2    0    0  0.00000000000E+00  0.00000000000E+00 -0.75590952750E+02  0.11804669084E+03  0.90669890710E+02 0.  0.
        -11    1    3    3    0    0 -0.27168558994E+02 -0.11199815006E+02 -0.82739559096E+02  0.87803195234E+02  0.00000000000E+00 0.  1.
         11    1    3    3    0    0  0.27168558994E+02  0.11199815006E+02  0.71486063458E+01  0.30243495609E+02  0.00000000000E+00 0. -1.
<mgrwt>
<rscale>  0 0.90669891E+02</rscale>
<asrwt>0</asrwt>
<pdfrwt beam="1">  1        1 0.32658259E-02 0.90669891E+02</pdfrwt>
<pdfrwt beam="2">  1       -1 0.14895204E-01 0.90669891E+02</pdfrwt>
<totfact> 0.83039760E+04</totfact>
</mgrwt>
</event>
<event>
 5    1  0.1265228E+001  0.9289747E+02  0.7546771E-02  0.1295983E+00
         -1   -1    0    0    0  501 -0.00000000000E+00  0.00000000000E+00  0.27743369938E+02  0.27743369938E+02  0.00000000000E+00 0.  1.
          1   -1    0    0  501    0  0.00000000000E+00 -0.00000000000E+00 -0.77765785373E+02  0.77765785373E+02  0.00000000000E+00 0. -1.
         23    2    1    2    0    0  0.00000000000E+00  0.00000000000E+00 -0.50022415435E+02  0.10550915531E+03  0.92897469333E+02 0.  0.
        -13    1    3    3    0    0  0.15817781705E+02  0.41245836398E+02 -0.41314939584E+02  0.60484258043E+02  0.00000000000E+00 0. -1.
         13    1    3    3    0    0 -0.15817781705E+02 -0.41245836398E+02 -0.87074758514E+01  0.45024897268E+02  0.00000000000E+00 0.  1.
<mgrwt>
<rscale>  0 0.92897469E+02</rscale>
<asrwt>0</asrwt>
<pdfrwt beam="2">  1        1 0.11963967E-01 0.92897469E+02</pdfrwt>
<pdfrwt beam="1">  1       -1 0.42682107E-02 0.92897469E+02</pdfrwt>
<totfact> 0.95263392E+04</totfact>
</mgrwt>
</event>
<event>
 5    1  0.1265228E+001  0.9039612E+02  0.7546771E-02  0.1301895E+00
         -1   -1    0    0    0  501 -0.00000000000E+00  0.00000000000E+00  0.20471118476E+02  0.20471118476E+02  0.00000000000E+00 0.  1.
          1   -1    0    0  501    0  0.00000000000E+00 -0.00000000000E+00 -0.99792519794E+02  0.99792519794E+02  0.00000000000E+00 0. -1.
         23    2    1    2    0    0  0.00000000000E+00  0.00000000000E+00 -0.79321401318E+02  0.12026363827E+03  0.90396117079E+02 0.  0.
        -13    1    3    3    0    0  0.10558087925E+02  0.43078928683E+02 -0.28093257986E+02  0.52502366246E+02  0.00000000000E+00 0.  1.
         13    1    3    3    0    0 -0.10558087925E+02 -0.43078928683E+02 -0.51228143332E+02  0.67761272025E+02  0.00000000000E+00 0. -1.
<mgrwt>
<rscale>  0 0.90396117E+02</rscale>
<asrwt>0</asrwt>
<pdfrwt beam="2">  1        1 0.15352695E-01 0.90396117E+02</pdfrwt>
<pdfrwt beam="1">  1       -1 0.31494028E-02 0.90396117E+02</pdfrwt>
<totfact> 0.10688964E+05</totfact>
</mgrwt>
</event>
<event>
 5    1  0.1265228E+001  0.8869673E+02  0.7546771E-02  0.1306039E+00
         -1   -1    0    0    0  501 -0.00000000000E+00  0.00000000000E+00  0.22272717790E+02  0.22272717790E+02  0.00000000000E+00 0. -1.
          1   -1    0    0  501    0  0.00000000000E+00 -0.00000000000E+00 -0.88304331104E+02  0.88304331104E+02  0.00000000000E+00 0.  1.
         23    2    1    2    0    0  0.00000000000E+00  0.00000000000E+00 -0.66031613314E+02  0.11057704889E+03  0.88696729281E+02 0.  0.
        -11    1    3    3    0    0  0.34043440395E+02 -0.28312557405E+02 -0.36125211083E+02  0.57145320163E+02  0.00000000000E+00 0.  1.
         11    1    3    3    0    0 -0.34043440395E+02  0.28312557405E+02 -0.29906402231E+02  0.53431728731E+02  0.00000000000E+00 0. -1.
<mgrwt>
<rscale>  0 0.88696729E+02</rscale>
<asrwt>0</asrwt>
<pdfrwt beam="2">  1        1 0.13585282E-01 0.88696729E+02</pdfrwt>
<pdfrwt beam="1">  1       -1 0.34265719E-02 0.88696729E+02</pdfrwt>
<totfact> 0.11034433E+05</totfact>
</mgrwt>
</event>
<event>
 5    1  0.1265228E+001  0.9059028E+02  0.7546771E-02  0.1301429E+00
          2   -1    0    0  501    0  0.00000000000E+00  0.00000000000E+00  0.41183625472E+02  0.41183625472E+02  0.00000000000E+00 0. -1.
         -2   -1    0    0    0  501 -0.00000000000E+00 -0.00000000000E+00 -0.49817124643E+02  0.49817124643E+02  0.00000000000E+00 0.  1.
         23    2    1    2    0    0  0.00000000000E+00  0.00000000000E+00 -0.86334991711E+01  0.91000750114E+02  0.90590282114E+02 0.  0.
        -11    1    3    3    0    0 -0.38655796890E+02  0.16359176557E+02 -0.21416113808E+02  0.47122640222E+02  0.00000000000E+00 0.  1.
         11    1    3    3    0    0  0.38655796890E+02 -0.16359176557E+02  0.12782614637E+02  0.43878109893E+02  0.00000000000E+00 0. -1.
<mgrwt>
<rscale>  0 0.90590282E+02</rscale>
<asrwt>0</asrwt>
<pdfrwt beam="1">  1        2 0.63359424E-02 0.90590282E+02</pdfrwt>
<pdfrwt beam="2">  1       -2 0.76641730E-02 0.90590282E+02</pdfrwt>
<totfact> 0.97918621E+04</totfact>
</mgrwt>
</event>
<event>
 5    1  0.1265228E+001  0.9437281E+02  0.7546771E-02  0.1292595E+00
         -2   -1    0    0    0  501 -0.00000000000E+00  0.00000000000E+00  0.23500021392E+02  0.23500021392E+02  0.00000000000E+00 0.  1.
          2   -1    0    0  501    0  0.00000000000E+00 -0.00000000000E+00 -0.94747013124E+02  0.94747013124E+02  0.00000000000E+00 0. -1.
         23    2    1    2    0    0  0.00000000000E+00  0.00000000000E+00 -0.71246991732E+02  0.11824703452E+03  0.94372810390E+02 0.  0.
        -13    1    3    3    0    0 -0.22137986039E+01  0.26104126861E+02  0.13550582390E+02  0.29494823725E+02  0.00000000000E+00 0.  1.
         13    1    3    3    0    0  0.22137986039E+01 -0.26104126861E+02 -0.84797574122E+02  0.88752210791E+02  0.00000000000E+00 0. -1.
<mgrwt>
<rscale>  0 0.94372810E+02</rscale>
<asrwt>0</asrwt>
<pdfrwt beam="2">  1        2 0.14576463E-01 0.94372810E+02</pdfrwt>
<pdfrwt beam="1">  1       -2 0.36153879E-02 0.94372810E+02</pdfrwt>
<totfact> 0.10971219E+05</totfact>
</mgrwt>
</event>
<event>
 5    1  0.1265228E+001  0.8164671E+02  0.7546771E-02  0.1324442E+00
          1   -1    0    0  501    0  0.00000000000E+00  0.00000000000E+00  0.11490097724E+03  0.11490097724E+03  0.00000000000E+00 0. -1.
         -1   -1    0    0    0  501 -0.00000000000E+00 -0.00000000000E+00 -0.14504196944E+02  0.14504196944E+02  0.00000000000E+00 0.  1.
         23    2    1    2    0    0  0.00000000000E+00  0.00000000000E+00  0.10039678029E+03  0.12940517418E+03  0.81646712192E+02 0.  0.
        -11    1    3    3    0    0 -0.17900776353E+02 -0.17616097248E+02 -0.81063964211E+00  0.25128108025E+02  0.00000000000E+00 0.  1.
         11    1    3    3    0    0  0.17900776353E+02  0.17616097248E+02  0.10120741994E+03  0.10427706616E+03  0.00000000000E+00 0. -1.
<mgrwt>
<rscale>  0 0.81646712E+02</rscale>
<asrwt>0</asrwt>
<pdfrwt beam="1">  1        1 0.17677073E-01 0.81646712E+02</pdfrwt>
<pdfrwt beam="2">  1       -1 0.22314150E-02 0.81646712E+02</pdfrwt>
<totfact> 0.14399031E+05</totfact>
</mgrwt>
</event>
<event>
 5    1  0.1265228E+001  0.9148892E+02  0.7546771E-02  0.1299286E+00
         -2   -1    0    0    0  501 -0.00000000000E+00  0.00000000000E+00  0.53619167087E+02  0.53619167087E+02  0.00000000000E+00 0.  1.
          2   -1    0    0  501    0  0.00000000000E+00 -0.00000000000E+00 -0.39026257138E+02  0.39026257138E+02  0.00000000000E+00 0. -1.
         23    2    1    2    0    0  0.00000000000E+00  0.00000000000E+00  0.14592909949E+02  0.92645424225E+02  0.91488915225E+02 0.  0.
        -11    1    3    3    0    0  0.62706297487E+00  0.36591421737E+02  0.35088423857E+02  0.50700323879E+02  0.00000000000E+00 0.  1.
         11    1    3    3    0    0 -0.62706297487E+00 -0.36591421737E+02 -0.20495513908E+02  0.41945100346E+02  0.00000000000E+00 0. -1.
<mgrwt>
<rscale>  0 0.91488915E+02</rscale>
<asrwt>0</asrwt>
<pdfrwt beam="2">  1        2 0.60040396E-02 0.91488915E+02</pdfrwt>
<pdfrwt beam="1">  1       -2 0.82491026E-02 0.91488915E+02</pdfrwt>
<totfact> 0.93845234E+04</totfact>
</mgrwt>
</event>
<event>
 5    1  0.1265228E+001  0.9101064E+02  0.7546771E-02  0.1300423E+00
         -1   -1    0    0    0  501 -0.00000000000E+00  0.00000000000E+00  0.83688853842E+02  0.83688853842E+02  0.00000000000E+00 0.  1.
          1   -1    0    0  501    0  0.00000000000E+00 -0.00000000000E+00 -0.24743246594E+02  0.24743246594E+02  0.00000000000E+00 0. -1.
         23    2    1    2    0    0  0.00000000000E+00  0.00000000000E+00  0.58945607247E+02  0.10843210044E+03  0.91010635594E+02 0.  0.
        -13    1    3    3    0    0 -0.43519447283E+01  0.42881492511E+02  0.46859901753E+02  0.63667984225E+02  0.00000000000E+00 0.  1.
         13    1    3    3    0    0  0.43519447283E+01 -0.42881492511E+02  0.12085705494E+02  0.44764116212E+02  0.00000000000E+00 0. -1.
<mgrwt>
<rscale>  0 0.91010636E+02</rscale>
<asrwt>0</asrwt>
<pdfrwt beam="2">  1        1 0.38066534E-02 0.91010636E+02</pdfrwt>
<pdfrwt beam="1">  1       -1 0.12875208E-01 0.91010636E+02</pdfrwt>
<totfact> 0.84396548E+04</totfact>
</mgrwt>
</event>
<event>
 5    1  0.1265228E+001  0.1011543E+03  0.7546771E-02  0.1277887E+00
          2   -1    0    0  501    0  0.00000000000E+00  0.00000000000E+00  0.28587933968E+03  0.28587933968E+03  0.00000000000E+00 0. -1.
         -2   -1    0    0    0  501 -0.00000000000E+00 -0.00000000000E+00 -0.89479994205E+01  0.89479994205E+01  0.00000000000E+00 0.  1.
         23    2    1    2    0    0  0.00000000000E+00  0.00000000000E+00  0.27693134026E+03  0.29482733910E+03  0.10115430126E+03 0.  0.
        -13    1    3    3    0    0  0.25870383948E+02 -0.43345435525E+02  0.12927435874E+03  0.13878027012E+03  0.00000000000E+00 0.  1.
         13    1    3    3    0    0 -0.25870383948E+02  0.43345435525E+02  0.14765698151E+03  0.15604706898E+03  0.00000000000E+00 0. -1.
<mgrwt>
<rscale>  0 0.10115430E+03</rscale>
<asrwt>0</asrwt>
<pdfrwt beam="1">  1        2 0.43981430E-01 0.10115430E+03</pdfrwt>
<pdfrwt beam="2">  1       -2 0.13766155E-02 0.10115430E+03</pdfrwt>
<totfact> 0.13348889E+05</totfact>
</mgrwt>
</event>
<event>
 5    1  0.1265228E+001  0.8966809E+02  0.7546771E-02  0.1303657E+00
         -2   -1    0    0    0  501 -0.00000000000E+00  0.00000000000E+00  0.22954651373E+02  0.22954651373E+02  0.00000000000E+00 0.  1.
          2   -1    0    0  501    0  0.00000000000E+00 -0.00000000000E+00 -0.87567942787E+02  0.87567942787E+02  0.00000000000E+00 0. -1.
         23    2    1    2    0    0  0.00000000000E+00  0.00000000000E+00 -0.64613291414E+02  0.11052259416E+03  0.89668090158E+02 0.  0.
        -13    1    3    3    0    0  0.23675174463E+02  0.17263727767E+02 -0.74133281172E+02  0.79713822889E+02  0.00000000000E+00 0. -1.
         13    1    3    3    0    0 -0.23675174463E+02 -0.17263727767E+02  0.95199897578E+01  0.30808771272E+02  0.00000000000E+00 0.  1.
<mgrwt>
<rscale>  0 0.89668090E+02</rscale>
<asrwt>0</asrwt>
<pdfrwt beam="2">  1        2 0.13471991E-01 0.89668090E+02</pdfrwt>
<pdfrwt beam="1">  1       -2 0.35314848E-02 0.89668090E+02</pdfrwt>
<totfact> 0.12346482E+05</totfact>
</mgrwt>
</event>
<event>
 5    1  0.1265228E+001  0.9017500E+02  0.7546771E-02  0.1302428E+00
         -3   -1    0    0    0  501 -0.00000000000E+00  0.00000000000E+00  0.19204382023E+03  0.19204382023E+03  0.00000000000E+00 0.  1.
          3   -1    0    0  501    0  0.00000000000E+00 -0.00000000000E+00 -0.10585513509E+02  0.10585513509E+02  0.00000000000E+00 0. -1.
         23    2    1    2    0    0  0.00000000000E+00  0.00000000000E+00  0.18145830672E+03  0.20262933374E+03  0.90174995499E+02 0.  0.
        -11    1    3    3    0    0  0.31299925882E+02 -0.13881315298E+02  0.15664550831E+03  0.16034397883E+03  0.00000000000E+00 0.  1.
         11    1    3    3    0    0 -0.31299925882E+02  0.13881315298E+02  0.24812798419E+02  0.42285354912E+02  0.00000000000E+00 0. -1.
<mgrwt>
<rscale>  0 0.90174995E+02</rscale>
<asrwt>0</asrwt>
<pdfrwt beam="2">  1        3 0.16285407E-02 0.90174995E+02</pdfrwt>
<pdfrwt beam="1">  1       -3 0.29545201E-01 0.90174995E+02</pdfrwt>
<totfact> 0.29218228E+04</totfact>
</mgrwt>
</event>
<event>
 5    1  0.1265228E+001  0.1015740E+03  0.7546771E-02  0.1277020E+00
         -3   -1    0    0    0  501 -0.00000000000E+00  0.00000000000E+00  0.20948786504E+03  0.20948786504E+03  0.00000000000E+00 0.  1.
          3   -1    0    0  501    0  0.00000000000E+00 -0.00000000000E+00 -0.12312497656E+02  0.12312497656E+02  0.00000000000E+00 0. -1.
         23    2    1    2    0    0  0.00000000000E+00  0.00000000000E+00  0.19717536738E+03  0.22180036270E+03  0.10157398973E+03 0.  0.
        -11    1    3    3    0    0 -0.34650191233E+02  0.52274227914E+01  0.17885981827E+03  0.18226024331E+03  0.00000000000E+00 0.  1.
         11    1    3    3    0    0  0.34650191233E+02 -0.52274227914E+01  0.18315549118E+02  0.39540119386E+02  0.00000000000E+00 0. -1.
<mgrwt>
<rscale>  0 0.10157399E+03</rscale>
<asrwt>0</asrwt>
<pdfrwt beam="2">  1        3 0.18942306E-02 0.10157399E+03</pdfrwt>
<pdfrwt beam="1">  1       -3 0.32228900E-01 0.10157399E+03</pdfrwt>
<totfact> 0.20444679E+04</totfact>
</mgrwt>
</event>
<event>
 5    1  0.1265228E+001  0.9073207E+02  0.7546771E-02  0.1301089E+00
          4   -1    0    0  501    0  0.00000000000E+00  0.00000000000E+00  0.11465831718E+02  0.11465831718E+02  0.00000000000E+00 0. -1.
         -4   -1    0    0    0  501 -0.00000000000E+00 -0.00000000000E+00 -0.17949654500E+03  0.17949654500E+03  0.00000000000E+00 0.  1.
         23    2    1    2    0    0  0.00000000000E+00  0.00000000000E+00 -0.16803071328E+03  0.19096237672E+03  0.90732071043E+02 0.  0.
        -13    1    3    3    0    0  0.34593948696E+02  0.28076441021E+02 -0.10200386580E+03  0.11130955244E+03  0.00000000000E+00 0.  1.
         13    1    3    3    0    0 -0.34593948696E+02 -0.28076441021E+02 -0.66026847484E+02  0.79652824277E+02  0.00000000000E+00 0. -1.
<mgrwt>
<rscale>  0 0.90732071E+02</rscale>
<asrwt>0</asrwt>
<pdfrwt beam="1">  1        4 0.17639740E-02 0.90732071E+02</pdfrwt>
<pdfrwt beam="2">  1       -4 0.27614855E-01 0.90732071E+02</pdfrwt>
<totfact> 0.22056506E+04</totfact>
</mgrwt>
</event>
<event>
 5    1  0.1265228E+001  0.9029108E+02  0.7546771E-02  0.1302148E+00
         -1   -1    0    0    0  501 -0.00000000000E+00  0.00000000000E+00  0.30763654045E+02  0.30763654045E+02  0.00000000000E+00 0.  1.
          1   -1    0    0  501    0  0.00000000000E+00 -0.00000000000E+00 -0.66250905657E+02  0.66250905657E+02  0.00000000000E+00 0. -1.
         23    2    1    2    0    0  0.00000000000E+00  0.00000000000E+00 -0.35487251612E+02  0.97014559701E+02  0.90291083541E+02 0.  0.
        -13    1    3    3    0    0 -0.39956848798E+02  0.61195911500E+01  0.38560704258E+01  0.40606261104E+02  0.00000000000E+00 0.  1.
         13    1    3    3    0    0  0.39956848798E+02 -0.61195911500E+01 -0.39343322038E+02  0.56408298597E+02  0.00000000000E+00 0. -1.
<mgrwt>
<rscale>  0 0.90291084E+02</rscale>
<asrwt>0</asrwt>
<pdfrwt beam="2">  1        1 0.10192447E-01 0.90291084E+02</pdfrwt>
<pdfrwt beam="1">  1       -1 0.47328699E-02 0.90291084E+02</pdfrwt>
<totfact> 0.10050709E+05</totfact>
</mgrwt>
</event>
<event>
 5    1  0.1265228E+001  0.9215562E+02  0.7546771E-02  0.1297714E+00
          2   -1    0    0  501    0  0.00000000000E+00  0.00000000000E+00  0.18690830535E+03  0.18690830535E+03  0.00000000000E+00 0. -1.
         -2   -1    0    0    0  501 -0.00000000000E+00 -0.00000000000E+00 -0.11359391955E+02  0.11359391955E+02  0.00000000000E+00 0.  1.
         23    2    1    2    0    0  0.00000000000E+00  0.00000000000E+00  0.17554891339E+03  0.19826769731E+03  0.92155622730E+02 0.  0.
        -13    1    3    3    0    0 -0.99317689065E+01  0.29901046003E+02  0.15438170195E+02  0.35086317628E+02  0.00000000000E+00 0.  1.
         13    1    3    3    0    0  0.99317689065E+01 -0.29901046003E+02  0.16011074320E+03  0.16318137968E+03  0.00000000000E+00 0. -1.
<mgrwt>
<rscale>  0 0.92155623E+02</rscale>
<asrwt>0</asrwt>
<pdfrwt beam="1">  1        2 0.28755122E-01 0.92155623E+02</pdfrwt>
<pdfrwt beam="2">  1       -2 0.17475989E-02 0.92155623E+02</pdfrwt>
<totfact> 0.14666749E+05</totfact>
</mgrwt>
</event>
<event>
 5    1  0.1265228E+001  0.9047295E+02  0.7546771E-02  0.1301710E+00
          3   -1    0    0  501    0  0.00000000000E+00  0.00000000000E+00  0.18889240947E+03  0.18889240947E+03  0.00000000000E+00 0. -1.
         -3   -1    0    0    0  501 -0.00000000000E+00 -0.00000000000E+00 -0.10833355229E+02  0.10833355229E+02  0.00000000000E+00 0.  1.
         23    2    1    2    0    0  0.00000000000E+00  0.00000000000E+00  0.17805905424E+03  0.19972576469E+03  0.90472947820E+02 0.  0.
        -11    1    3    3    0    0  0.17946241455E+02  0.41493436339E+02  0.85493457182E+02  0.96710413413E+02  0.00000000000E+00 0.  1.
         11    1    3    3    0    0 -0.17946241455E+02 -0.41493436339E+02  0.92565597054E+02  0.10301535128E+03  0.00000000000E+00 0. -1.
<mgrwt>
<rscale>  0 0.90472948E+02</rscale>
<asrwt>0</asrwt>
<pdfrwt beam="1">  1        3 0.29060368E-01 0.90472948E+02</pdfrwt>
<pdfrwt beam="2">  1       -3 0.16666702E-02 0.90472948E+02</pdfrwt>
<totfact> 0.29114300E+04</totfact>
</mgrwt>
</event>
<event>
 5    1  0.1265228E+001  0.9810151E+02  0.7546771E-02  0.1284340E+00
         -1   -1    0    0    0  501 -0.00000000000E+00  0.00000000000E+00  0.10944113775E+02  0.10944113775E+02  0.00000000000E+00 0.  1.
          1   -1    0    0  501    0  0.00000000000E+00 -0.00000000000E+00 -0.21984208493E+03  0.21984208493E+03  0.00000000000E+00 0. -1.
         23    2    1    2    0    0  0.00000000000E+00  0.00000000000E+00 -0.20889797116E+03  0.23078619871E+03  0.98101514565E+02 0.  0.
        -13    1    3    3    0    0  0.35719387223E+01  0.34112707697E+02 -0.21958156693E+02  0.40725866695E+02  0.00000000000E+00 0.  1.
         13    1    3    3    0    0 -0.35719387223E+01 -0.34112707697E+02 -0.18693981447E+03  0.19006033201E+03  0.00000000000E+00 0. -1.
<mgrwt>
<rscale>  0 0.98101515E+02</rscale>
<asrwt>0</asrwt>
<pdfrwt beam="2">  1        1 0.33821858E-01 0.98101515E+02</pdfrwt>
<pdfrwt beam="1">  1       -1 0.16837099E-02 0.98101515E+02</pdfrwt>
<totfact> 0.99052248E+04</totfact>
</mgrwt>
</event>
<event>
 5    1  0.1265228E+001  0.9116812E+02  0.7546771E-02  0.1300047E+00
         -1   -1    0    0    0  501 -0.00000000000E+00  0.00000000000E+00  0.11862656064E+02  0.11862656064E+02  0.00000000000E+00 0.  1.
          1   -1    0    0  501    0  0.00000000000E+00 -0.00000000000E+00 -0.17516368575E+03  0.17516368575E+03  0.00000000000E+00 0. -1.
         23    2    1    2    0    0  0.00000000000E+00  0.00000000000E+00 -0.16330102968E+03  0.18702634181E+03  0.91168120719E+02 0.  0.
        -11    1    3    3    0    0 -0.44272580052E+02  0.10843899721E+02 -0.82686551656E+02  0.94417780796E+02  0.00000000000E+00 0.  1.
         11    1    3    3    0    0  0.44272580052E+02 -0.10843899721E+02 -0.80614478028E+02  0.92608561016E+02  0.00000000000E+00 0. -1.
<mgrwt>
<rscale>  0 0.91168121E+02</rscale>
<asrwt>0</asrwt>
<pdfrwt beam="2">  1        1 0.26948259E-01 0.91168121E+02</pdfrwt>
<pdfrwt beam="1">  1       -1 0.18250240E-02 0.91168121E+02</pdfrwt>
<totfact> 0.11545547E+05</totfact>
</mgrwt>
</event>
<event>
 5    1  0.1265228E+001  0.9110671E+02  0.7546771E-02  0.1300194E+00
         -1   -1    0    0    0  501 -0.00000000000E+00  0.00000000000E+00  0.10628437262E+02  0.10628437262E+02  0.00000000000E+00 0.  1.
          1   -1    0    0  501    0  0.00000000000E+00 -0.00000000000E+00 -0.19524115534E+03  0.19524115534E+03  0.00000000000E+00 0. -1.
         23    2    1    2    0    0  0.00000000000E+00  0.00000000000E+00 -0.18461271808E+03  0.20586959260E+03  0.91106714800E+02 0.  0.
        -11    1    3    3    0    0  0.35929341530E+02  0.26434155967E+02 -0.11319149595E+03  0.12166345770E+03  0.00000000000E+00 0. -1.
         11    1    3    3    0    0 -0.35929341530E+02 -0.26434155967E+02 -0.71421222129E+02  0.84206134901E+02  0.00000000000E+00 0.  1.
<mgrwt>
<rscale>  0 0.91106715E+02</rscale>
<asrwt>0</asrwt>
<pdfrwt beam="2">  1        1 0.30037098E-01 0.91106715E+02</pdfrwt>
<pdfrwt beam="1">  1       -1 0.16351444E-02 0.91106715E+02</pdfrwt>
<totfact> 0.11809873E+05</totfact>
</mgrwt>
</event>
<event>
 5    1  0.1265228E+001  0.9125766E+02  0.7546771E-02  0.1299834E+00
         -2   -1    0    0    0  501 -0.00000000000E+00  0.00000000000E+00  0.91111185787E+01  0.91111185787E+01  0.00000000000E+00 0.  1.
          2   -1    0    0  501    0  0.00000000000E+00 -0.00000000000E+00 -0.22851091802E+03  0.22851091802E+03  0.00000000000E+00 0. -1.
         23    2    1    2    0    0  0.00000000000E+00  0.00000000000E+00 -0.21939979944E+03  0.23762203659E+03  0.91257658759E+02 0.  0.
        -13    1    3    3    0    0  0.30394478415E+02  0.31149277560E+02 -0.14539159802E+03  0.15176566998E+03  0.00000000000E+00 0. -1.
         13    1    3    3    0    0 -0.30394478415E+02 -0.31149277560E+02 -0.74008201415E+02  0.85856366610E+02  0.00000000000E+00 0.  1.
<mgrwt>
<rscale>  0 0.91257659E+02</rscale>
<asrwt>0</asrwt>
<pdfrwt beam="2">  1        2 0.35155525E-01 0.91257659E+02</pdfrwt>
<pdfrwt beam="1">  1       -2 0.14017106E-02 0.91257659E+02</pdfrwt>
<totfact> 0.16200020E+05</totfact>
</mgrwt>
</event>
<event>
 5    1  0.1265228E+001  0.9128744E+02  0.7546771E-02  0.1299764E+00
          1   -1    0    0  501    0  0.00000000000E+00  0.00000000000E+00  0.15646079220E+02  0.15646079220E+02  0.00000000000E+00 0. -1.
         -1   -1    0    0    0  501 -0.00000000000E+00 -0.00000000000E+00 -0.13315472594E+03  0.13315472594E+03  0.00000000000E+00 0.  1.
         23    2    1    2    0    0  0.00000000000E+00  0.00000000000E+00 -0.11750864672E+03  0.14880080516E+03  0.91287444714E+02 0.  0.
        -13    1    3    3    0    0 -0.16520891736E+02  0.40142275940E+02 -0.35759576381E+02  0.56241350307E+02  0.00000000000E+00 0.  1.
         13    1    3    3    0    0  0.16520891736E+02 -0.40142275940E+02 -0.81749070344E+02  0.92559454857E+02  0.00000000000E+00 0. -1.
<mgrwt>
<rscale>  0 0.91287445E+02</rscale>
<asrwt>0</asrwt>
<pdfrwt beam="1">  1        1 0.24070891E-02 0.91287445E+02</pdfrwt>
<pdfrwt beam="2">  1       -1 0.20485342E-01 0.91287445E+02</pdfrwt>
<totfact> 0.76584793E+04</totfact>
</mgrwt>
</event>
<event>
 5    1  0.1265228E+001  0.9092983E+02  0.7546771E-02  0.1300615E+00
         -1   -1    0    0    0  501 -0.00000000000E+00  0.00000000000E+00  0.26436043425E+02  0.26436043425E+02  0.00000000000E+00 0.  1.
          1   -1    0    0  501    0  0.00000000000E+00 -0.00000000000E+00 -0.78190921617E+02  0.78190921617E+02  0.00000000000E+00 0. -1.
         23    2    1    2    0    0  0.00000000000E+00  0.00000000000E+00 -0.51754878192E+02  0.10462696504E+03  0.90929832274E+02 0.  0.
        -11    1    3    3    0    0  0.36265903181E+02 -0.13359006106E+02 -0.53429776005E+02  0.65942548795E+02  0.00000000000E+00 0. -1.
         11    1    3    3    0    0 -0.36265903181E+02  0.13359006106E+02  0.16748978126E+01  0.38684416247E+02  0.00000000000E+00 0.  1.
<mgrwt>
<rscale>  0 0.90929832E+02</rscale>
<asrwt>0</asrwt>
<pdfrwt beam="2">  1        1 0.12029373E-01 0.90929832E+02</pdfrwt>
<pdfrwt beam="1">  1       -1 0.40670836E-02 0.90929832E+02</pdfrwt>
<totfact> 0.10113273E+05</totfact>
</mgrwt>
</event>
<event>
 5    1  0.1265228E+001  0.9294690E+02  0.7546771E-02  0.1295868E+00
         -3   -1    0    0    0  501 -0.00000000000E+00  0.00000000000E+00  0.89447816403E+02  0.89447816403E+02  0.00000000000E+00 0.  1.
          3   -1    0    0  501    0  0.00000000000E+00 -0.00000000000E+00 -0.24145717580E+02  0.24145717580E+02  0.00000000000E+00 0. -1.
         23    2    1    2    0    0  0.00000000000E+00  0.00000000000E+00  0.65302098823E+02  0.11359353398E+03  0.92946903402E+02 0.  0.
        -11    1    3    3    0    0  0.28570927949E+02 -0.27554664140E+02  0.62190912901E+02  0.73778500169E+02  0.00000000000E+00 0. -1.
         11    1    3    3    0    0 -0.28570927949E+02  0.27554664140E+02  0.31111859220E+01  0.39815033814E+02  0.00000000000E+00 0.  1.
<mgrwt>
<rscale>  0 0.92946903E+02</rscale>
<asrwt>0</asrwt>
<pdfrwt beam="2">  1        3 0.37147258E-02 0.92946903E+02</pdfrwt>
<pdfrwt beam="1">  1       -3 0.13761202E-01 0.92946903E+02</pdfrwt>
<totfact> 0.31972295E+04</totfact>
</mgrwt>
</event>
<event>
 5    1  0.1265228E+001  0.9138022E+02  0.7546771E-02  0.1299543E+00
         -1   -1    0    0    0  501 -0.00000000000E+00  0.00000000000E+00  0.34126964678E+02  0.34126964678E+02  0.00000000000E+00 0.  1.
          1   -1    0    0  501    0  0.00000000000E+00 -0.00000000000E+00 -0.61171165073E+02  0.61171165073E+02  0.00000000000E+00 0. -1.
         23    2    1    2    0    0  0.00000000000E+00  0.00000000000E+00 -0.27044200395E+02  0.95298129751E+02  0.91380220830E+02 0.  0.
        -11    1    3    3    0    0 -0.22177492097E+02  0.35062261978E+01  0.27976604872E+02  0.35872345868E+02  0.00000000000E+00 0.  1.
         11    1    3    3    0    0  0.22177492097E+02 -0.35062261978E+01 -0.55020805267E+02  0.59425783883E+02  0.00000000000E+00 0. -1.
<mgrwt>
<rscale>  0 0.91380221E+02</rscale>
<asrwt>0</asrwt>
<pdfrwt beam="2">  1        1 0.94109484E-02 0.91380221E+02</pdfrwt>
<pdfrwt beam="1">  1       -1 0.52503023E-02 0.91380221E+02</pdfrwt>
<totfact> 0.96058130E+04</totfact>
</mgrwt>
</event>
<event>
 5    1  0.1265228E+001  0.9040995E+02  0.7546771E-02  0.1301862E+00
          2   -1    0    0  501    0  0.00000000000E+00  0.00000000000E+00  0.13322431690E+03  0.13322431690E+03  0.00000000000E+00 0. -1.
         -2   -1    0    0    0  501 -0.00000000000E+00 -0.00000000000E+00 -0.15338715187E+02  0.15338715187E+02  0.00000000000E+00 0.  1.
         23    2    1    2    0    0  0.00000000000E+00  0.00000000000E+00  0.11788560171E+03  0.14856303209E+03  0.90409951951E+02 0.  0.
        -11    1    3    3    0    0 -0.36498047300E+02  0.18724955000E+02  0.27732153537E+02  0.49515691818E+02  0.00000000000E+00 0.  1.
         11    1    3    3    0    0  0.36498047300E+02 -0.18724955000E+02  0.90153448176E+02  0.99047340269E+02  0.00000000000E+00 0. -1.
<mgrwt>
<rscale>  0 0.90409952E+02</rscale>
<asrwt>0</asrwt>
<pdfrwt beam="1">  1        2 0.20496048E-01 0.90409952E+02</pdfrwt>
<pdfrwt beam="2">  1       -2 0.23598024E-02 0.90409952E+02</pdfrwt>
<totfact> 0.13748388E+05</totfact>
</mgrwt>
</event>
<event>
 5    1  0.1265228E+001  0.8883941E+02  0.7546771E-02  0.1305687E+00
         -1   -1    0    0    0  501 -0.00000000000E+00  0.00000000000E+00  0.19840527720E+03  0.19840527720E+03  0.00000000000E+00 0.  1.
          1   -1    0    0  501    0  0.00000000000E+00 -0.00000000000E+00 -0.99448480210E+01  0.99448480210E+01  0.00000000000E+00 0. -1.
         23    2    1    2    0    0  0.00000000000E+00  0.00000000000E+00  0.18846042918E+03  0.20835012522E+03  0.88839413063E+02 0.  0.
        -11    1    3    3    0    0 -0.17599910495E+02  0.34818962950E+02  0.44425193398E+02  0.59124570517E+02  0.00000000000E+00 0. -1.
         11    1    3    3    0    0  0.17599910495E+02 -0.34818962950E+02  0.14403523578E+03  0.14922555471E+03  0.00000000000E+00 0.  1.
<mgrwt>
<rscale>  0 0.88839413E+02</rscale>
<asrwt>0</asrwt>
<pdfrwt beam="2">  1        1 0.15299768E-02 0.88839413E+02</pdfrwt>
<pdfrwt beam="1">  1       -1 0.30523886E-01 0.88839413E+02</pdfrwt>
<totfact> 0.74446698E+04</totfact>
</mgrwt>
</event>
<event>
 4    1  0.1265228E+001  0.3891006E+02  0.7546771E-02  0.1516389E+00
          4   -1    0    0  501    0  0.00000000000E+00  0.00000000000E+00  0.40037035393E+01  0.40037035393E+01  0.00000000000E+00 0.  1.
         -4   -1    0    0    0  501 -0.00000000000E+00 -0.00000000000E+00 -0.94537017279E+02  0.94537017279E+02  0.00000000000E+00 0. -1.
        -13    1    1    2    0    0 -0.65552273277E+01  0.14345436395E+02 -0.16420797327E+02  0.22768511931E+02  0.00000000000E+00 0.  1.
         13    1    1    2    0    0  0.65552273277E+01 -0.14345436395E+02 -0.74112516413E+02  0.75772208888E+02  0.00000000000E+00 0. -1.
<mgrwt>
<rscale>  0 0.38910060E+02</rscale>
<asrwt>0</asrwt>
<pdfrwt beam="1">  1        4 0.61595436E-03 0.38910060E+02</pdfrwt>
<pdfrwt beam="2">  1       -4 0.14544157E-01 0.38910060E+02</pdfrwt>
<totfact> 0.22994718E+05</totfact>
</mgrwt>
</event>
<event>
 5    1  0.1265228E+001  0.9092557E+02  0.7546771E-02  0.1300626E+00
         -3   -1    0    0    0  501 -0.00000000000E+00  0.00000000000E+00  0.14337439359E+02  0.14337439359E+02  0.00000000000E+00 0.  1.
          3   -1    0    0  501    0  0.00000000000E+00 -0.00000000000E+00 -0.14415857428E+03  0.14415857428E+03  0.00000000000E+00 0. -1.
         23    2    1    2    0    0  0.00000000000E+00  0.00000000000E+00 -0.12982113492E+03  0.15849601364E+03  0.90925569930E+02 0.  0.
        -13    1    3    3    0    0  0.43858364115E+02 -0.89583335677E+01 -0.51068566554E+02  0.67910281498E+02  0.00000000000E+00 0. -1.
         13    1    3    3    0    0 -0.43858364115E+02  0.89583335677E+01 -0.78752568365E+02  0.90585732139E+02  0.00000000000E+00 0.  1.
<mgrwt>
<rscale>  0 0.90925570E+02</rscale>
<asrwt>0</asrwt>
<pdfrwt beam="2">  1        3 0.22178243E-01 0.90925570E+02</pdfrwt>
<pdfrwt beam="1">  1       -3 0.22057599E-02 0.90925570E+02</pdfrwt>
<totfact> 0.31026096E+04</totfact>
</mgrwt>
</event>
<event>
 5    1  0.1265228E+001  0.9181339E+02  0.7546771E-02  0.1298519E+00
         -3   -1    0    0    0  501 -0.00000000000E+00  0.00000000000E+00  0.29908911368E+02  0.29908911368E+02  0.00000000000E+00 0.  1.
          3   -1    0    0  501    0  0.00000000000E+00 -0.00000000000E+00 -0.70461429908E+02  0.70461429908E+02  0.00000000000E+00 0. -1.
         23    2    1    2    0    0  0.00000000000E+00  0.00000000000E+00 -0.40552518540E+02  0.10037034128E+03  0.91813390351E+02 0.  0.
        -13    1    3    3    0    0  0.26976684875E+02  0.31200374948E+01 -0.60738646024E+02  0.66533144234E+02  0.00000000000E+00 0. -1.
         13    1    3    3    0    0 -0.26976684875E+02 -0.31200374948E+01  0.20186127484E+02  0.33837197041E+02  0.00000000000E+00 0.  1.
<mgrwt>
<rscale>  0 0.91813390E+02</rscale>
<asrwt>0</asrwt>
<pdfrwt beam="2">  1        3 0.10840220E-01 0.91813390E+02</pdfrwt>
<pdfrwt beam="1">  1       -3 0.46013710E-02 0.91813390E+02</pdfrwt>
<totfact> 0.33992388E+04</totfact>
</mgrwt>
</event>
<event>
 5    1  0.1265228E+001  0.9367593E+02  0.7546771E-02  0.1294186E+00
         -1   -1    0    0    0  501 -0.00000000000E+00  0.00000000000E+00  0.92406941062E+02  0.92406941062E+02  0.00000000000E+00 0.  1.
          1   -1    0    0  501    0  0.00000000000E+00 -0.00000000000E+00 -0.23740584953E+02  0.23740584953E+02  0.00000000000E+00 0. -1.
         23    2    1    2    0    0  0.00000000000E+00  0.00000000000E+00  0.68666356109E+02  0.11614752602E+03  0.93675927208E+02 0.  0.
        -13    1    3    3    0    0  0.24223877570E+02  0.25911691395E+02  0.72257959504E+02  0.80494873794E+02  0.00000000000E+00 0.  1.
         13    1    3    3    0    0 -0.24223877570E+02 -0.25911691395E+02 -0.35916033947E+01  0.35652652221E+02  0.00000000000E+00 0. -1.
<mgrwt>
<rscale>  0 0.93675927E+02</rscale>
<asrwt>0</asrwt>
<pdfrwt beam="2">  1        1 0.36523977E-02 0.93675927E+02</pdfrwt>
<pdfrwt beam="1">  1       -1 0.14216452E-01 0.93675927E+02</pdfrwt>
<totfact> 0.77003162E+04</totfact>
</mgrwt>
</event>
<event>
 5    1  0.1265228E+001  0.9102993E+02  0.7546771E-02  0.1300377E+00
          1   -1    0    0  501    0  0.00000000000E+00  0.00000000000E+00  0.48620485779E+02  0.48620485779E+02  0.00000000000E+00 0. -1.
         -1   -1    0    0    0  501 -0.00000000000E+00 -0.00000000000E+00 -0.42607802596E+02  0.42607802596E+02  0.00000000000E+00 0.  1.
         23    2    1    2    0    0  0.00000000000E+00  0.00000000000E+00  0.60126831824E+01  0.91228288375E+02  0.91029930467E+02 0.  0.
        -13    1    3    3    0    0 -0.35203527416E+02 -0.28698441507E+02  0.59662791710E+01  0.45809228051E+02  0.00000000000E+00 0.  1.
         13    1    3    3    0    0  0.35203527416E+02  0.28698441507E+02  0.46404011383E-01  0.45419060325E+02  0.00000000000E+00 0. -1.
<mgrwt>
<rscale>  0 0.91029930E+02</rscale>
<asrwt>0</asrwt>
<pdfrwt beam="1">  1        1 0.74800747E-02 0.91029930E+02</pdfrwt>
<pdfrwt beam="2">  1       -1 0.65550466E-02 0.91029930E+02</pdfrwt>
<totfact> 0.93793713E+04</totfact>
</mgrwt>
</event>
<event>
 5    1  0.1265228E+001  0.9187016E+02  0.7546771E-02  0.1298385E+00
          2   -1    0    0  501    0  0.00000000000E+00  0.00000000000E+00  0.62921757391E+02  0.62921757391E+02  0.00000000000E+00 0. -1.
         -2   -1    0    0    0  501 -0.00000000000E+00 -0.00000000000E+00 -0.33534212571E+02  0.33534212571E+02  0.00000000000E+00 0.  1.
         23    2    1    2    0    0  0.00000000000E+00  0.00000000000E+00  0.29387544820E+02  0.96455969962E+02  0.91870160285E+02 0.  0.
        -11    1    3    3    0    0  0.19123853862E+02  0.15675204218E+02 -0.25950296605E+02  0.35844828186E+02  0.00000000000E+00 0.  1.
         11    1    3    3    0    0 -0.19123853862E+02 -0.15675204218E+02  0.55337841425E+02  0.60611141776E+02  0.00000000000E+00 0. -1.
<mgrwt>
<rscale>  0 0.91870160E+02</rscale>
<asrwt>0</asrwt>
<pdfrwt beam="1">  1        2 0.96802704E-02 0.91870160E+02</pdfrwt>
<pdfrwt beam="2">  1       -2 0.51591096E-02 0.91870160E+02</pdfrwt>
<totfact> 0.10516819E+05</totfact>
</mgrwt>
</event>
<event>
 5    1  0.1265228E+001  0.9476880E+02  0.7546771E-02  0.1291698E+00
         -1   -1    0    0    0  501 -0.00000000000E+00  0.00000000000E+00  0.45716347862E+02  0.45716347862E+02  0.00000000000E+00 0.  1.
          1   -1    0    0  501    0  0.00000000000E+00 -0.00000000000E+00 -0.49113309801E+02  0.49113309801E+02  0.00000000000E+00 0. -1.
         23    2    1    2    0    0  0.00000000000E+00  0.00000000000E+00 -0.33969619389E+01  0.94829657662E+02  0.94768795613E+02 0.  0.
        -11    1    3    3    0    0 -0.28269364294E+02 -0.26165125134E+02  0.25914719629E+02  0.46425676347E+02  0.00000000000E+00 0.  1.
         11    1    3    3    0    0  0.28269364294E+02  0.26165125134E+02 -0.29311681568E+02  0.48403981315E+02  0.00000000000E+00 0. -1.
<mgrwt>
<rscale>  0 0.94768796E+02</rscale>
<asrwt>0</asrwt>
<pdfrwt beam="2">  1        1 0.75558938E-02 0.94768796E+02</pdfrwt>
<pdfrwt beam="1">  1       -1 0.70332843E-02 0.94768796E+02</pdfrwt>
<totfact> 0.83895391E+04</totfact>
</mgrwt>
</event>
<event>
 5    1  0.1265228E+001  0.9006406E+02  0.7546771E-02  0.1302697E+00
          3   -1    0    0  501    0  0.00000000000E+00  0.00000000000E+00  0.43594368131E+02  0.43594368131E+02  0.00000000000E+00 0. -1.
         -3   -1    0    0    0  501 -0.00000000000E+00 -0.00000000000E+00 -0.46517100062E+02  0.46517100062E+02  0.00000000000E+00 0.  1.
         23    2    1    2    0    0  0.00000000000E+00  0.00000000000E+00 -0.29227319316E+01  0.90111468193E+02  0.90064056860E+02 0.  0.
        -11    1    3    3    0    0  0.42578692344E+01  0.39797996320E+02 -0.22108935218E+02  0.45725430320E+02  0.00000000000E+00 0.  1.
         11    1    3    3    0    0 -0.42578692344E+01 -0.39797996320E+02  0.19186203287E+02  0.44386037873E+02  0.00000000000E+00 0. -1.
<mgrwt>
<rscale>  0 0.90064057E+02</rscale>
<asrwt>0</asrwt>
<pdfrwt beam="1">  1        3 0.67068259E-02 0.90064057E+02</pdfrwt>
<pdfrwt beam="2">  1       -3 0.71564769E-02 0.90064057E+02</pdfrwt>
<totfact> 0.36623751E+04</totfact>
</mgrwt>
</event>
<event>
 5    1  0.1265228E+001  0.9388036E+02  0.7546771E-02  0.1293718E+00
          2   -1    0    0  501    0  0.00000000000E+00  0.00000000000E+00  0.38612090505E+02  0.38612090505E+02  0.00000000000E+00 0.  1.
         -2   -1    0    0    0  501 -0.00000000000E+00 -0.00000000000E+00 -0.57064517778E+02  0.57064517778E+02  0.00000000000E+00 0. -1.
         23    2    1    2    0    0  0.00000000000E+00  0.00000000000E+00 -0.18452427272E+02  0.95676608283E+02  0.93880356307E+02 0.  0.
        -13    1    3    3    0    0  0.15867048147E+01 -0.46912687870E+02 -0.94808128622E+01  0.47887406778E+02  0.00000000000E+00 0. -1.
         13    1    3    3    0    0 -0.15867048147E+01  0.46912687870E+02 -0.89716144100E+01  0.47789201505E+02  0.00000000000E+00 0.  1.
<mgrwt>
<rscale>  0 0.93880356E+02</rscale>
<asrwt>0</asrwt>
<pdfrwt beam="1">  1        2 0.59403216E-02 0.93880356E+02</pdfrwt>
<pdfrwt beam="2">  1       -2 0.87791566E-02 0.93880356E+02</pdfrwt>
<totfact> 0.86798775E+04</totfact>
</mgrwt>
</event>
<event>
 5    1  0.1265228E+001  0.9383561E+02  0.7546771E-02  0.1293820E+00
          3   -1    0    0  501    0  0.00000000000E+00  0.00000000000E+00  0.11572812636E+02  0.11572812636E+02  0.00000000000E+00 0. -1.
         -3   -1    0    0    0  501 -0.00000000000E+00 -0.00000000000E+00 -0.19021137071E+03  0.19021137071E+03  0.00000000000E+00 0.  1.
         23    2    1    2    0    0  0.00000000000E+00  0.00000000000E+00 -0.17863855808E+03  0.20178418335E+03  0.93835612740E+02 0.  0.
        -13    1    3    3    0    0  0.93791334685E+01  0.29901335394E+02 -0.14232941606E+02  0.34418521608E+02  0.00000000000E+00 0. -1.
         13    1    3    3    0    0 -0.93791334685E+01 -0.29901335394E+02 -0.16440561647E+03  0.16736566174E+03  0.00000000000E+00 0.  1.
<mgrwt>
<rscale>  0 0.93835613E+02</rscale>
<asrwt>0</asrwt>
<pdfrwt beam="1">  1        3 0.17804329E-02 0.93835613E+02</pdfrwt>
<pdfrwt beam="2">  1       -3 0.29263285E-01 0.93835613E+02</pdfrwt>
<totfact> 0.26279675E+04</totfact>
</mgrwt>
</event>
<event>
 5    1  0.1265228E+001  0.9278019E+02  0.7546771E-02  0.1296255E+00
          3   -1    0    0  501    0  0.00000000000E+00  0.00000000000E+00  0.54451948949E+02  0.54451948949E+02  0.00000000000E+00 0. -1.
         -3   -1    0    0    0  501 -0.00000000000E+00 -0.00000000000E+00 -0.39521836844E+02  0.39521836844E+02  0.00000000000E+00 0.  1.
         23    2    1    2    0    0  0.00000000000E+00  0.00000000000E+00  0.14930112105E+02  0.93973785793E+02  0.92780192761E+02 0.  0.
        -13    1    3    3    0    0 -0.27674421371E+02 -0.27246561457E+02 -0.18234424934E+02  0.42903880502E+02  0.00000000000E+00 0.  1.
         13    1    3    3    0    0  0.27674421371E+02  0.27246561457E+02  0.33164537039E+02  0.51069905291E+02  0.00000000000E+00 0. -1.
<mgrwt>
<rscale>  0 0.92780193E+02</rscale>
<asrwt>0</asrwt>
<pdfrwt beam="1">  1        3 0.83772229E-02 0.92780193E+02</pdfrwt>
<pdfrwt beam="2">  1       -3 0.60802826E-02 0.92780193E+02</pdfrwt>
<totfact> 0.33492062E+04</totfact>
</mgrwt>
</event>
<event>
 5    1  0.1265228E+001  0.9166796E+02  0.7546771E-02  0.1298862E+00
         -1   -1    0    0    0  501 -0.00000000000E+00  0.00000000000E+00  0.56548907888E+01  0.56548907888E+01  0.00000000000E+00 0.  1.
          1   -1    0    0  501    0  0.00000000000E+00 -0.00000000000E+00 -0.37149321930E+03  0.37149321930E+03  0.00000000000E+00 0. -1.
         23    2    1    2    0    0  0.00000000000E+00  0.00000000000E+00 -0.36583832851E+03  0.37714811009E+03  0.91667956973E+02 0.  0.
        -13    1    3    3    0    0  0.37764252250E+02 -0.25636942486E+02 -0.16577586294E+03  0.17194484087E+03  0.00000000000E+00 0. -1.
         13    1    3    3    0    0 -0.37764252250E+02  0.25636942486E+02 -0.20006246557E+03  0.20520326922E+03  0.00000000000E+00 0.  1.
<mgrwt>
<rscale>  0 0.91667957E+02</rscale>
<asrwt>0</asrwt>
<pdfrwt beam="2">  1        1 0.57152825E-01 0.91667957E+02</pdfrwt>
<pdfrwt beam="1">  1       -1 0.86998286E-03 0.91667957E+02</pdfrwt>
<totfact> 0.13132789E+05</totfact>
</mgrwt>
</event>
<event>
 5    1  0.1265228E+001  0.9382989E+02  0.7546771E-02  0.1293833E+00
         -1   -1    0    0    0  501 -0.00000000000E+00  0.00000000000E+00  0.80762371694E+01  0.80762371694E+01  0.00000000000E+00 0.  1.
          1   -1    0    0  501    0  0.00000000000E+00 -0.00000000000E+00 -0.27252939236E+03  0.27252939236E+03  0.00000000000E+00 0. -1.
         23    2    1    2    0    0  0.00000000000E+00  0.00000000000E+00 -0.26445315519E+03  0.28060562953E+03  0.93829888806E+02 0.  0.
        -11    1    3    3    0    0  0.98537366346E+01 -0.39152863355E+02 -0.60766824916E+02  0.72956492822E+02  0.00000000000E+00 0.  1.
         11    1    3    3    0    0 -0.98537366346E+01  0.39152863355E+02 -0.20368633028E+03  0.20764913671E+03  0.00000000000E+00 0. -1.
<mgrwt>
<rscale>  0 0.93829889E+02</rscale>
<asrwt>0</asrwt>
<pdfrwt beam="2">  1        1 0.41927593E-01 0.93829889E+02</pdfrwt>
<pdfrwt beam="1">  1       -1 0.12424982E-02 0.93829889E+02</pdfrwt>
<totfact> 0.11648590E+05</totfact>
</mgrwt>
</event>
<event>
 5    1  0.1265228E+001  0.7580928E+02  0.7546771E-02  0.1341383E+00
         -2   -1    0    0    0  501 -0.00000000000E+00  0.00000000000E+00  0.21721795323E+02  0.21721795323E+02  0.00000000000E+00 0.  1.
          2   -1    0    0  501    0  0.00000000000E+00 -0.00000000000E+00 -0.66143780431E+02  0.66143780431E+02  0.00000000000E+00 0. -1.
         23    2    1    2    0    0  0.00000000000E+00  0.00000000000E+00 -0.44421985108E+02  0.87865575753E+02  0.75809278070E+02 0.  0.
        -13    1    3    3    0    0  0.19740055322E+02 -0.12313736895E+02 -0.56894291995E+02  0.61467539092E+02  0.00000000000E+00 0. -1.
         13    1    3    3    0    0 -0.19740055322E+02  0.12313736895E+02  0.12472306887E+02  0.26398036661E+02  0.00000000000E+00 0.  1.
<mgrwt>
<rscale>  0 0.75809278E+02</rscale>
<asrwt>0</asrwt>
<pdfrwt beam="2">  1        2 0.10175966E-01 0.75809278E+02</pdfrwt>
<pdfrwt beam="1">  1       -2 0.33418147E-02 0.75809278E+02</pdfrwt>
<totfact> 0.18131800E+05</totfact>
</mgrwt>
</event>
<event>
 5    1  0.1265228E+001  0.8994914E+02  0.7546771E-02  0.1302975E+00
          2   -1    0    0  501    0  0.00000000000E+00  0.00000000000E+00  0.77836761787E+02  0.77836761787E+02  0.00000000000E+00 0. -1.
         -2   -1    0    0    0  501 -0.00000000000E+00 -0.00000000000E+00 -0.25986589464E+02  0.25986589464E+02  0.00000000000E+00 0.  1.
         23    2    1    2    0    0  0.00000000000E+00  0.00000000000E+00  0.51850172322E+02  0.10382335125E+03  0.89949140602E+02 0.  0.
        -11    1    3    3    0    0  0.21424472669E+02  0.24726032714E+02 -0.96946854646E+01  0.34122890399E+02  0.00000000000E+00 0.  1.
         11    1    3    3    0    0 -0.21424472669E+02 -0.24726032714E+02  0.61544857787E+02  0.69700460852E+02  0.00000000000E+00 0. -1.
<mgrwt>
<rscale>  0 0.89949141E+02</rscale>
<asrwt>0</asrwt>
<pdfrwt beam="1">  1        2 0.11974886E-01 0.89949141E+02</pdfrwt>
<pdfrwt beam="2">  1       -2 0.39979369E-02 0.89949141E+02</pdfrwt>
<totfact> 0.11833492E+05</totfact>
</mgrwt>
</event>
<event>
 5    1  0.1265228E+001  0.9077582E+02  0.7546771E-02  0.1300984E+00
          1   -1    0    0  501    0  0.00000000000E+00  0.00000000000E+00  0.44051899138E+02  0.44051899138E+02  0.00000000000E+00 0. -1.
         -1   -1    0    0    0  501 -0.00000000000E+00 -0.00000000000E+00 -0.46764440549E+02  0.46764440549E+02  0.00000000000E+00 0.  1.
         23    2    1    2    0    0  0.00000000000E+00  0.00000000000E+00 -0.27125414108E+01  0.90816339686E+02  0.90775820972E+02 0.  0.
        -11    1    3    3    0    0 -0.32826890183E+02  0.31274207314E+02 -0.34504456043E+01  0.45470719558E+02  0.00000000000E+00 0.  1.
         11    1    3    3    0    0  0.32826890183E+02 -0.31274207314E+02  0.73790419358E+00  0.45345620128E+02  0.00000000000E+00 0. -1.
<mgrwt>
<rscale>  0 0.90775821E+02</rscale>
<asrwt>0</asrwt>
<pdfrwt beam="1">  1        1 0.67772152E-02 0.90775821E+02</pdfrwt>
<pdfrwt beam="2">  1       -1 0.71945293E-02 0.90775821E+02</pdfrwt>
<totfact> 0.93142819E+04</totfact>
</mgrwt>
</event>
<event>
 5    1  0.1265228E+001  0.9055309E+02  0.7546771E-02  0.1301518E+00
          4   -1    0    0  501    0  0.00000000000E+00  0.00000000000E+00  0.18703451847E+02  0.18703451847E+02  0.00000000000E+00 0. -1.
         -4   -1    0    0    0  501 -0.00000000000E+00 -0.00000000000E+00 -0.10960359351E+03  0.10960359351E+03  0.00000000000E+00 0.  1.
         23    2    1    2    0    0  0.00000000000E+00  0.00000000000E+00 -0.90900141664E+02  0.12830704536E+03  0.90553090140E+02 0.  0.
        -11    1    3    3    0    0  0.25556470063E+02 -0.56952678715E+01  0.68879739763E+01  0.27074220648E+02  0.00000000000E+00 0. -1.
         11    1    3    3    0    0 -0.25556470063E+02  0.56952678715E+01 -0.97788115641E+02  0.10123282471E+03  0.00000000000E+00 0.  1.
<mgrwt>
<rscale>  0 0.90553090E+02</rscale>
<asrwt>0</asrwt>
<pdfrwt beam="1">  1        4 0.28774541E-02 0.90553090E+02</pdfrwt>
<pdfrwt beam="2">  1       -4 0.16862092E-01 0.90553090E+02</pdfrwt>
<totfact> 0.25273234E+04</totfact>
</mgrwt>
</event>
<event>
 5    1  0.1265228E+001  0.9133220E+02  0.7546771E-02  0.1299657E+00
          3   -1    0    0  501    0  0.00000000000E+00  0.00000000000E+00  0.57917384879E+02  0.57917384879E+02  0.00000000000E+00 0. -1.
         -3   -1    0    0    0  501 -0.00000000000E+00 -0.00000000000E+00 -0.36006337288E+02  0.36006337288E+02  0.00000000000E+00 0.  1.
         23    2    1    2    0    0  0.00000000000E+00  0.00000000000E+00  0.21911047591E+02  0.93923722168E+02  0.91332204502E+02 0.  0.
        -13    1    3    3    0    0  0.80281335310E+01 -0.34082774451E+02 -0.19190177479E+02  0.39929304451E+02  0.00000000000E+00 0.  1.
         13    1    3    3    0    0 -0.80281335310E+01  0.34082774451E+02  0.41101225070E+02  0.53994417716E+02  0.00000000000E+00 0. -1.
<mgrwt>
<rscale>  0 0.91332205E+02</rscale>
<asrwt>0</asrwt>
<pdfrwt beam="1">  1        3 0.89103669E-02 0.91332205E+02</pdfrwt>
<pdfrwt beam="2">  1       -3 0.55394365E-02 0.91332205E+02</pdfrwt>
<totfact> 0.34965854E+04</totfact>
</mgrwt>
</event>
<event>
 5    1  0.1265228E+001  0.9224582E+02  0.7546771E-02  0.1297502E+00
          2   -1    0    0  501    0  0.00000000000E+00  0.00000000000E+00  0.80083883177E+02  0.80083883177E+02  0.00000000000E+00 0. -1.
         -2   -1    0    0    0  501 -0.00000000000E+00 -0.00000000000E+00 -0.26563680645E+02  0.26563680645E+02  0.00000000000E+00 0.  1.
         23    2    1    2    0    0  0.00000000000E+00  0.00000000000E+00  0.53520202532E+02  0.10664756382E+03  0.92245817195E+02 0.  0.
        -13    1    3    3    0    0 -0.31512565703E+01  0.45925668195E+02  0.23444367799E+02  0.51659808348E+02  0.00000000000E+00 0.  1.
         13    1    3    3    0    0  0.31512565703E+01 -0.45925668195E+02  0.30075834733E+02  0.54987755473E+02  0.00000000000E+00 0. -1.
<mgrwt>
<rscale>  0 0.92245817E+02</rscale>
<asrwt>0</asrwt>
<pdfrwt beam="1">  1        2 0.12320597E-01 0.92245817E+02</pdfrwt>
<pdfrwt beam="2">  1       -2 0.40867201E-02 0.92245817E+02</pdfrwt>
<totfact> 0.11122136E+05</totfact>
</mgrwt>
</event>
<event>
 5    1  0.1265228E+001  0.8640132E+02  0.7546771E-02  0.1311808E+00
          4   -1    0    0  501    0  0.00000000000E+00  0.00000000000E+00  0.66845467132E+02  0.66845467132E+02  0.00000000000E+00 0. -1.
         -4   -1    0    0    0  501 -0.00000000000E+00 -0.00000000000E+00 -0.27919576400E+02  0.27919576400E+02  0.00000000000E+00 0.  1.
         23    2    1    2    0    0  0.00000000000E+00  0.00000000000E+00  0.38925890732E+02  0.94765043532E+02  0.86401322365E+02 0.  0.
        -13    1    3    3    0    0  0.90311022258E+01 -0.23653960028E+02  0.57854523682E+02  0.63152328088E+02  0.00000000000E+00 0. -1.
         13    1    3    3    0    0 -0.90311022258E+01  0.23653960028E+02 -0.18928632950E+02  0.31612715444E+02  0.00000000000E+00 0.  1.
<mgrwt>
<rscale>  0 0.86401322E+02</rscale>
<asrwt>0</asrwt>
<pdfrwt beam="1">  1        4 0.10283918E-01 0.86401322E+02</pdfrwt>
<pdfrwt beam="2">  1       -4 0.42953195E-02 0.86401322E+02</pdfrwt>
<totfact> 0.30970767E+04</totfact>
</mgrwt>
</event>
<event>
 5    1  0.1265228E+001  0.9735784E+02  0.7546771E-02  0.1285952E+00
         -1   -1    0    0    0  501 -0.00000000000E+00  0.00000000000E+00  0.63868226325E+01  0.63868226325E+01  0.00000000000E+00 0.  1.
          1   -1    0    0  501    0  0.00000000000E+00 -0.00000000000E+00 -0.37101975417E+03  0.37101975417E+03  0.00000000000E+00 0. -1.
         23    2    1    2    0    0  0.00000000000E+00  0.00000000000E+00 -0.36463293154E+03  0.37740657680E+03  0.97357842273E+02 0.  0.
        -11    1    3    3    0    0 -0.38928471916E+02  0.28707397386E+02 -0.16104984496E+03  0.16815645438E+03  0.00000000000E+00 0.  1.
         11    1    3    3    0    0  0.38928471916E+02 -0.28707397386E+02 -0.20358308658E+03  0.20925012242E+03  0.00000000000E+00 0. -1.
<mgrwt>
<rscale>  0 0.97357842E+02</rscale>
<asrwt>0</asrwt>
<pdfrwt beam="2">  1        1 0.57079968E-01 0.97357842E+02</pdfrwt>
<pdfrwt beam="1">  1       -1 0.98258800E-03 0.97357842E+02</pdfrwt>
<totfact> 0.11181060E+05</totfact>
</mgrwt>
</event>
<event>
 5    1  0.1265228E+001  0.9139155E+02  0.7546771E-02  0.1299516E+00
          1   -1    0    0  501    0  0.00000000000E+00  0.00000000000E+00  0.18355349924E+02  0.18355349924E+02  0.00000000000E+00 0. -1.
         -1   -1    0    0    0  501 -0.00000000000E+00 -0.00000000000E+00 -0.11375995284E+03  0.11375995284E+03  0.00000000000E+00 0.  1.
         23    2    1    2    0    0  0.00000000000E+00  0.00000000000E+00 -0.95404602920E+02  0.13211530277E+03  0.91391547568E+02 0.  0.
        -11    1    3    3    0    0  0.11612804290E+02  0.22495160341E+02 -0.10269607392E+03  0.10577037894E+03  0.00000000000E+00 0.  1.
         11    1    3    3    0    0 -0.11612804290E+02 -0.22495160341E+02  0.72914709993E+01  0.26344923829E+02  0.00000000000E+00 0. -1.
<mgrwt>
<rscale>  0 0.91391548E+02</rscale>
<asrwt>0</asrwt>
<pdfrwt beam="1">  1        1 0.28239000E-02 0.91391548E+02</pdfrwt>
<pdfrwt beam="2">  1       -1 0.17501531E-01 0.91391548E+02</pdfrwt>
<totfact> 0.78899189E+04</totfact>
</mgrwt>
</event>
<event>
 5    1  0.1265228E+001  0.8808843E+02  0.7546771E-02  0.1307548E+00
         -3   -1    0    0    0  501 -0.00000000000E+00  0.00000000000E+00  0.28543288907E+02  0.28543288907E+02  0.00000000000E+00 0.  1.
          3   -1    0    0  501    0  0.00000000000E+00 -0.00000000000E+00 -0.67963190307E+02  0.67963190307E+02  0.00000000000E+00 0. -1.
         23    2    1    2    0    0  0.00000000000E+00  0.00000000000E+00 -0.39419901400E+02  0.96506479214E+02  0.88088432294E+02 0.  0.
        -11    1    3    3    0    0  0.41059331054E+02  0.15932506085E+02 -0.20174189544E+02  0.48442866766E+02  0.00000000000E+00 0.  1.
         11    1    3    3    0    0 -0.41059331054E+02 -0.15932506085E+02 -0.19245711856E+02  0.48063612448E+02  0.00000000000E+00 0. -1.
<mgrwt>
<rscale>  0 0.88088432E+02</rscale>
<asrwt>0</asrwt>
<pdfrwt beam="2">  1        3 0.10455875E-01 0.88088432E+02</pdfrwt>
<pdfrwt beam="1">  1       -3 0.43912752E-02 0.88088432E+02</pdfrwt>
<totfact> 0.38355738E+04</totfact>
</mgrwt>
</event>
<event>
 5    1  0.1265228E+001  0.9212093E+02  0.7546771E-02  0.1297795E+00
          3   -1    0    0  501    0  0.00000000000E+00  0.00000000000E+00  0.10254083830E+02  0.10254083830E+02  0.00000000000E+00 0. -1.
         -3   -1    0    0    0  501 -0.00000000000E+00 -0.00000000000E+00 -0.20689966686E+03  0.20689966686E+03  0.00000000000E+00 0.  1.
         23    2    1    2    0    0  0.00000000000E+00  0.00000000000E+00 -0.19664558303E+03  0.21715375069E+03  0.92120932007E+02 0.  0.
        -11    1    3    3    0    0 -0.44831728395E+02 -0.97125393014E+01 -0.10814138349E+03  0.11746819193E+03  0.00000000000E+00 0.  1.
         11    1    3    3    0    0  0.44831728395E+02  0.97125393014E+01 -0.88504199534E+02  0.99685558762E+02  0.00000000000E+00 0. -1.
<mgrwt>
<rscale>  0 0.92120932E+02</rscale>
<asrwt>0</asrwt>
<pdfrwt beam="1">  1        3 0.15775516E-02 0.92120932E+02</pdfrwt>
<pdfrwt beam="2">  1       -3 0.31830714E-01 0.92120932E+02</pdfrwt>
<totfact> 0.26874957E+04</totfact>
</mgrwt>
</event>
<event>
 5    1  0.1265228E+001  0.8977267E+02  0.7546771E-02  0.1303403E+00
          2   -1    0    0  501    0  0.00000000000E+00  0.00000000000E+00  0.99414555084E+02  0.99414555084E+02  0.00000000000E+00 0. -1.
         -2   -1    0    0    0  501 -0.00000000000E+00 -0.00000000000E+00 -0.20266481830E+02  0.20266481830E+02  0.00000000000E+00 0.  1.
         23    2    1    2    0    0  0.00000000000E+00  0.00000000000E+00  0.79148073254E+02  0.11968103691E+03  0.89772674556E+02 0.  0.
        -11    1    3    3    0    0  0.41831333013E+02 -0.87213038292E+01  0.21252869334E+02  0.47724270734E+02  0.00000000000E+00 0.  1.
         11    1    3    3    0    0 -0.41831333013E+02  0.87213038292E+01  0.57895203920E+02  0.71956766180E+02  0.00000000000E+00 0. -1.
<mgrwt>
<rscale>  0 0.89772675E+02</rscale>
<asrwt>0</asrwt>
<pdfrwt beam="1">  1        2 0.15294547E-01 0.89772675E+02</pdfrwt>
<pdfrwt beam="2">  1       -2 0.31179203E-02 0.89772675E+02</pdfrwt>
<totfact> 0.12779386E+05</totfact>
</mgrwt>
</event>
<event>
 5    1  0.1265228E+001  0.9226272E+02  0.7546771E-02  0.1297463E+00
          2   -1    0    0  501    0  0.00000000000E+00  0.00000000000E+00  0.10718138967E+02  0.10718138967E+02  0.00000000000E+00 0. -1.
         -2   -1    0    0    0  501 -0.00000000000E+00 -0.00000000000E+00 -0.19855147262E+03  0.19855147262E+03  0.00000000000E+00 0.  1.
         23    2    1    2    0    0  0.00000000000E+00  0.00000000000E+00 -0.18783333366E+03  0.20926961159E+03  0.92262717836E+02 0.  0.
        -13    1    3    3    0    0  0.21725062953E+01  0.40932266539E+02 -0.14192161360E+03  0.14772242427E+03  0.00000000000E+00 0.  1.
         13    1    3    3    0    0 -0.21725062953E+01 -0.40932266539E+02 -0.45911720058E+02  0.61547187314E+02  0.00000000000E+00 0. -1.
<mgrwt>
<rscale>  0 0.92262718E+02</rscale>
<asrwt>0</asrwt>
<pdfrwt beam="1">  1        2 0.16489446E-02 0.92262718E+02</pdfrwt>
<pdfrwt beam="2">  1       -2 0.30546377E-01 0.92262718E+02</pdfrwt>
<totfact> 0.60651958E+04</totfact>
</mgrwt>
</event>
<event>
 5    1  0.1265228E+001  0.1060909E+03  0.7546771E-02  0.1267985E+00
          3   -1    0    0  501    0  0.00000000000E+00  0.00000000000E+00  0.37967428217E+02  0.37967428217E+02  0.00000000000E+00 0. -1.
         -3   -1    0    0    0  501 -0.00000000000E+00 -0.00000000000E+00 -0.74111427670E+02  0.74111427670E+02  0.00000000000E+00 0.  1.
         23    2    1    2    0    0  0.00000000000E+00  0.00000000000E+00 -0.36143999453E+02  0.11207885589E+03  0.10609091026E+03 0.  0.
        -11    1    3    3    0    0 -0.32966423392E+02  0.22201611850E+02 -0.55184896554E+02  0.68007863131E+02  0.00000000000E+00 0.  1.
         11    1    3    3    0    0  0.32966423392E+02 -0.22201611850E+02  0.19040897101E+02  0.44070992755E+02  0.00000000000E+00 0. -1.
<mgrwt>
<rscale>  0 0.10609091E+03</rscale>
<asrwt>0</asrwt>
<pdfrwt beam="1">  1        3 0.58411429E-02 0.10609091E+03</pdfrwt>
<pdfrwt beam="2">  1       -3 0.11401758E-01 0.10609091E+03</pdfrwt>
<totfact> 0.22299650E+04</totfact>
</mgrwt>
</event>
<event>
 5    1  0.1265228E+001  0.8853249E+02  0.7546771E-02  0.1306445E+00
         -1   -1    0    0    0  501 -0.00000000000E+00  0.00000000000E+00  0.70297550987E+02  0.70297550987E+02  0.00000000000E+00 0.  1.
          1   -1    0    0  501    0  0.00000000000E+00 -0.00000000000E+00 -0.27874376192E+02  0.27874376192E+02  0.00000000000E+00 0. -1.
         23    2    1    2    0    0  0.00000000000E+00  0.00000000000E+00  0.42423174794E+02  0.98171927179E+02  0.88532488536E+02 0.  0.
        -11    1    3    3    0    0 -0.11568632569E+02  0.41362191346E+02  0.33094533960E+02  0.54220958222E+02  0.00000000000E+00 0.  1.
         11    1    3    3    0    0  0.11568632569E+02 -0.41362191346E+02  0.93286408339E+01  0.43950968957E+02  0.00000000000E+00 0. -1.
<mgrwt>
<rscale>  0 0.88532489E+02</rscale>
<asrwt>0</asrwt>
<pdfrwt beam="2">  1        1 0.42883656E-02 0.88532489E+02</pdfrwt>
<pdfrwt beam="1">  1       -1 0.10815008E-01 0.88532489E+02</pdfrwt>
<totfact> 0.93211139E+04</totfact>
</mgrwt>
</event>
<event>
 5    1  0.1265228E+001  0.9158291E+02  0.7546771E-02  0.1299063E+00
          2   -1    0    0  501    0  0.00000000000E+00  0.00000000000E+00  0.79541204565E+02  0.79541204565E+02  0.00000000000E+00 0.  1.
         -2   -1    0    0    0  501 -0.00000000000E+00 -0.00000000000E+00 -0.26361899818E+02  0.26361899818E+02  0.00000000000E+00 0. -1.
         23    2    1    2    0    0  0.00000000000E+00  0.00000000000E+00  0.53179304747E+02  0.10590310438E+03  0.91582908146E+02 0.  0.
        -11    1    3    3    0    0 -0.33619679942E+02  0.22735135723E+02  0.51111314572E+02  0.65265118962E+02  0.00000000000E+00 0.  1.
         11    1    3    3    0    0  0.33619679942E+02 -0.22735135723E+02  0.20679901745E+01  0.40637985421E+02  0.00000000000E+00 0. -1.
<mgrwt>
<rscale>  0 0.91582908E+02</rscale>
<asrwt>0</asrwt>
<pdfrwt beam="1">  1        2 0.12237108E-01 0.91582908E+02</pdfrwt>
<pdfrwt beam="2">  1       -2 0.40556769E-02 0.91582908E+02</pdfrwt>
<totfact> 0.11325738E+05</totfact>
</mgrwt>
</event>
<event>
 5    1  0.1265228E+001  0.9190273E+02  0.7546771E-02  0.1298308E+00
          2   -1    0    0  501    0  0.00000000000E+00  0.00000000000E+00  0.90513162890E+02  0.90513162890E+02  0.00000000000E+00 0. -1.
         -2   -1    0    0    0  501 -0.00000000000E+00 -0.00000000000E+00 -0.23328407783E+02  0.23328407783E+02  0.00000000000E+00 0.  1.
         23    2    1    2    0    0  0.00000000000E+00  0.00000000000E+00  0.67184755107E+02  0.11384157067E+03  0.91902730614E+02 0.  0.
        -11    1    3    3    0    0 -0.24355340086E+02  0.13703038413E+02 -0.11592350579E+02  0.30254560721E+02  0.00000000000E+00 0.  1.
         11    1    3    3    0    0  0.24355340086E+02 -0.13703038413E+02  0.78777105686E+02  0.83587009952E+02  0.00000000000E+00 0. -1.
<mgrwt>
<rscale>  0 0.91902731E+02</rscale>
<asrwt>0</asrwt>
<pdfrwt beam="1">  1        2 0.13925102E-01 0.91902731E+02</pdfrwt>
<pdfrwt beam="2">  1       -2 0.35889859E-02 0.91902731E+02</pdfrwt>
<totfact> 0.11647325E+05</totfact>
</mgrwt>
</event>
<event>
 5    1  0.1265228E+001  0.9603596E+02  0.7546771E-02  0.1288860E+00
          2   -1    0    0  501    0  0.00000000000E+00  0.00000000000E+00  0.37652864237E+02  0.37652864237E+02  0.00000000000E+00 0. -1.
         -2   -1    0    0    0  501 -0.00000000000E+00 -0.00000000000E+00 -0.61236419707E+02  0.61236419707E+02  0.00000000000E+00 0.  1.
         23    2    1    2    0    0  0.00000000000E+00  0.00000000000E+00 -0.23583555470E+02  0.98889283944E+02  0.96035964047E+02 0.  0.
        -13    1    3    3    0    0 -0.22428008364E+02  0.40384052281E+02 -0.25290002481E+02  0.52663758537E+02  0.00000000000E+00 0.  1.
         13    1    3    3    0    0  0.22428008364E+02 -0.40384052281E+02  0.17064470109E+01  0.46225525407E+02  0.00000000000E+00 0. -1.
<mgrwt>
<rscale>  0 0.96035964E+02</rscale>
<asrwt>0</asrwt>
<pdfrwt beam="1">  1        2 0.57927483E-02 0.96035964E+02</pdfrwt>
<pdfrwt beam="2">  1       -2 0.94209877E-02 0.96035964E+02</pdfrwt>
<totfact> 0.80652598E+04</totfact>
</mgrwt>
</event>
<event>
 5    1  0.1265228E+001  0.9111290E+02  0.7546771E-02  0.1300179E+00
         -2   -1    0    0    0  501 -0.00000000000E+00  0.00000000000E+00  0.11652367966E+02  0.11652367966E+02  0.00000000000E+00 0.  1.
          2   -1    0    0  501    0  0.00000000000E+00 -0.00000000000E+00 -0.17810887724E+03  0.17810887724E+03  0.00000000000E+00 0. -1.
         23    2    1    2    0    0  0.00000000000E+00  0.00000000000E+00 -0.16645650928E+03  0.18976124521E+03  0.91112900856E+02 0.  0.
        -13    1    3    3    0    0  0.44235187725E+02  0.92994795718E+01 -0.71417645062E+02  0.84520483787E+02  0.00000000000E+00 0.  1.
         13    1    3    3    0    0 -0.44235187725E+02 -0.92994795718E+01 -0.95038864213E+02  0.10524076142E+03  0.00000000000E+00 0. -1.
<mgrwt>
<rscale>  0 0.91112901E+02</rscale>
<asrwt>0</asrwt>
<pdfrwt beam="2">  1        2 0.27401366E-01 0.91112901E+02</pdfrwt>
<pdfrwt beam="1">  1       -2 0.17926720E-02 0.91112901E+02</pdfrwt>
<totfact> 0.14867115E+05</totfact>
</mgrwt>
</event>
<event>
 5    1  0.1265228E+001  0.9051332E+02  0.7546771E-02  0.1301613E+00
         -2   -1    0    0    0  501 -0.00000000000E+00  0.00000000000E+00  0.21349624041E+02  0.21349624041E+02  0.00000000000E+00 0. -1.
          2   -1    0    0  501    0  0.00000000000E+00 -0.00000000000E+00 -0.95934499126E+02  0.95934499126E+02  0.00000000000E+00 0.  1.
         23    2    1    2    0    0  0.00000000000E+00  0.00000000000E+00 -0.74584875085E+02  0.11728412317E+03  0.90513324740E+02 0.  0.
        -11    1    3    3    0    0  0.33314206425E+02 -0.69401505071E+01 -0.75952414138E+02  0.83227226628E+02  0.00000000000E+00 0.  1.
         11    1    3    3    0    0 -0.33314206425E+02  0.69401505071E+01  0.13675390523E+01  0.34056896539E+02  0.00000000000E+00 0. -1.
<mgrwt>
<rscale>  0 0.90513325E+02</rscale>
<asrwt>0</asrwt>
<pdfrwt beam="2">  1        2 0.14759154E-01 0.90513325E+02</pdfrwt>
<pdfrwt beam="1">  1       -2 0.32845575E-02 0.90513325E+02</pdfrwt>
<totfact> 0.12360635E+05</totfact>
</mgrwt>
</event>
<event>
 5    1  0.1265228E+001  0.9052131E+02  0.7546771E-02  0.1301594E+00
         -3   -1    0    0    0  501 -0.00000000000E+00  0.00000000000E+00  0.55195408822E+02  0.55195408822E+02  0.00000000000E+00 0.  1.
          3   -1    0    0  501    0  0.00000000000E+00 -0.00000000000E+00 -0.37114081287E+02  0.37114081287E+02  0.00000000000E+00 0. -1.
         23    2    1    2    0    0  0.00000000000E+00  0.00000000000E+00  0.18081327535E+02  0.92309490109E+02  0.90521309971E+02 0.  0.
        -11    1    3    3    0    0  0.12085517165E+02 -0.19106492429E+02 -0.30943705275E+02  0.38322717469E+02  0.00000000000E+00 0. -1.
         11    1    3    3    0    0 -0.12085517165E+02  0.19106492429E+02  0.49025032810E+02  0.53986772640E+02  0.00000000000E+00 0.  1.
<mgrwt>
<rscale>  0 0.90521310E+02</rscale>
<asrwt>0</asrwt>
<pdfrwt beam="2">  1        3 0.57098586E-02 0.90521310E+02</pdfrwt>
<pdfrwt beam="1">  1       -3 0.84916014E-02 0.90521310E+02</pdfrwt>
<totfact> 0.35951253E+04</totfact>
</mgrwt>
</event>
<event>
 5    1  0.1265228E+001  0.9381880E+02  0.7546771E-02  0.1293859E+00
          2   -1    0    0  501    0  0.00000000000E+00  0.00000000000E+00  0.30235298829E+02  0.30235298829E+02  0.00000000000E+00 0. -1.
         -2   -1    0    0    0  501 -0.00000000000E+00 -0.00000000000E+00 -0.72778896538E+02  0.72778896538E+02  0.00000000000E+00 0.  1.
         23    2    1    2    0    0  0.00000000000E+00  0.00000000000E+00 -0.42543597710E+02  0.10301419537E+03  0.93818797376E+02 0.  0.
        -13    1    3    3    0    0 -0.35127453768E+02 -0.96405080238E+01 -0.53725712462E+02  0.64910165481E+02  0.00000000000E+00 0.  1.
         13    1    3    3    0    0  0.35127453768E+02  0.96405080238E+01  0.11182114753E+02  0.38104029886E+02  0.00000000000E+00 0. -1.
<mgrwt>
<rscale>  0 0.93818797E+02</rscale>
<asrwt>0</asrwt>
<pdfrwt beam="1">  1        2 0.46515845E-02 0.93818797E+02</pdfrwt>
<pdfrwt beam="2">  1       -2 0.11196753E-01 0.93818797E+02</pdfrwt>
<totfact> 0.81419489E+04</totfact>
</mgrwt>
</event>
<event>
 5    1  0.1265228E+001  0.9129901E+02  0.7546771E-02  0.1299736E+00
          1   -1    0    0  501    0  0.00000000000E+00  0.00000000000E+00  0.75281768804E+01  0.75281768804E+01  0.00000000000E+00 0. -1.
         -1   -1    0    0    0  501 -0.00000000000E+00 -0.00000000000E+00 -0.27681033340E+03  0.27681033340E+03  0.00000000000E+00 0.  1.
         23    2    1    2    0    0  0.00000000000E+00  0.00000000000E+00 -0.26928215652E+03  0.28433851028E+03  0.91299006613E+02 0.  0.
        -11    1    3    3    0    0 -0.24718614632E+02  0.37114607551E+02 -0.16505571915E+03  0.17097337344E+03  0.00000000000E+00 0.  1.
         11    1    3    3    0    0  0.24718614632E+02 -0.37114607551E+02 -0.10422643737E+03  0.11336513684E+03  0.00000000000E+00 0. -1.
<mgrwt>
<rscale>  0 0.91299007E+02</rscale>
<asrwt>0</asrwt>
<pdfrwt beam="1">  1        1 0.11581810E-02 0.91299007E+02</pdfrwt>
<pdfrwt beam="2">  1       -1 0.42586208E-01 0.91299007E+02</pdfrwt>
<totfact> 0.62253939E+04</totfact>
</mgrwt>
</event>
<event>
 5    1  0.1265228E+001  0.9117895E+02  0.7546771E-02  0.1300022E+00
          2   -1    0    0  501    0  0.00000000000E+00  0.00000000000E+00  0.12792454462E+03  0.12792454462E+03  0.00000000000E+00 0. -1.
         -2   -1    0    0    0  501 -0.00000000000E+00 -0.00000000000E+00 -0.16247078985E+02  0.16247078985E+02  0.00000000000E+00 0.  1.
         23    2    1    2    0    0  0.00000000000E+00  0.00000000000E+00  0.11167746563E+03  0.14417162360E+03  0.91178948897E+02 0.  0.
        -11    1    3    3    0    0  0.26551232127E+02 -0.21869385510E+02  0.85305699997E+01  0.35440211265E+02  0.00000000000E+00 0.  1.
         11    1    3    3    0    0 -0.26551232127E+02  0.21869385510E+02  0.10314689563E+03  0.10873141234E+03  0.00000000000E+00 0. -1.
<mgrwt>
<rscale>  0 0.91178949E+02</rscale>
<asrwt>0</asrwt>
<pdfrwt beam="1">  1        2 0.19680698E-01 0.91178949E+02</pdfrwt>
<pdfrwt beam="2">  1       -2 0.24995507E-02 0.91178949E+02</pdfrwt>
<totfact> 0.13257181E+05</totfact>
</mgrwt>
</event>
<event>
 5    1  0.1265228E+001  0.9396777E+02  0.7546771E-02  0.1293518E+00
         -2   -1    0    0    0  501 -0.00000000000E+00  0.00000000000E+00  0.40086049532E+02  0.40086049532E+02  0.00000000000E+00 0.  1.
          2   -1    0    0  501    0  0.00000000000E+00 -0.00000000000E+00 -0.55068672782E+02  0.55068672782E+02  0.00000000000E+00 0. -1.
         23    2    1    2    0    0  0.00000000000E+00  0.00000000000E+00 -0.14982623250E+02  0.95154722314E+02  0.93967772024E+02 0.  0.
        -13    1    3    3    0    0  0.16893519160E+02 -0.20318988280E+01  0.36856466074E+02  0.40594564832E+02  0.00000000000E+00 0.  1.
         13    1    3    3    0    0 -0.16893519160E+02  0.20318988280E+01 -0.51839089324E+02  0.54560157481E+02  0.00000000000E+00 0. -1.
<mgrwt>
<rscale>  0 0.93967772E+02</rscale>
<asrwt>0</asrwt>
<pdfrwt beam="2">  1        2 0.84721035E-02 0.93967772E+02</pdfrwt>
<pdfrwt beam="1">  1       -2 0.61670846E-02 0.93967772E+02</pdfrwt>
<totfact> 0.95151401E+04</totfact>
</mgrwt>
</event>
<event>
 5    1  0.1265228E+001  0.9107300E+02  0.7546771E-02  0.1300274E+00
          1   -1    0    0  501    0  0.00000000000E+00  0.00000000000E+00  0.13047743596E+03  0.13047743596E+03  0.00000000000E+00 0. -1.
         -1   -1    0    0    0  501 -0.00000000000E+00 -0.00000000000E+00 -0.15892196495E+02  0.15892196495E+02  0.00000000000E+00 0.  1.
         23    2    1    2    0    0  0.00000000000E+00  0.00000000000E+00  0.11458523947E+03  0.14636963246E+03  0.91073004792E+02 0.  0.
        -11    1    3    3    0    0 -0.19726330938E+02  0.36659155773E+02  0.27633890818E+02  0.49966526355E+02  0.00000000000E+00 0.  1.
         11    1    3    3    0    0  0.19726330938E+02 -0.36659155773E+02  0.86951348649E+02  0.96403106102E+02  0.00000000000E+00 0. -1.
<mgrwt>
<rscale>  0 0.91073005E+02</rscale>
<asrwt>0</asrwt>
<pdfrwt beam="1">  1        1 0.20073451E-01 0.91073005E+02</pdfrwt>
<pdfrwt beam="2">  1       -1 0.24449534E-02 0.91073005E+02</pdfrwt>
<totfact> 0.10967645E+05</totfact>
</mgrwt>
</event>
<event>
 4    1  0.1265228E+001  0.1396252E+03  0.7546771E-02  0.1213834E+00
         -3   -1    0    0    0  501 -0.00000000000E+00  0.00000000000E+00  0.36464613609E+02  0.36464613609E+02  0.00000000000E+00 0.  1.
          3   -1    0    0  501    0  0.00000000000E+00 -0.00000000000E+00 -0.13365831713E+03  0.13365831713E+03  0.00000000000E+00 0. -1.
        -13    1    1    2    0    0  0.68108574695E+02  0.15121243519E+02 -0.45521940812E+02  0.83304724042E+02  0.00000000000E+00 0.  1.
         13    1    1    2    0    0 -0.68108574695E+02 -0.15121243519E+02 -0.51671762709E+02  0.86818206696E+02  0.00000000000E+00 0. -1.
<mgrwt>
<rscale>  0 0.13962520E+03</rscale>
<asrwt>0</asrwt>
<pdfrwt beam="2">  1        3 0.20562818E-01 0.13962520E+03</pdfrwt>
<pdfrwt beam="1">  1       -3 0.56099406E-02 0.13962520E+03</pdfrwt>
<totfact> 0.92257602E+03</totfact>
</mgrwt>
</event>
