<event>
 5    1  0.2734570E+000  0.8713055E+02  0.7818608E-02  0.1309953E+00
          1   -1    0    0  501    0  0.00000000000E+00  0.00000000000E+00  0.74956928105E+02  0.74956928251E+02  0.46700000000E-02 0. -1.
         -1   -1    0    0    0  501 -0.00000000000E+00 -0.00000000000E+00 -0.25320315199E+02  0.25320315630E+02  0.46700000000E-02 0.  1.
         23    2    1    2    0    0  0.00000000000E+00  0.00000000000E+00  0.49636612906E+02  0.10027724388E+03  0.87130547453E+02 0.  0.
        -13    1    3    3    0    0 -0.13086843016E+02  0.20099097079E+02 -0.17037892738E+02  0.29420063307E+02  0.10570000000E+00 0.  1.
         13    1    3    3    0    0  0.13086843016E+02 -0.20099097079E+02  0.66674505644E+02  0.70857180574E+02  0.10570000000E+00 0. -1.
<mgrwt>
<rscale>  0 0.87130547E+02</rscale>
<asrwt>0</asrwt>
<pdfrwt beam="1">  1        1 0.11531835E-01 0.87130547E+02</pdfrwt>
<pdfrwt beam="2">  1       -1 0.38954332E-02 0.87130547E+02</pdfrwt>
<totfact> 0.11292702E+05</totfact>
</mgrwt>
</event>
<event>
 5    1  0.2734570E+000  0.9283614E+02  0.7818608E-02  0.1296125E+00
         -1   -1    0    0    0  501 -0.00000000000E+00  0.00000000000E+00  0.91518350137E+02  0.91518350256E+02  0.46700000000E-02 0.  1.
          1   -1    0    0  501    0  0.00000000000E+00 -0.00000000000E+00 -0.23543225992E+02  0.23543226455E+02  0.46700000000E-02 0. -1.
         23    2    1    2    0    0  0.00000000000E+00  0.00000000000E+00  0.67975124145E+02  0.11506157671E+03  0.92836140230E+02 0.  0.
        -13    1    3    3    0    0 -0.20500457914E+02 -0.40709279810E+02  0.44871191125E+02  0.63960528475E+02  0.10570000000E+00 0.  1.
         13    1    3    3    0    0  0.20500457914E+02  0.40709279810E+02  0.23103933020E+02  0.51101048236E+02  0.10570000000E+00 0. -1.
<mgrwt>
<rscale>  0 0.92836140E+02</rscale>
<asrwt>0</asrwt>
<pdfrwt beam="2">  1        1 0.36220349E-02 0.92836140E+02</pdfrwt>
<pdfrwt beam="1">  1       -1 0.14079746E-01 0.92836140E+02</pdfrwt>
<totfact> 0.78946224E+04</totfact>
</mgrwt>
</event>
<event>
 5    1  0.2734570E+000  0.9084091E+02  0.7818608E-02  0.1300828E+00
          1   -1    0    0  501    0  0.00000000000E+00  0.00000000000E+00  0.25113533219E+03  0.25113533224E+03  0.46700000000E-02 0. -1.
         -1   -1    0    0    0  501 -0.00000000000E+00 -0.00000000000E+00 -0.82147641224E+01  0.82147654498E+01  0.46700000000E-02 0.  1.
         23    2    1    2    0    0  0.00000000000E+00  0.00000000000E+00  0.24292056807E+03  0.25935009769E+03  0.90840909166E+02 0.  0.
        -13    1    3    3    0    0  0.20133410584E+02  0.36822019966E+02  0.17105760186E+03  0.17613043377E+03  0.10570000000E+00 0.  1.
         13    1    3    3    0    0 -0.20133410584E+02 -0.36822019966E+02  0.71862966215E+02  0.83219663913E+02  0.10570000000E+00 0. -1.
<mgrwt>
<rscale>  0 0.90840909E+02</rscale>
<asrwt>0</asrwt>
<pdfrwt beam="1">  1        1 0.38636210E-01 0.90840909E+02</pdfrwt>
<pdfrwt beam="2">  1       -1 0.12638098E-02 0.90840909E+02</pdfrwt>
<totfact> 0.12500531E+05</totfact>
</mgrwt>
</event>
<event>
 5    1  0.2734570E+000  0.8920604E+02  0.7818608E-02  0.1304786E+00
          1   -1    0    0  501    0  0.00000000000E+00  0.00000000000E+00  0.24915066848E+02  0.24915067286E+02  0.46700000000E-02 0. -1.
         -1   -1    0    0    0  501 -0.00000000000E+00 -0.00000000000E+00 -0.79848438323E+02  0.79848438459E+02  0.46700000000E-02 0.  1.
         23    2    1    2    0    0  0.00000000000E+00  0.00000000000E+00 -0.54933371475E+02  0.10476350575E+03  0.89206035863E+02 0.  0.
        -13    1    3    3    0    0 -0.23368846236E+02  0.31737497890E+02 -0.51990164677E+02  0.65240785881E+02  0.10570000000E+00 0. -1.
         13    1    3    3    0    0  0.23368846236E+02 -0.31737497890E+02 -0.29432067976E+01  0.39522719864E+02  0.10570000000E+00 0.  1.
<mgrwt>
<rscale>  0 0.89206036E+02</rscale>
<asrwt>0</asrwt>
<pdfrwt beam="1">  1        1 0.38330873E-02 0.89206036E+02</pdfrwt>
<pdfrwt beam="2">  1       -1 0.12284375E-01 0.89206036E+02</pdfrwt>
<totfact> 0.89543472E+04</totfact>
</mgrwt>
</event>
<event>
 5    1  0.2734570E+000  0.9028660E+02  0.7818608E-02  0.1302159E+00
          1   -1    0    0  501    0  0.00000000000E+00  0.00000000000E+00  0.22004457502E+03  0.22004457507E+03  0.46700000000E-02 0. -1.
         -1   -1    0    0    0  501 -0.00000000000E+00 -0.00000000000E+00 -0.92613846072E+01  0.92613857846E+01  0.46700000000E-02 0.  1.
         23    2    1    2    0    0  0.00000000000E+00  0.00000000000E+00  0.21078319041E+03  0.22930596085E+03  0.90286601013E+02 0.  0.
        -13    1    3    3    0    0 -0.43624013051E+02 -0.88878212006E+01  0.12437336855E+03  0.13210145290E+03  0.10570000000E+00 0. -1.
         13    1    3    3    0    0  0.43624013051E+02  0.88878212006E+01  0.86409821858E+02  0.97204507953E+02  0.10570000000E+00 0.  1.
<mgrwt>
<rscale>  0 0.90286601E+02</rscale>
<asrwt>0</asrwt>
<pdfrwt beam="1">  1        1 0.33853012E-01 0.90286601E+02</pdfrwt>
<pdfrwt beam="2">  1       -1 0.14248285E-02 0.90286601E+02</pdfrwt>
<totfact> 0.12383552E+05</totfact>
</mgrwt>
</event>
<event>
 5    1  0.2734570E+000  0.8977214E+02  0.7818608E-02  0.1303404E+00
          1   -1    0    0  501    0  0.00000000000E+00  0.00000000000E+00  0.15445265263E+02  0.15445265969E+02  0.46700000000E-02 0. -1.
         -1   -1    0    0    0  501 -0.00000000000E+00 -0.00000000000E+00 -0.13044509028E+03  0.13044509037E+03  0.46700000000E-02 0.  1.
         23    2    1    2    0    0  0.00000000000E+00  0.00000000000E+00 -0.11499982502E+03  0.14589035634E+03  0.89772135527E+02 0.  0.
        -13    1    3    3    0    0 -0.27752062206E+02  0.29477766136E+02 -0.26003110057E+02  0.48117445466E+02  0.10570000000E+00 0. -1.
         13    1    3    3    0    0  0.27752062206E+02 -0.29477766136E+02 -0.88996714966E+02  0.97772910871E+02  0.10570000000E+00 0.  1.
<mgrwt>
<rscale>  0 0.89772136E+02</rscale>
<asrwt>0</asrwt>
<pdfrwt beam="1">  1        1 0.23761948E-02 0.89772136E+02</pdfrwt>
<pdfrwt beam="2">  1       -1 0.20068475E-01 0.89772136E+02</pdfrwt>
<totfact> 0.80330110E+04</totfact>
</mgrwt>
</event>
<event>
 5    1  0.2734570E+000  0.9558425E+02  0.7818608E-02  0.1289866E+00
          1   -1    0    0  501    0  0.00000000000E+00  0.00000000000E+00  0.42741543121E+02  0.42741543376E+02  0.46700000000E-02 0. -1.
         -1   -1    0    0    0  501 -0.00000000000E+00 -0.00000000000E+00 -0.53439512010E+02  0.53439512214E+02  0.46700000000E-02 0.  1.
         23    2    1    2    0    0  0.00000000000E+00  0.00000000000E+00 -0.10697968888E+02  0.96181055590E+02  0.95584250356E+02 0.  0.
        -13    1    3    3    0    0 -0.70495203790E+01 -0.31670052944E+02 -0.40659224555E+02  0.52017994049E+02  0.10570000000E+00 0.  1.
         13    1    3    3    0    0  0.70495203790E+01  0.31670052944E+02  0.29961255666E+02  0.44163061541E+02  0.10570000000E+00 0. -1.
<mgrwt>
<rscale>  0 0.95584250E+02</rscale>
<asrwt>0</asrwt>
<pdfrwt beam="1">  1        1 0.65756221E-02 0.95584250E+02</pdfrwt>
<pdfrwt beam="2">  1       -1 0.82214634E-02 0.95584250E+02</pdfrwt>
<totfact> 0.80128976E+04</totfact>
</mgrwt>
</event>
<event>
 5    1  0.2734570E+000  0.9543572E+02  0.7818608E-02  0.1290198E+00
         -1   -1    0    0    0  501 -0.00000000000E+00  0.00000000000E+00  0.10583427665E+03  0.10583427676E+03  0.46700000000E-02 0.  1.
          1   -1    0    0  501    0  0.00000000000E+00 -0.00000000000E+00 -0.21514714359E+02  0.21514714866E+02  0.46700000000E-02 0. -1.
         23    2    1    2    0    0  0.00000000000E+00  0.00000000000E+00  0.84319562293E+02  0.12734899162E+03  0.95435722251E+02 0.  0.
        -13    1    3    3    0    0  0.26376254566E+02  0.32220441129E+02  0.73257764761E+02  0.84264909077E+02  0.10570000000E+00 0.  1.
         13    1    3    3    0    0 -0.26376254566E+02 -0.32220441129E+02  0.11061797532E+02  0.43084082544E+02  0.10570000000E+00 0. -1.
<mgrwt>
<rscale>  0 0.95435722E+02</rscale>
<asrwt>0</asrwt>
<pdfrwt beam="2">  1        1 0.33099561E-02 0.95435722E+02</pdfrwt>
<pdfrwt beam="1">  1       -1 0.16282197E-01 0.95435722E+02</pdfrwt>
<totfact> 0.71551313E+04</totfact>
</mgrwt>
</event>
<event>
 5    1  0.2734570E+000  0.9457049E+02  0.7818608E-02  0.1292146E+00
         -1   -1    0    0    0  501 -0.00000000000E+00  0.00000000000E+00  0.18031771533E+03  0.18031771539E+03  0.46700000000E-02 0.  1.
          1   -1    0    0  501    0  0.00000000000E+00 -0.00000000000E+00 -0.12399749583E+02  0.12399750462E+02  0.46700000000E-02 0. -1.
         23    2    1    2    0    0  0.00000000000E+00  0.00000000000E+00  0.16791796575E+03  0.19271746585E+03  0.94570494469E+02 0.  0.
        -13    1    3    3    0    0 -0.44750575626E+02  0.74417785935E+01  0.56779550298E+02  0.72676836696E+02  0.10570000000E+00 0. -1.
         13    1    3    3    0    0  0.44750575626E+02 -0.74417785935E+01  0.11113841545E+03  0.12004062916E+03  0.10570000000E+00 0.  1.
<mgrwt>
<rscale>  0 0.94570494E+02</rscale>
<asrwt>0</asrwt>
<pdfrwt beam="2">  1        1 0.19076538E-02 0.94570494E+02</pdfrwt>
<pdfrwt beam="1">  1       -1 0.27741187E-01 0.94570494E+02</pdfrwt>
<totfact> 0.64944943E+04</totfact>
</mgrwt>
</event>
<event>
 5    1  0.2734570E+000  0.9231292E+02  0.7818608E-02  0.1297345E+00
          1   -1    0    0  501    0  0.00000000000E+00  0.00000000000E+00  0.11298980004E+02  0.11298980969E+02  0.46700000000E-02 0. -1.
         -1   -1    0    0    0  501 -0.00000000000E+00 -0.00000000000E+00 -0.18854963766E+03  0.18854963772E+03  0.46700000000E-02 0.  1.
         23    2    1    2    0    0  0.00000000000E+00  0.00000000000E+00 -0.17725065766E+03  0.19984861869E+03  0.92312917577E+02 0.  0.
        -13    1    3    3    0    0  0.30523219849E+02 -0.25878093992E+02 -0.13842117475E+03  0.14408947044E+03  0.10570000000E+00 0.  1.
         13    1    3    3    0    0 -0.30523219849E+02  0.25878093992E+02 -0.38829482911E+02  0.55759148256E+02  0.10570000000E+00 0. -1.
<mgrwt>
<rscale>  0 0.92312918E+02</rscale>
<asrwt>0</asrwt>
<pdfrwt beam="1">  1        1 0.17383048E-02 0.92312918E+02</pdfrwt>
<pdfrwt beam="2">  1       -1 0.29007634E-01 0.92312918E+02</pdfrwt>
<totfact> 0.68338487E+04</totfact>
</mgrwt>
</event>
<event>
 5    1  0.2734570E+000  0.9094919E+02  0.7818608E-02  0.1300569E+00
         -1   -1    0    0    0  501 -0.00000000000E+00  0.00000000000E+00  0.69665739548E+01  0.69665755200E+01  0.46700000000E-02 0.  1.
          1   -1    0    0  501    0  0.00000000000E+00 -0.00000000000E+00 -0.29683725580E+03  0.29683725583E+03  0.46700000000E-02 0. -1.
         23    2    1    2    0    0  0.00000000000E+00  0.00000000000E+00 -0.28987068184E+03  0.30380383135E+03  0.90949193254E+02 0.  0.
        -13    1    3    3    0    0 -0.37515170296E+02 -0.18076095033E+02 -0.83906655184E+02  0.93672147251E+02  0.10570000000E+00 0.  1.
         13    1    3    3    0    0  0.37515170296E+02  0.18076095033E+02 -0.20596402666E+03  0.21013168410E+03  0.10570000000E+00 0. -1.
<mgrwt>
<rscale>  0 0.90949193E+02</rscale>
<asrwt>0</asrwt>
<pdfrwt beam="2">  1        1 0.45667260E-01 0.90949193E+02</pdfrwt>
<pdfrwt beam="1">  1       -1 0.10717810E-02 0.90949193E+02</pdfrwt>
<totfact> 0.12871762E+05</totfact>
</mgrwt>
</event>
<event>
 5    1  0.2734570E+000  0.8835371E+02  0.7818608E-02  0.1306888E+00
          1   -1    0    0  501    0  0.00000000000E+00  0.00000000000E+00  0.39971677508E+02  0.39971677781E+02  0.46700000000E-02 0. -1.
         -1   -1    0    0    0  501 -0.00000000000E+00 -0.00000000000E+00 -0.48824432272E+02  0.48824432495E+02  0.46700000000E-02 0.  1.
         23    2    1    2    0    0  0.00000000000E+00  0.00000000000E+00 -0.88527547633E+01  0.88796110276E+02  0.88353709222E+02 0.  0.
        -13    1    3    3    0    0 -0.38485497761E+02 -0.21408096572E+02 -0.79285315985E+01  0.44747211338E+02  0.10570000000E+00 0.  1.
         13    1    3    3    0    0  0.38485497761E+02  0.21408096572E+02 -0.92422316480E+00  0.44048898938E+02  0.10570000000E+00 0. -1.
<mgrwt>
<rscale>  0 0.88353709E+02</rscale>
<asrwt>0</asrwt>
<pdfrwt beam="1">  1        1 0.61494889E-02 0.88353709E+02</pdfrwt>
<pdfrwt beam="2">  1       -1 0.75114511E-02 0.88353709E+02</pdfrwt>
<totfact> 0.99046075E+04</totfact>
</mgrwt>
</event>
<event>
 5    1  0.2734570E+000  0.9192082E+02  0.7818608E-02  0.1298266E+00
         -1   -1    0    0    0  501 -0.00000000000E+00  0.00000000000E+00  0.59733657976E+02  0.59733658158E+02  0.46700000000E-02 0.  1.
          1   -1    0    0  501    0  0.00000000000E+00 -0.00000000000E+00 -0.35362966315E+02  0.35362966624E+02  0.46700000000E-02 0. -1.
         23    2    1    2    0    0  0.00000000000E+00  0.00000000000E+00  0.24370691661E+02  0.95096624782E+02  0.91920821542E+02 0.  0.
        -13    1    3    3    0    0  0.33525636029E+01  0.35088599564E+02  0.42698390347E+02  0.55367980032E+02  0.10570000000E+00 0.  1.
         13    1    3    3    0    0 -0.33525636029E+01 -0.35088599564E+02 -0.18327698686E+02  0.39728644750E+02  0.10570000000E+00 0. -1.
<mgrwt>
<rscale>  0 0.91920822E+02</rscale>
<asrwt>0</asrwt>
<pdfrwt beam="2">  1        1 0.54404565E-02 0.91920822E+02</pdfrwt>
<pdfrwt beam="1">  1       -1 0.91897935E-02 0.91920822E+02</pdfrwt>
<totfact> 0.86930587E+04</totfact>
</mgrwt>
</event>
<event>
 5    1  0.2734570E+000  0.9176771E+02  0.7818608E-02  0.1298627E+00
         -1   -1    0    0    0  501 -0.00000000000E+00  0.00000000000E+00  0.28408350990E+02  0.28408351374E+02  0.46700000000E-02 0.  1.
          1   -1    0    0  501    0  0.00000000000E+00 -0.00000000000E+00 -0.74109481630E+02  0.74109481777E+02  0.46700000000E-02 0. -1.
         23    2    1    2    0    0  0.00000000000E+00  0.00000000000E+00 -0.45701130640E+02  0.10251783315E+03  0.91767710945E+02 0.  0.
        -13    1    3    3    0    0  0.20806363795E+01  0.36568282372E+02 -0.53723986711E+02  0.65021890498E+02  0.10570000000E+00 0. -1.
         13    1    3    3    0    0 -0.20806363795E+01 -0.36568282372E+02  0.80228560707E+01  0.37495942652E+02  0.10570000000E+00 0.  1.
<mgrwt>
<rscale>  0 0.91767711E+02</rscale>
<asrwt>0</asrwt>
<pdfrwt beam="2">  1        1 0.11401459E-01 0.91767711E+02</pdfrwt>
<pdfrwt beam="1">  1       -1 0.43705156E-02 0.91767711E+02</pdfrwt>
<totfact> 0.97787005E+04</totfact>
</mgrwt>
</event>
<event>
 5    1  0.2734570E+000  0.9279505E+02  0.7818608E-02  0.1296221E+00
          1   -1    0    0  501    0  0.00000000000E+00  0.00000000000E+00  0.23006453407E+02  0.23006453881E+02  0.46700000000E-02 0. -1.
         -1   -1    0    0    0  501 -0.00000000000E+00 -0.00000000000E+00 -0.93570719304E+02  0.93570719420E+02  0.46700000000E-02 0.  1.
         23    2    1    2    0    0  0.00000000000E+00  0.00000000000E+00 -0.70564265897E+02  0.11657717330E+03  0.92795052203E+02 0.  0.
        -13    1    3    3    0    0  0.10881714628E+01  0.45956370962E+02 -0.43182477965E+02  0.63070672462E+02  0.10570000000E+00 0.  1.
         13    1    3    3    0    0 -0.10881714628E+01 -0.45956370962E+02 -0.27381787932E+02  0.53506500839E+02  0.10570000000E+00 0. -1.
<mgrwt>
<rscale>  0 0.92795052E+02</rscale>
<asrwt>0</asrwt>
<pdfrwt beam="1">  1        1 0.35394545E-02 0.92795052E+02</pdfrwt>
<pdfrwt beam="2">  1       -1 0.14395495E-01 0.92795052E+02</pdfrwt>
<totfact> 0.78720094E+04</totfact>
</mgrwt>
</event>
<event>
 5    1  0.2734570E+000  0.9121357E+02  0.7818608E-02  0.1299939E+00
         -1   -1    0    0    0  501 -0.00000000000E+00  0.00000000000E+00  0.81414775110E+01  0.81414788504E+01  0.46700000000E-02 0.  1.
          1   -1    0    0  501    0  0.00000000000E+00 -0.00000000000E+00 -0.25547926135E+03  0.25547926139E+03  0.46700000000E-02 0. -1.
         23    2    1    2    0    0  0.00000000000E+00  0.00000000000E+00 -0.24733778384E+03  0.26362074024E+03  0.91213570108E+02 0.  0.
        -13    1    3    3    0    0 -0.39444744200E+02 -0.54323430889E+01 -0.18794266193E+03  0.19211416799E+03  0.10570000000E+00 0. -1.
         13    1    3    3    0    0  0.39444744200E+02  0.54323430889E+01 -0.59395121910E+02  0.71506572255E+02  0.10570000000E+00 0.  1.
<mgrwt>
<rscale>  0 0.91213570E+02</rscale>
<asrwt>0</asrwt>
<pdfrwt beam="2">  1        1 0.39304496E-01 0.91213570E+02</pdfrwt>
<pdfrwt beam="1">  1       -1 0.12525353E-02 0.91213570E+02</pdfrwt>
<totfact> 0.12405919E+05</totfact>
</mgrwt>
</event>
<event>
 5    1  0.2734570E+000  0.9272930E+02  0.7818608E-02  0.1296374E+00
         -1   -1    0    0    0  501 -0.00000000000E+00  0.00000000000E+00  0.83823595950E+02  0.83823596080E+02  0.46700000000E-02 0.  1.
          1   -1    0    0  501    0  0.00000000000E+00 -0.00000000000E+00 -0.25645291393E+02  0.25645291818E+02  0.46700000000E-02 0. -1.
         23    2    1    2    0    0  0.00000000000E+00  0.00000000000E+00  0.58178304557E+02  0.10946888790E+03  0.92729295784E+02 0.  0.
        -13    1    3    3    0    0  0.23058944896E+02  0.32583969140E+02  0.56931421274E+02  0.69531488445E+02  0.10570000000E+00 0.  1.
         13    1    3    3    0    0 -0.23058944896E+02 -0.32583969140E+02  0.12468832826E+01  0.39937399453E+02  0.10570000000E+00 0. -1.
<mgrwt>
<rscale>  0 0.92729296E+02</rscale>
<asrwt>0</asrwt>
<pdfrwt beam="2">  1        1 0.39454295E-02 0.92729296E+02</pdfrwt>
<pdfrwt beam="1">  1       -1 0.12895938E-01 0.92729296E+02</pdfrwt>
<totfact> 0.80418138E+04</totfact>
</mgrwt>
</event>
<event>
 5    1  0.2734570E+000  0.8791131E+02  0.7818608E-02  0.1307990E+00
         -1   -1    0    0    0  501 -0.00000000000E+00  0.00000000000E+00  0.25443916501E+02  0.25443916929E+02  0.46700000000E-02 0.  1.
          1   -1    0    0  501    0  0.00000000000E+00 -0.00000000000E+00 -0.75935628038E+02  0.75935628182E+02  0.46700000000E-02 0. -1.
         23    2    1    2    0    0  0.00000000000E+00  0.00000000000E+00 -0.50491711537E+02  0.10137954511E+03  0.87911314590E+02 0.  0.
        -13    1    3    3    0    0 -0.18124708851E+02  0.33614445157E+02 -0.50343649502E+02  0.63189636902E+02  0.10570000000E+00 0. -1.
         13    1    3    3    0    0  0.18124708851E+02 -0.33614445157E+02 -0.14806203552E+00  0.38189908209E+02  0.10570000000E+00 0.  1.
<mgrwt>
<rscale>  0 0.87911315E+02</rscale>
<asrwt>0</asrwt>
<pdfrwt beam="2">  1        1 0.11682404E-01 0.87911315E+02</pdfrwt>
<pdfrwt beam="1">  1       -1 0.39144488E-02 0.87911315E+02</pdfrwt>
<totfact> 0.11042560E+05</totfact>
</mgrwt>
</event>
<event>
 5    1  0.2734570E+000  0.8964874E+02  0.7818608E-02  0.1303705E+00
         -1   -1    0    0    0  501 -0.00000000000E+00  0.00000000000E+00  0.61184796695E+01  0.61184814517E+01  0.46700000000E-02 0.  1.
          1   -1    0    0  501    0  0.00000000000E+00 -0.00000000000E+00 -0.32838613712E+03  0.32838613715E+03  0.46700000000E-02 0. -1.
         23    2    1    2    0    0  0.00000000000E+00  0.00000000000E+00 -0.32226765745E+03  0.33450461860E+03  0.89648741370E+02 0.  0.
        -13    1    3    3    0    0  0.27355921509E+02  0.35272134987E+02 -0.14586605606E+03  0.15254306746E+03  0.10570000000E+00 0. -1.
         13    1    3    3    0    0 -0.27355921509E+02 -0.35272134987E+02 -0.17640160139E+03  0.18196155114E+03  0.10570000000E+00 0.  1.
<mgrwt>
<rscale>  0 0.89648741E+02</rscale>
<asrwt>0</asrwt>
<pdfrwt beam="2">  1        1 0.50520931E-01 0.89648741E+02</pdfrwt>
<pdfrwt beam="1">  1       -1 0.94130496E-03 0.89648741E+02</pdfrwt>
<totfact> 0.13630255E+05</totfact>
</mgrwt>
</event>
<event>
 5    1  0.2734570E+000  0.9257567E+02  0.7818608E-02  0.1296732E+00
          1   -1    0    0  501    0  0.00000000000E+00  0.00000000000E+00  0.26714198395E+03  0.26714198399E+03  0.46700000000E-02 0. -1.
         -1   -1    0    0    0  501 -0.00000000000E+00 -0.00000000000E+00 -0.80203169180E+01  0.80203182776E+01  0.46700000000E-02 0.  1.
         23    2    1    2    0    0  0.00000000000E+00  0.00000000000E+00  0.25912166703E+03  0.27516230227E+03  0.92575667776E+02 0.  0.
        -13    1    3    3    0    0  0.22529480616E+02 -0.31525097545E+02  0.54299904531E+02  0.66707571359E+02  0.10570000000E+00 0.  1.
         13    1    3    3    0    0 -0.22529480616E+02  0.31525097545E+02  0.20482176250E+03  0.20845473091E+03  0.10570000000E+00 0. -1.
<mgrwt>
<rscale>  0 0.92575668E+02</rscale>
<asrwt>0</asrwt>
<pdfrwt beam="1">  1        1 0.41098767E-01 0.92575668E+02</pdfrwt>
<pdfrwt beam="2">  1       -1 0.12338950E-02 0.92575668E+02</pdfrwt>
<totfact> 0.12028609E+05</totfact>
</mgrwt>
</event>
<event>
 5    1  0.2734570E+000  0.9059245E+02  0.7818608E-02  0.1301423E+00
          1   -1    0    0  501    0  0.00000000000E+00  0.00000000000E+00  0.58303684101E+02  0.58303684288E+02  0.46700000000E-02 0. -1.
         -1   -1    0    0    0  501 -0.00000000000E+00 -0.00000000000E+00 -0.35190712223E+02  0.35190712533E+02  0.46700000000E-02 0.  1.
         23    2    1    2    0    0  0.00000000000E+00  0.00000000000E+00  0.23112971877E+02  0.93494396821E+02  0.90592454255E+02 0.  0.
        -13    1    3    3    0    0 -0.41328316079E+02 -0.69278440669E+01 -0.61906486606E+01  0.42359887119E+02  0.10570000000E+00 0.  1.
         13    1    3    3    0    0  0.41328316079E+02  0.69278440669E+01  0.29303620538E+02  0.51134509702E+02  0.10570000000E+00 0. -1.
<mgrwt>
<rscale>  0 0.90592454E+02</rscale>
<asrwt>0</asrwt>
<pdfrwt beam="1">  1        1 0.89697975E-02 0.90592454E+02</pdfrwt>
<pdfrwt beam="2">  1       -1 0.54139558E-02 0.90592454E+02</pdfrwt>
<totfact> 0.97681378E+04</totfact>
</mgrwt>
</event>
<event>
 5    1  0.2734570E+000  0.9053556E+02  0.7818608E-02  0.1301560E+00
          1   -1    0    0  501    0  0.00000000000E+00  0.00000000000E+00  0.30043199123E+02  0.30043199486E+02  0.46700000000E-02 0. -1.
         -1   -1    0    0    0  501 -0.00000000000E+00 -0.00000000000E+00 -0.68207505067E+02  0.68207505227E+02  0.46700000000E-02 0.  1.
         23    2    1    2    0    0  0.00000000000E+00  0.00000000000E+00 -0.38164305944E+02  0.98250704713E+02  0.90535555051E+02 0.  0.
        -13    1    3    3    0    0 -0.36787159466E+02  0.91421814432E+01 -0.45935204436E+02  0.59556097608E+02  0.10570000000E+00 0.  1.
         13    1    3    3    0    0  0.36787159466E+02 -0.91421814432E+01  0.77708984929E+01  0.38694607105E+02  0.10570000000E+00 0. -1.
<mgrwt>
<rscale>  0 0.90535555E+02</rscale>
<asrwt>0</asrwt>
<pdfrwt beam="1">  1        1 0.46220307E-02 0.90535555E+02</pdfrwt>
<pdfrwt beam="2">  1       -1 0.10493462E-01 0.90535555E+02</pdfrwt>
<totfact> 0.88477255E+04</totfact>
</mgrwt>
</event>
<event>
 5    1  0.2734570E+000  0.9485993E+02  0.7818608E-02  0.1291492E+00
          1   -1    0    0  501    0  0.00000000000E+00  0.00000000000E+00  0.10162916632E+03  0.10162916643E+03  0.46700000000E-02 0. -1.
         -1   -1    0    0    0  501 -0.00000000000E+00 -0.00000000000E+00 -0.22135392043E+02  0.22135392536E+02  0.46700000000E-02 0.  1.
         23    2    1    2    0    0  0.00000000000E+00  0.00000000000E+00  0.79493774276E+02  0.12376455896E+03  0.94859927822E+02 0.  0.
        -13    1    3    3    0    0  0.30416931806E+02  0.86125704977E+01  0.85879436809E+02  0.91513140860E+02  0.10570000000E+00 0. -1.
         13    1    3    3    0    0 -0.30416931806E+02 -0.86125704977E+01 -0.63856625332E+01  0.32251418101E+02  0.10570000000E+00 0.  1.
<mgrwt>
<rscale>  0 0.94859928E+02</rscale>
<asrwt>0</asrwt>
<pdfrwt beam="1">  1        1 0.15635256E-01 0.94859928E+02</pdfrwt>
<pdfrwt beam="2">  1       -1 0.34054450E-02 0.94859928E+02</pdfrwt>
<totfact> 0.93986055E+04</totfact>
</mgrwt>
</event>
<event>
 5    1  0.2734570E+000  0.8931213E+02  0.7818608E-02  0.1304526E+00
         -1   -1    0    0    0  501 -0.00000000000E+00  0.00000000000E+00  0.10077974925E+02  0.10077976007E+02  0.46700000000E-02 0.  1.
          1   -1    0    0  501    0  0.00000000000E+00 -0.00000000000E+00 -0.19787347437E+03  0.19787347442E+03  0.46700000000E-02 0. -1.
         23    2    1    2    0    0  0.00000000000E+00  0.00000000000E+00 -0.18779549944E+03  0.20795145043E+03  0.89312127534E+02 0.  0.
        -13    1    3    3    0    0  0.12348453923E+02 -0.42749489724E+02 -0.85139350921E+02  0.96066245027E+02  0.10570000000E+00 0.  1.
         13    1    3    3    0    0 -0.12348453923E+02  0.42749489724E+02 -0.10265614852E+03  0.11188520540E+03  0.10570000000E+00 0. -1.
<mgrwt>
<rscale>  0 0.89312128E+02</rscale>
<asrwt>0</asrwt>
<pdfrwt beam="2">  1        1 0.30442070E-01 0.89312128E+02</pdfrwt>
<pdfrwt beam="1">  1       -1 0.15504579E-02 0.89312128E+02</pdfrwt>
<totfact> 0.12488286E+05</totfact>
</mgrwt>
</event>
<event>
 5    1  0.2734570E+000  0.8003165E+02  0.7818608E-02  0.1328962E+00
         -1   -1    0    0    0  501 -0.00000000000E+00  0.00000000000E+00  0.23436323654E+03  0.23436323659E+03  0.46700000000E-02 0.  1.
          1   -1    0    0  501    0  0.00000000000E+00 -0.00000000000E+00 -0.68324119400E+01  0.68324135359E+01  0.46700000000E-02 0. -1.
         23    2    1    2    0    0  0.00000000000E+00  0.00000000000E+00  0.22753082460E+03  0.24119565013E+03  0.80031653081E+02 0.  0.
        -13    1    3    3    0    0  0.20352659570E+02 -0.32198322765E+02  0.76818658947E+02  0.85744272551E+02  0.10570000000E+00 0. -1.
         13    1    3    3    0    0 -0.20352659570E+02  0.32198322765E+02  0.15071216566E+03  0.15545137757E+03  0.10570000000E+00 0.  1.
<mgrwt>
<rscale>  0 0.80031653E+02</rscale>
<asrwt>0</asrwt>
<pdfrwt beam="2">  1        1 0.10511403E-02 0.80031653E+02</pdfrwt>
<pdfrwt beam="1">  1       -1 0.36055886E-01 0.80031653E+02</pdfrwt>
<totfact> 0.92828709E+04</totfact>
</mgrwt>
</event>
<event>
 5    1  0.2734570E+000  0.9106680E+02  0.7818608E-02  0.1300289E+00
         -1   -1    0    0    0  501 -0.00000000000E+00  0.00000000000E+00  0.66479589141E+01  0.66479605544E+01  0.46700000000E-02 0.  1.
          1   -1    0    0  501    0  0.00000000000E+00 -0.00000000000E+00 -0.31186868887E+03  0.31186868891E+03  0.46700000000E-02 0. -1.
         23    2    1    2    0    0  0.00000000000E+00  0.00000000000E+00 -0.30522072996E+03  0.31851664946E+03  0.91066799593E+02 0.  0.
        -13    1    3    3    0    0 -0.42099554910E+02 -0.58214565216E+01 -0.20976374011E+03  0.21402593235E+03  0.10570000000E+00 0.  1.
         13    1    3    3    0    0  0.42099554910E+02  0.58214565216E+01 -0.95456989844E+02  0.10449071711E+03  0.10570000000E+00 0. -1.
<mgrwt>
<rscale>  0 0.91066800E+02</rscale>
<asrwt>0</asrwt>
<pdfrwt beam="2">  1        1 0.47979787E-01 0.91066800E+02</pdfrwt>
<pdfrwt beam="1">  1       -1 0.10227633E-02 0.91066800E+02</pdfrwt>
<totfact> 0.12948333E+05</totfact>
</mgrwt>
</event>
<event>
 5    1  0.2734570E+000  0.9175516E+02  0.7818608E-02  0.1298656E+00
          1   -1    0    0  501    0  0.00000000000E+00  0.00000000000E+00  0.61512305612E+02  0.61512305789E+02  0.46700000000E-02 0. -1.
         -1   -1    0    0    0  501 -0.00000000000E+00 -0.00000000000E+00 -0.34216771894E+02  0.34216772212E+02  0.46700000000E-02 0.  1.
         23    2    1    2    0    0  0.00000000000E+00  0.00000000000E+00  0.27295533718E+02  0.95729078001E+02  0.91755164509E+02 0.  0.
        -13    1    3    3    0    0  0.29874681368E+02  0.21612889945E+02 -0.14831495480E+02  0.39744157172E+02  0.10570000000E+00 0. -1.
         13    1    3    3    0    0 -0.29874681368E+02 -0.21612889945E+02  0.42127029199E+02  0.55984920829E+02  0.10570000000E+00 0.  1.
<mgrwt>
<rscale>  0 0.91755165E+02</rscale>
<asrwt>0</asrwt>
<pdfrwt beam="1">  1        1 0.94634316E-02 0.91755165E+02</pdfrwt>
<pdfrwt beam="2">  1       -1 0.52641188E-02 0.91755165E+02</pdfrwt>
<totfact> 0.95052847E+04</totfact>
</mgrwt>
</event>
<event>
 5    1  0.2734570E+000  0.9334379E+02  0.7818608E-02  0.1294950E+00
         -1   -1    0    0    0  501 -0.00000000000E+00  0.00000000000E+00  0.13623592110E+02  0.13623592910E+02  0.46700000000E-02 0.  1.
          1   -1    0    0  501    0  0.00000000000E+00 -0.00000000000E+00 -0.15988924248E+03  0.15988924255E+03  0.46700000000E-02 0. -1.
         23    2    1    2    0    0  0.00000000000E+00  0.00000000000E+00 -0.14626565037E+03  0.17351283546E+03  0.93343792460E+02 0.  0.
        -13    1    3    3    0    0  0.28282785290E+02  0.22827395187E+02 -0.12755797217E+03  0.13263503818E+03  0.10570000000E+00 0. -1.
         13    1    3    3    0    0 -0.28282785290E+02 -0.22827395187E+02 -0.18707678202E+02  0.40877797286E+02  0.10570000000E+00 0.  1.
<mgrwt>
<rscale>  0 0.93343792E+02</rscale>
<asrwt>0</asrwt>
<pdfrwt beam="2">  1        1 0.24598344E-01 0.93343792E+02</pdfrwt>
<pdfrwt beam="1">  1       -1 0.20959374E-02 0.93343792E+02</pdfrwt>
<totfact> 0.10649354E+05</totfact>
</mgrwt>
</event>
<event>
 5    1  0.2734570E+000  0.9096453E+02  0.7818608E-02  0.1300533E+00
          1   -1    0    0  501    0  0.00000000000E+00  0.00000000000E+00  0.10901309366E+03  0.10901309376E+03  0.46700000000E-02 0. -1.
         -1   -1    0    0    0  501 -0.00000000000E+00 -0.00000000000E+00 -0.18976033947E+02  0.18976034522E+02  0.46700000000E-02 0.  1.
         23    2    1    2    0    0  0.00000000000E+00  0.00000000000E+00  0.90037059716E+02  0.12798912828E+03  0.90964525155E+02 0.  0.
        -13    1    3    3    0    0 -0.20212934948E+02 -0.31588832046E+02  0.88110554996E+01  0.38523537230E+02  0.10570000000E+00 0. -1.
         13    1    3    3    0    0  0.20212934948E+02  0.31588832046E+02  0.81226004216E+02  0.89465591054E+02  0.10570000000E+00 0.  1.
<mgrwt>
<rscale>  0 0.90964525E+02</rscale>
<asrwt>0</asrwt>
<pdfrwt beam="1">  1        1 0.16771245E-01 0.90964525E+02</pdfrwt>
<pdfrwt beam="2">  1       -1 0.29193900E-02 0.90964525E+02</pdfrwt>
<totfact> 0.10665152E+05</totfact>
</mgrwt>
</event>
<event>
 5    1  0.2734570E+000  0.9098165E+02  0.7818608E-02  0.1300492E+00
          1   -1    0    0  501    0  0.00000000000E+00  0.00000000000E+00  0.98561654877E+01  0.98561665941E+01  0.46700000000E-02 0. -1.
         -1   -1    0    0    0  501 -0.00000000000E+00 -0.00000000000E+00 -0.20996145633E+03  0.20996145639E+03  0.46700000000E-02 0.  1.
         23    2    1    2    0    0  0.00000000000E+00  0.00000000000E+00 -0.20010529085E+03  0.21981762298E+03  0.90981646215E+02 0.  0.
        -13    1    3    3    0    0 -0.13423247994E+02  0.37686583035E+02 -0.15237269385E+03  0.15753701512E+03  0.10570000000E+00 0.  1.
         13    1    3    3    0    0  0.13423247994E+02 -0.37686583035E+02 -0.47732596996E+02  0.62280607865E+02  0.10570000000E+00 0. -1.
<mgrwt>
<rscale>  0 0.90981646E+02</rscale>
<asrwt>0</asrwt>
<pdfrwt beam="1">  1        1 0.15163334E-02 0.90981646E+02</pdfrwt>
<pdfrwt beam="2">  1       -1 0.32301759E-01 0.90981646E+02</pdfrwt>
<totfact> 0.68832438E+04</totfact>
</mgrwt>
</event>
<event>
 5    1  0.2734570E+000  0.8948149E+02  0.7818608E-02  0.1304112E+00
          1   -1    0    0  501    0  0.00000000000E+00  0.00000000000E+00  0.11538472631E+03  0.11538472640E+03  0.46700000000E-02 0. -1.
         -1   -1    0    0    0  501 -0.00000000000E+00 -0.00000000000E+00 -0.17348346373E+02  0.17348347001E+02  0.46700000000E-02 0.  1.
         23    2    1    2    0    0  0.00000000000E+00  0.00000000000E+00  0.98036379935E+02  0.13273307340E+03  0.89481489619E+02 0.  0.
        -13    1    3    3    0    0 -0.23162971490E+02 -0.37794954230E+02  0.40026880025E+02  0.59725573338E+02  0.10570000000E+00 0.  1.
         13    1    3    3    0    0  0.23162971490E+02  0.37794954230E+02  0.58009499911E+02  0.73007500066E+02  0.10570000000E+00 0. -1.
<mgrwt>
<rscale>  0 0.89481490E+02</rscale>
<asrwt>0</asrwt>
<pdfrwt beam="1">  1        1 0.17751497E-01 0.89481490E+02</pdfrwt>
<pdfrwt beam="2">  1       -1 0.26689764E-02 0.89481490E+02</pdfrwt>
<totfact> 0.11259381E+05</totfact>
</mgrwt>
</event>
<event>
 5    1  0.2734570E+000  0.9098847E+02  0.7818608E-02  0.1300475E+00
          1   -1    0    0  501    0  0.00000000000E+00  0.00000000000E+00  0.17920822842E+02  0.17920823450E+02  0.46700000000E-02 0. -1.
         -1   -1    0    0    0  501 -0.00000000000E+00 -0.00000000000E+00 -0.11549275438E+03  0.11549275447E+03  0.46700000000E-02 0.  1.
         23    2    1    2    0    0  0.00000000000E+00  0.00000000000E+00 -0.97571931534E+02  0.13341357792E+03  0.90988466029E+02 0.  0.
        -13    1    3    3    0    0 -0.14436409605E+02  0.29213972555E+02 -0.95335055896E+02  0.10075043509E+03  0.10570000000E+00 0.  1.
         13    1    3    3    0    0  0.14436409605E+02 -0.29213972555E+02 -0.22368756375E+01  0.32663142835E+02  0.10570000000E+00 0. -1.
<mgrwt>
<rscale>  0 0.90988466E+02</rscale>
<asrwt>0</asrwt>
<pdfrwt beam="1">  1        1 0.27570498E-02 0.90988466E+02</pdfrwt>
<pdfrwt beam="2">  1       -1 0.17768116E-01 0.90988466E+02</pdfrwt>
<totfact> 0.79565582E+04</totfact>
</mgrwt>
</event>
<event>
 5    1  0.2734570E+000  0.9351235E+02  0.7818608E-02  0.1294562E+00
         -1   -1    0    0    0  501 -0.00000000000E+00  0.00000000000E+00  0.22450693832E+03  0.22450693837E+03  0.46700000000E-02 0.  1.
          1   -1    0    0  501    0  0.00000000000E+00 -0.00000000000E+00 -0.97375162324E+01  0.97375173522E+01  0.46700000000E-02 0. -1.
         23    2    1    2    0    0  0.00000000000E+00  0.00000000000E+00  0.21476942208E+03  0.23424445572E+03  0.93512354114E+02 0.  0.
        -13    1    3    3    0    0 -0.35309302755E+02  0.30649023593E+02  0.10703570084E+03  0.11680223429E+03  0.10570000000E+00 0.  1.
         13    1    3    3    0    0  0.35309302755E+02 -0.30649023593E+02  0.10773372124E+03  0.11744222142E+03  0.10570000000E+00 0. -1.
<mgrwt>
<rscale>  0 0.93512354E+02</rscale>
<asrwt>0</asrwt>
<pdfrwt beam="2">  1        1 0.14980795E-02 0.93512354E+02</pdfrwt>
<pdfrwt beam="1">  1       -1 0.34539529E-01 0.93512354E+02</pdfrwt>
<totfact> 0.62780331E+04</totfact>
</mgrwt>
</event>
<event>
 5    1  0.2734570E+000  0.9165071E+02  0.7818608E-02  0.1298903E+00
         -1   -1    0    0    0  501 -0.00000000000E+00  0.00000000000E+00  0.91629736612E+01  0.91629748512E+01  0.46700000000E-02 0.  1.
          1   -1    0    0  501    0  0.00000000000E+00 -0.00000000000E+00 -0.22917921433E+03  0.22917921437E+03  0.46700000000E-02 0. -1.
         23    2    1    2    0    0  0.00000000000E+00  0.00000000000E+00 -0.22001624067E+03  0.23834218923E+03  0.91650711990E+02 0.  0.
        -13    1    3    3    0    0 -0.32202544038E+02 -0.25812559059E+02 -0.58214734550E+02  0.71360062632E+02  0.10570000000E+00 0.  1.
         13    1    3    3    0    0  0.32202544038E+02  0.25812559059E+02 -0.16180150612E+03  0.16698212659E+03  0.10570000000E+00 0. -1.
<mgrwt>
<rscale>  0 0.91650712E+02</rscale>
<asrwt>0</asrwt>
<pdfrwt beam="2">  1        1 0.35258337E-01 0.91650712E+02</pdfrwt>
<pdfrwt beam="1">  1       -1 0.14096885E-02 0.91650712E+02</pdfrwt>
<totfact> 0.11991356E+05</totfact>
</mgrwt>
</event>
<event>
 5    1  0.2734570E+000  0.8968171E+02  0.7818608E-02  0.1303624E+00
          1   -1    0    0  501    0  0.00000000000E+00  0.00000000000E+00  0.16604680850E+03  0.16604680857E+03  0.46700000000E-02 0. -1.
         -1   -1    0    0    0  501 -0.00000000000E+00 -0.00000000000E+00 -0.12109249233E+02  0.12109250133E+02  0.46700000000E-02 0.  1.
         23    2    1    2    0    0  0.00000000000E+00  0.00000000000E+00  0.15393755927E+03  0.17815605870E+03  0.89681709941E+02 0.  0.
        -13    1    3    3    0    0 -0.29713999937E+01 -0.41409293180E+02  0.43306946879E+02  0.59992179491E+02  0.10570000000E+00 0.  1.
         13    1    3    3    0    0  0.29713999937E+01  0.41409293180E+02  0.11063061239E+03  0.11816387921E+03  0.10570000000E+00 0. -1.
<mgrwt>
<rscale>  0 0.89681710E+02</rscale>
<asrwt>0</asrwt>
<pdfrwt beam="1">  1        1 0.25545661E-01 0.89681710E+02</pdfrwt>
<pdfrwt beam="2">  1       -1 0.18629617E-02 0.89681710E+02</pdfrwt>
<totfact> 0.11946069E+05</totfact>
</mgrwt>
</event>
<event>
 5    1  0.2734570E+000  0.9410732E+02  0.7818608E-02  0.1293199E+00
         -1   -1    0    0    0  501 -0.00000000000E+00  0.00000000000E+00  0.23538923844E+03  0.23538923849E+03  0.46700000000E-02 0.  1.
          1   -1    0    0  501    0  0.00000000000E+00 -0.00000000000E+00 -0.94058973084E+01  0.94058984677E+01  0.46700000000E-02 0. -1.
         23    2    1    2    0    0  0.00000000000E+00  0.00000000000E+00  0.22598334113E+03  0.24479513696E+03  0.94107324940E+02 0.  0.
        -13    1    3    3    0    0 -0.13375422202E+02 -0.38795096598E+02  0.53102564573E+02  0.67110766468E+02  0.10570000000E+00 0.  1.
         13    1    3    3    0    0  0.13375422202E+02  0.38795096598E+02  0.17288077656E+03  0.17768437049E+03  0.10570000000E+00 0. -1.
<mgrwt>
<rscale>  0 0.94107325E+02</rscale>
<asrwt>0</asrwt>
<pdfrwt beam="2">  1        1 0.14470612E-02 0.94107325E+02</pdfrwt>
<pdfrwt beam="1">  1       -1 0.36213730E-01 0.94107325E+02</pdfrwt>
<totfact> 0.60824590E+04</totfact>
</mgrwt>
</event>
<event>
 5    1  0.2734570E+000  0.9091327E+02  0.7818608E-02  0.1300655E+00
          1   -1    0    0  501    0  0.00000000000E+00  0.00000000000E+00  0.49255850159E+02  0.49255850380E+02  0.46700000000E-02 0. -1.
         -1   -1    0    0    0  501 -0.00000000000E+00 -0.00000000000E+00 -0.41950458589E+02  0.41950458849E+02  0.46700000000E-02 0.  1.
         23    2    1    2    0    0  0.00000000000E+00  0.00000000000E+00  0.73053915700E+01  0.91206309229E+02  0.90913266893E+02 0.  0.
        -13    1    3    3    0    0 -0.14581680157E+02 -0.12952921781E+02 -0.37539252601E+02  0.42303785141E+02  0.10570000000E+00 0.  1.
         13    1    3    3    0    0  0.14581680157E+02  0.12952921781E+02  0.44844644171E+02  0.48902524088E+02  0.10570000000E+00 0. -1.
<mgrwt>
<rscale>  0 0.90913267E+02</rscale>
<asrwt>0</asrwt>
<pdfrwt beam="1">  1        1 0.75778231E-02 0.90913267E+02</pdfrwt>
<pdfrwt beam="2">  1       -1 0.64539168E-02 0.90913267E+02</pdfrwt>
<totfact> 0.94313641E+04</totfact>
</mgrwt>
</event>
<event>
 5    1  0.2734570E+000  0.9106713E+02  0.7818608E-02  0.1300288E+00
         -1   -1    0    0    0  501 -0.00000000000E+00  0.00000000000E+00  0.14105327842E+03  0.14105327850E+03  0.46700000000E-02 0.  1.
          1   -1    0    0  501    0  0.00000000000E+00 -0.00000000000E+00 -0.14698740281E+02  0.14698741023E+02  0.46700000000E-02 0. -1.
         23    2    1    2    0    0  0.00000000000E+00  0.00000000000E+00  0.12635453814E+03  0.15575201952E+03  0.91067130605E+02 0.  0.
        -13    1    3    3    0    0  0.17738357808E+02 -0.21165409183E+02  0.12590012662E+01  0.27644531833E+02  0.10570000000E+00 0. -1.
         13    1    3    3    0    0 -0.17738357808E+02  0.21165409183E+02  0.12509553688E+03  0.12810748769E+03  0.10570000000E+00 0.  1.
<mgrwt>
<rscale>  0 0.91067131E+02</rscale>
<asrwt>0</asrwt>
<pdfrwt beam="2">  1        1 0.22613447E-02 0.91067131E+02</pdfrwt>
<pdfrwt beam="1">  1       -1 0.21700504E-01 0.91067131E+02</pdfrwt>
<totfact> 0.76089601E+04</totfact>
</mgrwt>
</event>
<event>
 5    1  0.2734570E+000  0.8926261E+02  0.7818608E-02  0.1304647E+00
          1   -1    0    0  501    0  0.00000000000E+00  0.00000000000E+00  0.77874586710E+02  0.77874586850E+02  0.46700000000E-02 0. -1.
         -1   -1    0    0    0  501 -0.00000000000E+00 -0.00000000000E+00 -0.25578990537E+02  0.25578990963E+02  0.46700000000E-02 0.  1.
         23    2    1    2    0    0  0.00000000000E+00  0.00000000000E+00  0.52295596173E+02  0.10345357781E+03  0.89262609100E+02 0.  0.
        -13    1    3    3    0    0 -0.14785501928E+02  0.35661365392E+02  0.19083438055E+00  0.38605590776E+02  0.10570000000E+00 0.  1.
         13    1    3    3    0    0  0.14785501928E+02 -0.35661365392E+02  0.52104761792E+02  0.64847987037E+02  0.10570000000E+00 0. -1.
<mgrwt>
<rscale>  0 0.89262609E+02</rscale>
<asrwt>0</asrwt>
<pdfrwt beam="1">  1        1 0.11980706E-01 0.89262609E+02</pdfrwt>
<pdfrwt beam="2">  1       -1 0.39352294E-02 0.89262609E+02</pdfrwt>
<totfact> 0.10632535E+05</totfact>
</mgrwt>
</event>
<event>
 5    1  0.2734570E+000  0.9116136E+02  0.7818608E-02  0.1300063E+00
          1   -1    0    0  501    0  0.00000000000E+00  0.00000000000E+00  0.44250495196E+02  0.44250495442E+02  0.46700000000E-02 0. -1.
         -1   -1    0    0    0  501 -0.00000000000E+00 -0.00000000000E+00 -0.46950855048E+02  0.46950855280E+02  0.46700000000E-02 0.  1.
         23    2    1    2    0    0  0.00000000000E+00  0.00000000000E+00 -0.27003598520E+01  0.91201350722E+02  0.91161364789E+02 0.  0.
        -13    1    3    3    0    0  0.20732135403E+02  0.36879202107E+02 -0.18319059742E+02  0.46103103027E+02  0.10570000000E+00 0.  1.
         13    1    3    3    0    0 -0.20732135403E+02 -0.36879202107E+02  0.15618699890E+02  0.45098247695E+02  0.10570000000E+00 0. -1.
<mgrwt>
<rscale>  0 0.91161365E+02</rscale>
<asrwt>0</asrwt>
<pdfrwt beam="1">  1        1 0.68077685E-02 0.91161365E+02</pdfrwt>
<pdfrwt beam="2">  1       -1 0.72232085E-02 0.91161365E+02</pdfrwt>
<totfact> 0.92102719E+04</totfact>
</mgrwt>
</event>
<event>
 5    1  0.2734570E+000  0.9159227E+02  0.7818608E-02  0.1299041E+00
         -1   -1    0    0    0  501 -0.00000000000E+00  0.00000000000E+00  0.34755692862E+03  0.34755692865E+03  0.46700000000E-02 0.  1.
          1   -1    0    0  501    0  0.00000000000E+00 -0.00000000000E+00 -0.60343660967E+01  0.60343679037E+01  0.46700000000E-02 0. -1.
         23    2    1    2    0    0  0.00000000000E+00  0.00000000000E+00  0.34152256253E+03  0.35359129656E+03  0.91592271983E+02 0.  0.
        -13    1    3    3    0    0  0.41602971053E+02  0.18453819436E+02  0.15110525107E+03  0.15781051526E+03  0.10570000000E+00 0. -1.
         13    1    3    3    0    0 -0.41602971053E+02 -0.18453819436E+02  0.19041731145E+03  0.19578078130E+03  0.10570000000E+00 0.  1.
<mgrwt>
<rscale>  0 0.91592272E+02</rscale>
<asrwt>0</asrwt>
<pdfrwt beam="2">  1        1 0.92836399E-03 0.91592272E+02</pdfrwt>
<pdfrwt beam="1">  1       -1 0.53470306E-01 0.91592272E+02</pdfrwt>
<totfact> 0.56290637E+04</totfact>
</mgrwt>
</event>
<event>
 5    1  0.2734570E+000  0.9522583E+02  0.7818608E-02  0.1290668E+00
         -1   -1    0    0    0  501 -0.00000000000E+00  0.00000000000E+00  0.19630351520E+03  0.19630351526E+03  0.46700000000E-02 0.  1.
          1   -1    0    0  501    0  0.00000000000E+00 -0.00000000000E+00 -0.11548389507E+02  0.11548390451E+02  0.46700000000E-02 0. -1.
         23    2    1    2    0    0  0.00000000000E+00  0.00000000000E+00  0.18475512570E+03  0.20785190571E+03  0.95225827568E+02 0.  0.
        -13    1    3    3    0    0 -0.15999918404E+01  0.29487432342E+02  0.17389909051E+03  0.17638870002E+03  0.10570000000E+00 0.  1.
         13    1    3    3    0    0  0.15999918404E+01 -0.29487432342E+02  0.10856035184E+02  0.31463205692E+02  0.10570000000E+00 0. -1.
<mgrwt>
<rscale>  0 0.95225828E+02</rscale>
<asrwt>0</asrwt>
<pdfrwt beam="2">  1        1 0.17766753E-02 0.95225828E+02</pdfrwt>
<pdfrwt beam="1">  1       -1 0.30200542E-01 0.95225828E+02</pdfrwt>
<totfact> 0.62310981E+04</totfact>
</mgrwt>
</event>
<event>
 5    1  0.2734570E+000  0.8040645E+02  0.7818608E-02  0.1327902E+00
          1   -1    0    0  501    0  0.00000000000E+00  0.00000000000E+00  0.21140816826E+02  0.21140817342E+02  0.46700000000E-02 0. -1.
         -1   -1    0    0    0  501 -0.00000000000E+00 -0.00000000000E+00 -0.76453964396E+02  0.76453964538E+02  0.46700000000E-02 0.  1.
         23    2    1    2    0    0  0.00000000000E+00  0.00000000000E+00 -0.55313147570E+02  0.97594781880E+02  0.80406449718E+02 0.  0.
        -13    1    3    3    0    0  0.85656632383E+01 -0.36049952793E+02 -0.46589738666E+02  0.59528015292E+02  0.10570000000E+00 0.  1.
         13    1    3    3    0    0 -0.85656632383E+01  0.36049952793E+02 -0.87234089033E+01  0.38066766588E+02  0.10570000000E+00 0. -1.
<mgrwt>
<rscale>  0 0.80406450E+02</rscale>
<asrwt>0</asrwt>
<pdfrwt beam="1">  1        1 0.32524334E-02 0.80406450E+02</pdfrwt>
<pdfrwt beam="2">  1       -1 0.11762148E-01 0.80406450E+02</pdfrwt>
<totfact> 0.11754326E+05</totfact>
</mgrwt>
</event>
<event>
 5    1  0.2734570E+000  0.1138471E+03  0.7818608E-02  0.1253607E+00
          1   -1    0    0  501    0  0.00000000000E+00  0.00000000000E+00  0.17477398828E+03  0.17477398835E+03  0.46700000000E-02 0. -1.
         -1   -1    0    0    0  501 -0.00000000000E+00 -0.00000000000E+00 -0.18539904269E+02  0.18539904857E+02  0.46700000000E-02 0.  1.
         23    2    1    2    0    0  0.00000000000E+00  0.00000000000E+00  0.15623408402E+03  0.19331389320E+03  0.11384714444E+03 0.  0.
        -13    1    3    3    0    0 -0.31611017354E+02 -0.24531491975E+01 -0.21579778965E+01  0.31779590938E+02  0.10570000000E+00 0.  1.
         13    1    3    3    0    0  0.31611017354E+02  0.24531491975E+01  0.15839206191E+03  0.16153430227E+03  0.10570000000E+00 0. -1.
<mgrwt>
<rscale>  0 0.11384714E+03</rscale>
<asrwt>0</asrwt>
<pdfrwt beam="1">  1        1 0.26888306E-01 0.11384714E+03</pdfrwt>
<pdfrwt beam="2">  1       -1 0.28522930E-02 0.11384714E+03</pdfrwt>
<totfact> 0.62998931E+04</totfact>
</mgrwt>
</event>
<event>
 5    1  0.2734570E+000  0.9252110E+02  0.7818608E-02  0.1296859E+00
          1   -1    0    0  501    0  0.00000000000E+00  0.00000000000E+00  0.28336946887E+03  0.28336946890E+03  0.46700000000E-02 0. -1.
         -1   -1    0    0    0  501 -0.00000000000E+00 -0.00000000000E+00 -0.75521137301E+01  0.75521151740E+01  0.46700000000E-02 0.  1.
         23    2    1    2    0    0  0.00000000000E+00  0.00000000000E+00  0.27581735514E+03  0.29092158408E+03  0.92521104017E+02 0.  0.
        -13    1    3    3    0    0 -0.11263540281E+02 -0.41574603770E+02  0.19096515230E+03  0.19576265114E+03  0.10570000000E+00 0. -1.
         13    1    3    3    0    0  0.11263540281E+02  0.41574603770E+02  0.84852202838E+02  0.95158932934E+02  0.10570000000E+00 0.  1.
<mgrwt>
<rscale>  0 0.92521104E+02</rscale>
<asrwt>0</asrwt>
<pdfrwt beam="1">  1        1 0.43595304E-01 0.92521104E+02</pdfrwt>
<pdfrwt beam="2">  1       -1 0.11618637E-02 0.92521104E+02</pdfrwt>
<totfact> 0.12186893E+05</totfact>
</mgrwt>
</event>
<event>
 5    1  0.2734570E+000  0.7943230E+02  0.7818608E-02  0.1330670E+00
         -1   -1    0    0    0  501 -0.00000000000E+00  0.00000000000E+00  0.29999230431E+02  0.29999230794E+02  0.46700000000E-02 0.  1.
          1   -1    0    0  501    0  0.00000000000E+00 -0.00000000000E+00 -0.52580431819E+02  0.52580432026E+02  0.46700000000E-02 0. -1.
         23    2    1    2    0    0  0.00000000000E+00  0.00000000000E+00 -0.22581201388E+02  0.82579662821E+02  0.79432298566E+02 0.  0.
        -13    1    3    3    0    0  0.38519879763E+02 -0.91021120701E+01 -0.14696340438E+02  0.42221122389E+02  0.10570000000E+00 0. -1.
         13    1    3    3    0    0 -0.38519879763E+02  0.91021120701E+01 -0.78848609507E+01  0.40358540431E+02  0.10570000000E+00 0.  1.
<mgrwt>
<rscale>  0 0.79432299E+02</rscale>
<asrwt>0</asrwt>
<pdfrwt beam="2">  1        1 0.80892973E-02 0.79432299E+02</pdfrwt>
<pdfrwt beam="1">  1       -1 0.46152663E-02 0.79432299E+02</pdfrwt>
<totfact> 0.13819113E+05</totfact>
</mgrwt>
</event>
<event>
 5    1  0.2734570E+000  0.1048620E+03  0.7818608E-02  0.1270392E+00
          1   -1    0    0  501    0  0.00000000000E+00  0.00000000000E+00  0.15584538349E+03  0.15584538356E+03  0.46700000000E-02 0. -1.
         -1   -1    0    0    0  501 -0.00000000000E+00 -0.00000000000E+00 -0.17639328655E+02  0.17639329273E+02  0.46700000000E-02 0.  1.
         23    2    1    2    0    0  0.00000000000E+00  0.00000000000E+00  0.13820605484E+03  0.17348471283E+03  0.10486196638E+03 0.  0.
        -13    1    3    3    0    0 -0.42136268776E+02  0.30100885506E+02  0.55513845034E+02  0.75916576698E+02  0.10570000000E+00 0.  1.
         13    1    3    3    0    0  0.42136268776E+02 -0.30100885506E+02  0.82692209802E+02  0.97568136136E+02  0.10570000000E+00 0. -1.
<mgrwt>
<rscale>  0 0.10486197E+03</rscale>
<asrwt>0</asrwt>
<pdfrwt beam="1">  1        1 0.23976212E-01 0.10486197E+03</pdfrwt>
<pdfrwt beam="2">  1       -1 0.27137430E-02 0.10486197E+03</pdfrwt>
<totfact> 0.77208127E+04</totfact>
</mgrwt>
</event>
<event>
 5    1  0.2734570E+000  0.9862706E+02  0.7818608E-02  0.1283210E+00
         -1   -1    0    0    0  501 -0.00000000000E+00  0.00000000000E+00  0.74373062246E+02  0.74373062392E+02  0.46700000000E-02 0.  1.
          1   -1    0    0  501    0  0.00000000000E+00 -0.00000000000E+00 -0.32697645396E+02  0.32697645730E+02  0.46700000000E-02 0. -1.
         23    2    1    2    0    0  0.00000000000E+00  0.00000000000E+00  0.41675416850E+02  0.10707070812E+03  0.98627055964E+02 0.  0.
        -13    1    3    3    0    0  0.49010784499E+02  0.53111836501E+01  0.22188063282E+02  0.54060956278E+02  0.10570000000E+00 0. -1.
         13    1    3    3    0    0 -0.49010784499E+02 -0.53111836501E+01  0.19487353567E+02  0.53009751844E+02  0.10570000000E+00 0.  1.
<mgrwt>
<rscale>  0 0.98627056E+02</rscale>
<asrwt>0</asrwt>
<pdfrwt beam="2">  1        1 0.50304071E-02 0.98627056E+02</pdfrwt>
<pdfrwt beam="1">  1       -1 0.11442009E-01 0.98627056E+02</pdfrwt>
<totfact> 0.70092486E+04</totfact>
</mgrwt>
</event>
<event>
 5    1  0.2734570E+000  0.8198665E+02  0.7818608E-02  0.1323506E+00
          1   -1    0    0  501    0  0.00000000000E+00  0.00000000000E+00  0.33245581222E+03  0.33245581225E+03  0.46700000000E-02 0. -1.
         -1   -1    0    0    0  501 -0.00000000000E+00 -0.00000000000E+00 -0.50546635424E+01  0.50546656997E+01  0.46700000000E-02 0.  1.
         23    2    1    2    0    0  0.00000000000E+00  0.00000000000E+00  0.32740114868E+03  0.33751047795E+03  0.81986648744E+02 0.  0.
        -13    1    3    3    0    0  0.62906153266E+01  0.40332541686E+02  0.14821205286E+03  0.15373063958E+03  0.10570000000E+00 0. -1.
         13    1    3    3    0    0 -0.62906153266E+01 -0.40332541686E+02  0.17918909582E+03  0.18377983837E+03  0.10570000000E+00 0.  1.
<mgrwt>
<rscale>  0 0.81986649E+02</rscale>
<asrwt>0</asrwt>
<pdfrwt beam="1">  1        1 0.51147049E-01 0.81986649E+02</pdfrwt>
<pdfrwt beam="2">  1       -1 0.77764070E-03 0.81986649E+02</pdfrwt>
<totfact> 0.17299989E+05</totfact>
</mgrwt>
</event>
<event>
 5    1  0.2734570E+000  0.8949985E+02  0.7818608E-02  0.1304067E+00
          1   -1    0    0  501    0  0.00000000000E+00  0.00000000000E+00  0.10736815430E+03  0.10736815440E+03  0.46700000000E-02 0. -1.
         -1   -1    0    0    0  501 -0.00000000000E+00 -0.00000000000E+00 -0.18651301502E+02  0.18651302086E+02  0.46700000000E-02 0.  1.
         23    2    1    2    0    0  0.00000000000E+00  0.00000000000E+00  0.88716852796E+02  0.12601945649E+03  0.89499851636E+02 0.  0.
        -13    1    3    3    0    0 -0.97362214992E+01 -0.27918431490E+02 -0.29381672849E+01  0.29713243267E+02  0.10570000000E+00 0.  1.
         13    1    3    3    0    0  0.97362214992E+01  0.27918431490E+02  0.91655020081E+02  0.96306213219E+02  0.10570000000E+00 0. -1.
<mgrwt>
<rscale>  0 0.89499852E+02</rscale>
<asrwt>0</asrwt>
<pdfrwt beam="1">  1        1 0.16518178E-01 0.89499852E+02</pdfrwt>
<pdfrwt beam="2">  1       -1 0.28694310E-02 0.89499852E+02</pdfrwt>
<totfact> 0.11116899E+05</totfact>
</mgrwt>
</event>
<event>
 5    1  0.2734570E+000  0.6283860E+02  0.7818608E-02  0.1386291E+00
          1   -1    0    0  501    0  0.00000000000E+00  0.00000000000E+00  0.21750029833E+03  0.21750029838E+03  0.46700000000E-02 0.  1.
         -1   -1    0    0    0  501 -0.00000000000E+00 -0.00000000000E+00 -0.45387166922E+01  0.45387190948E+01  0.46700000000E-02 0. -1.
         23    2    1    2    0    0  0.00000000000E+00  0.00000000000E+00  0.21296158164E+03  0.22203901747E+03  0.62838603004E+02 0.  0.
        -13    1    3    3    0    0  0.30975940182E+02  0.18870188131E+01  0.12382425373E+03  0.12765393333E+03  0.10570000000E+00 0. -1.
         13    1    3    3    0    0 -0.30975940182E+02 -0.18870188131E+01  0.89137327909E+02  0.94385084147E+02  0.10570000000E+00 0.  1.
<mgrwt>
<rscale>  0 0.62838603E+02</rscale>
<asrwt>0</asrwt>
<pdfrwt beam="1">  1        1 0.33461578E-01 0.62838603E+02</pdfrwt>
<pdfrwt beam="2">  1       -1 0.69826444E-03 0.62838603E+02</pdfrwt>
<totfact> 0.31951393E+05</totfact>
</mgrwt>
</event>
<event>
 5    1  0.2734570E+000  0.9115858E+02  0.7818608E-02  0.1300070E+00
          1   -1    0    0  501    0  0.00000000000E+00  0.00000000000E+00  0.20821677264E+02  0.20821677788E+02  0.46700000000E-02 0. -1.
         -1   -1    0    0    0  501 -0.00000000000E+00 -0.00000000000E+00 -0.99774468571E+02  0.99774468681E+02  0.46700000000E-02 0.  1.
         23    2    1    2    0    0  0.00000000000E+00  0.00000000000E+00 -0.78952791307E+02  0.12059614647E+03  0.91158583183E+02 0.  0.
        -13    1    3    3    0    0  0.22819077749E+02  0.14069430937E+02 -0.88242028584E+02  0.92224324217E+02  0.10570000000E+00 0.  1.
         13    1    3    3    0    0 -0.22819077749E+02 -0.14069430937E+02  0.92892372768E+01  0.28371822252E+02  0.10570000000E+00 0. -1.
<mgrwt>
<rscale>  0 0.91158583E+02</rscale>
<asrwt>0</asrwt>
<pdfrwt beam="1">  1        1 0.32033351E-02 0.91158583E+02</pdfrwt>
<pdfrwt beam="2">  1       -1 0.15349918E-01 0.91158583E+02</pdfrwt>
<totfact> 0.81446774E+04</totfact>
</mgrwt>
</event>
<event>
 5    1  0.2734570E+000  0.9483548E+02  0.7818608E-02  0.1291547E+00
          1   -1    0    0  501    0  0.00000000000E+00  0.00000000000E+00  0.40960793206E+03  0.40960793208E+03  0.46700000000E-02 0. -1.
         -1   -1    0    0    0  501 -0.00000000000E+00 -0.00000000000E+00 -0.54892527071E+01  0.54892546936E+01  0.46700000000E-02 0.  1.
         23    2    1    2    0    0  0.00000000000E+00  0.00000000000E+00  0.40411867935E+03  0.41509718678E+03  0.94835475804E+02 0.  0.
        -13    1    3    3    0    0 -0.45834849557E+02  0.74944162251E+01  0.16020642904E+03  0.16680261025E+03  0.10570000000E+00 0.  1.
         13    1    3    3    0    0  0.45834849557E+02 -0.74944162251E+01  0.24391225031E+03  0.24829457652E+03  0.10570000000E+00 0. -1.
<mgrwt>
<rscale>  0 0.94835476E+02</rscale>
<asrwt>0</asrwt>
<pdfrwt beam="1">  1        1 0.63016612E-01 0.94835476E+02</pdfrwt>
<pdfrwt beam="2">  1       -1 0.84450048E-03 0.94835476E+02</pdfrwt>
<totfact> 0.12195128E+05</totfact>
</mgrwt>
</event>
<event>
 5    1  0.2734570E+000  0.9277175E+02  0.7818608E-02  0.1296275E+00
          1   -1    0    0  501    0  0.00000000000E+00  0.00000000000E+00  0.14561851863E+03  0.14561851871E+03  0.46700000000E-02 0. -1.
         -1   -1    0    0    0  501 -0.00000000000E+00 -0.00000000000E+00 -0.14775931567E+02  0.14775932305E+02  0.46700000000E-02 0.  1.
         23    2    1    2    0    0  0.00000000000E+00  0.00000000000E+00  0.13084258707E+03  0.16039445101E+03  0.92771748531E+02 0.  0.
        -13    1    3    3    0    0 -0.16723312913E+02  0.30185044252E+02  0.11829617201E+02  0.36479543677E+02  0.10570000000E+00 0.  1.
         13    1    3    3    0    0  0.16723312913E+02 -0.30185044252E+02  0.11901296987E+03  0.12391490734E+03  0.10570000000E+00 0. -1.
<mgrwt>
<rscale>  0 0.92771749E+02</rscale>
<asrwt>0</asrwt>
<pdfrwt beam="1">  1        1 0.22402850E-01 0.92771749E+02</pdfrwt>
<pdfrwt beam="2">  1       -1 0.22732202E-02 0.92771749E+02</pdfrwt>
<totfact> 0.10641528E+05</totfact>
</mgrwt>
</event>
<event>
 5    1  0.2734570E+000  0.9268256E+02  0.7818608E-02  0.1296482E+00
         -1   -1    0    0    0  501 -0.00000000000E+00  0.00000000000E+00  0.65372271854E+02  0.65372272021E+02  0.46700000000E-02 0.  1.
          1   -1    0    0  501    0  0.00000000000E+00 -0.00000000000E+00 -0.32850538318E+02  0.32850538650E+02  0.46700000000E-02 0. -1.
         23    2    1    2    0    0  0.00000000000E+00  0.00000000000E+00  0.32521733536E+02  0.98222810670E+02  0.92682562458E+02 0.  0.
        -13    1    3    3    0    0  0.18098914629E+02 -0.10532889931E+02  0.60071968396E+02  0.63617332862E+02  0.10570000000E+00 0.  1.
         13    1    3    3    0    0 -0.18098914629E+02  0.10532889931E+02 -0.27550234859E+02  0.34605477808E+02  0.10570000000E+00 0. -1.
<mgrwt>
<rscale>  0 0.92682562E+02</rscale>
<asrwt>0</asrwt>
<pdfrwt beam="2">  1        1 0.50539291E-02 0.92682562E+02</pdfrwt>
<pdfrwt beam="1">  1       -1 0.10057272E-01 0.92682562E+02</pdfrwt>
<totfact> 0.83919092E+04</totfact>
</mgrwt>
</event>
<event>
 5    1  0.2734570E+000  0.9228463E+02  0.7818608E-02  0.1297412E+00
         -1   -1    0    0    0  501 -0.00000000000E+00  0.00000000000E+00  0.26449059727E+03  0.26449059731E+03  0.46700000000E-02 0.  1.
          1   -1    0    0  501    0  0.00000000000E+00 -0.00000000000E+00 -0.80498635766E+01  0.80498649312E+01  0.46700000000E-02 0. -1.
         23    2    1    2    0    0  0.00000000000E+00  0.00000000000E+00  0.25644073369E+03  0.27254046224E+03  0.92284633944E+02 0.  0.
        -13    1    3    3    0    0 -0.33396927046E+02 -0.13791544136E+02  0.43469498074E+02  0.56525833572E+02  0.10570000000E+00 0. -1.
         13    1    3    3    0    0  0.33396927046E+02  0.13791544136E+02  0.21297123562E+03  0.21601462867E+03  0.10570000000E+00 0.  1.
<mgrwt>
<rscale>  0 0.92284634E+02</rscale>
<asrwt>0</asrwt>
<pdfrwt beam="2">  1        1 0.12384408E-02 0.92284634E+02</pdfrwt>
<pdfrwt beam="1">  1       -1 0.40690856E-01 0.92284634E+02</pdfrwt>
<totfact> 0.61535892E+04</totfact>
</mgrwt>
</event>
<event>
 5    1  0.2734570E+000  0.9076876E+02  0.7818608E-02  0.1301001E+00
         -1   -1    0    0    0  501 -0.00000000000E+00  0.00000000000E+00  0.94222694742E+02  0.94222694858E+02  0.46700000000E-02 0.  1.
          1   -1    0    0  501    0  0.00000000000E+00 -0.00000000000E+00 -0.21860360148E+02  0.21860360647E+02  0.46700000000E-02 0. -1.
         23    2    1    2    0    0  0.00000000000E+00  0.00000000000E+00  0.72362334594E+02  0.11608305550E+03  0.90768762839E+02 0.  0.
        -13    1    3    3    0    0  0.15269495708E+02 -0.32804858210E+02  0.11477036817E+01  0.36202826099E+02  0.10570000000E+00 0. -1.
         13    1    3    3    0    0 -0.15269495708E+02  0.32804858210E+02  0.71214630912E+02  0.79880229405E+02  0.10570000000E+00 0.  1.
<mgrwt>
<rscale>  0 0.90768763E+02</rscale>
<asrwt>0</asrwt>
<pdfrwt beam="2">  1        1 0.33631324E-02 0.90768763E+02</pdfrwt>
<pdfrwt beam="1">  1       -1 0.14495799E-01 0.90768763E+02</pdfrwt>
<totfact> 0.83217621E+04</totfact>
</mgrwt>
</event>
<event>
 5    1  0.2734570E+000  0.9107361E+02  0.7818608E-02  0.1300272E+00
         -1   -1    0    0    0  501 -0.00000000000E+00  0.00000000000E+00  0.72008416999E+02  0.72008417151E+02  0.46700000000E-02 0.  1.
          1   -1    0    0  501    0  0.00000000000E+00 -0.00000000000E+00 -0.28796642625E+02  0.28796643003E+02  0.46700000000E-02 0. -1.
         23    2    1    2    0    0  0.00000000000E+00  0.00000000000E+00  0.43211774374E+02  0.10080506015E+03  0.91073611480E+02 0.  0.
        -13    1    3    3    0    0 -0.39259865656E+01  0.44426293324E+02  0.11432437124E+02  0.46041510619E+02  0.10570000000E+00 0. -1.
         13    1    3    3    0    0  0.39259865656E+01 -0.44426293324E+02  0.31779337251E+02  0.54763549534E+02  0.10570000000E+00 0.  1.
<mgrwt>
<rscale>  0 0.91073611E+02</rscale>
<asrwt>0</asrwt>
<pdfrwt beam="2">  1        1 0.44302528E-02 0.91073611E+02</pdfrwt>
<pdfrwt beam="1">  1       -1 0.11078218E-01 0.91073611E+02</pdfrwt>
<totfact> 0.86392206E+04</totfact>
</mgrwt>
</event>
<event>
 5    1  0.2734570E+000  0.9120431E+02  0.7818608E-02  0.1299961E+00
          1   -1    0    0  501    0  0.00000000000E+00  0.00000000000E+00  0.53328705384E+01  0.53328725832E+01  0.46700000000E-02 0. -1.
         -1   -1    0    0    0  501 -0.00000000000E+00 -0.00000000000E+00 -0.38995059430E+03  0.38995059433E+03  0.46700000000E-02 0.  1.
         23    2    1    2    0    0  0.00000000000E+00  0.00000000000E+00 -0.38461772376E+03  0.39528346691E+03  0.91204307912E+02 0.  0.
        -13    1    3    3    0    0  0.14014025025E+01 -0.44025715458E+02 -0.14115287342E+03  0.14786606236E+03  0.10570000000E+00 0.  1.
         13    1    3    3    0    0 -0.14014025025E+01  0.44025715458E+02 -0.24346485034E+03  0.24741740455E+03  0.10570000000E+00 0. -1.
<mgrwt>
<rscale>  0 0.91204308E+02</rscale>
<asrwt>0</asrwt>
<pdfrwt beam="1">  1        1 0.82044209E-03 0.91204308E+02</pdfrwt>
<pdfrwt beam="2">  1       -1 0.59992377E-01 0.91204308E+02</pdfrwt>
<totfact> 0.53928927E+04</totfact>
</mgrwt>
</event>
<event>
 5    1  0.2734570E+000  0.9083634E+02  0.7818608E-02  0.1300839E+00
          1   -1    0    0  501    0  0.00000000000E+00  0.00000000000E+00  0.83819167699E+02  0.83819167829E+02  0.46700000000E-02 0. -1.
         -1   -1    0    0    0  501 -0.00000000000E+00 -0.00000000000E+00 -0.24610243473E+02  0.24610243917E+02  0.46700000000E-02 0.  1.
         23    2    1    2    0    0  0.00000000000E+00  0.00000000000E+00  0.59208924226E+02  0.10842941175E+03  0.90836339774E+02 0.  0.
        -13    1    3    3    0    0  0.16768633869E+02  0.58569936043E+01  0.79501199528E+02  0.81461299737E+02  0.10570000000E+00 0. -1.
         13    1    3    3    0    0 -0.16768633869E+02 -0.58569936043E+01 -0.20292275302E+02  0.26968112009E+02  0.10570000000E+00 0.  1.
<mgrwt>
<rscale>  0 0.90836340E+02</rscale>
<asrwt>0</asrwt>
<pdfrwt beam="1">  1        1 0.12895256E-01 0.90836340E+02</pdfrwt>
<pdfrwt beam="2">  1       -1 0.37861914E-02 0.90836340E+02</pdfrwt>
<totfact> 0.10253771E+05</totfact>
</mgrwt>
</event>
<event>
 5    1  0.2734570E+000  0.9192137E+02  0.7818608E-02  0.1298264E+00
         -1   -1    0    0    0  501 -0.00000000000E+00  0.00000000000E+00  0.32530013128E+02  0.32530013463E+02  0.46700000000E-02 0.  1.
          1   -1    0    0  501    0  0.00000000000E+00 -0.00000000000E+00 -0.64936472790E+02  0.64936472958E+02  0.46700000000E-02 0. -1.
         23    2    1    2    0    0  0.00000000000E+00  0.00000000000E+00 -0.32406459662E+02  0.97466486421E+02  0.91921365022E+02 0.  0.
        -13    1    3    3    0    0 -0.16656575280E+02 -0.42652018377E+02 -0.11996934933E+02  0.47334699660E+02  0.10570000000E+00 0.  1.
         13    1    3    3    0    0  0.16656575280E+02  0.42652018377E+02 -0.20409524729E+02  0.50131786761E+02  0.10570000000E+00 0. -1.
<mgrwt>
<rscale>  0 0.91921365E+02</rscale>
<asrwt>0</asrwt>
<pdfrwt beam="2">  1        1 0.99902266E-02 0.91921365E+02</pdfrwt>
<pdfrwt beam="1">  1       -1 0.50046175E-02 0.91921365E+02</pdfrwt>
<totfact> 0.95363816E+04</totfact>
</mgrwt>
</event>
<event>
 5    1  0.2734570E+000  0.9267159E+02  0.7818608E-02  0.1296508E+00
         -1   -1    0    0    0  501 -0.00000000000E+00  0.00000000000E+00  0.46934349630E+01  0.46934372863E+01  0.46700000000E-02 0.  1.
          1   -1    0    0  501    0  0.00000000000E+00 -0.00000000000E+00 -0.45744864238E+03  0.45744864240E+03  0.46700000000E-02 0. -1.
         23    2    1    2    0    0  0.00000000000E+00  0.00000000000E+00 -0.45275520741E+03  0.46214207969E+03  0.92671592072E+02 0.  0.
        -13    1    3    3    0    0 -0.81052381158E+01  0.45560565139E+02 -0.23810985806E+03  0.24256499265E+03  0.10570000000E+00 0. -1.
         13    1    3    3    0    0  0.81052381158E+01 -0.45560565139E+02 -0.21464534935E+03  0.21957708704E+03  0.10570000000E+00 0.  1.
<mgrwt>
<rscale>  0 0.92671592E+02</rscale>
<asrwt>0</asrwt>
<pdfrwt beam="2">  1        1 0.70376680E-01 0.92671592E+02</pdfrwt>
<pdfrwt beam="1">  1       -1 0.72206746E-03 0.92671592E+02</pdfrwt>
<totfact> 0.13185795E+05</totfact>
</mgrwt>
</event>
<event>
 5    1  0.2734570E+000  0.9141966E+02  0.7818608E-02  0.1299450E+00
         -1   -1    0    0    0  501 -0.00000000000E+00  0.00000000000E+00  0.90365591589E+02  0.90365591710E+02  0.46700000000E-02 0.  1.
          1   -1    0    0  501    0  0.00000000000E+00 -0.00000000000E+00 -0.23121505251E+02  0.23121505723E+02  0.46700000000E-02 0. -1.
         23    2    1    2    0    0  0.00000000000E+00  0.00000000000E+00  0.67244086338E+02  0.11348709743E+03  0.91419659463E+02 0.  0.
        -13    1    3    3    0    0  0.29881798806E+02 -0.11744207073E+02 -0.67665087518E+01  0.32812270766E+02  0.10570000000E+00 0. -1.
         13    1    3    3    0    0 -0.29881798806E+02  0.11744207073E+02  0.74010595089E+02  0.80674826666E+02  0.10570000000E+00 0.  1.
<mgrwt>
<rscale>  0 0.91419659E+02</rscale>
<asrwt>0</asrwt>
<pdfrwt beam="2">  1        1 0.35571547E-02 0.91419659E+02</pdfrwt>
<pdfrwt beam="1">  1       -1 0.13902399E-01 0.91419659E+02</pdfrwt>
<totfact> 0.82317524E+04</totfact>
</mgrwt>
</event>
<event>
 5    1  0.2734570E+000  0.8888725E+02  0.7818608E-02  0.1305569E+00
          1   -1    0    0  501    0  0.00000000000E+00  0.00000000000E+00  0.74518753639E+02  0.74518753785E+02  0.46700000000E-02 0. -1.
         -1   -1    0    0    0  501 -0.00000000000E+00 -0.00000000000E+00 -0.26506560592E+02  0.26506561003E+02  0.46700000000E-02 0.  1.
         23    2    1    2    0    0  0.00000000000E+00  0.00000000000E+00  0.48012193047E+02  0.10102531479E+03  0.88887251881E+02 0.  0.
        -13    1    3    3    0    0  0.38848108860E+02 -0.19773663369E+02  0.14159863701E+02  0.45833243803E+02  0.10570000000E+00 0.  1.
         13    1    3    3    0    0 -0.38848108860E+02  0.19773663369E+02  0.33852329345E+02  0.55192070985E+02  0.10570000000E+00 0. -1.
<mgrwt>
<rscale>  0 0.88887252E+02</rscale>
<asrwt>0</asrwt>
<pdfrwt beam="1">  1        1 0.11464424E-01 0.88887252E+02</pdfrwt>
<pdfrwt beam="2">  1       -1 0.40779324E-02 0.88887252E+02</pdfrwt>
<totfact> 0.10683098E+05</totfact>
</mgrwt>
</event>
<event>
 5    1  0.2734570E+000  0.9176282E+02  0.7818608E-02  0.1298638E+00
         -1   -1    0    0    0  501 -0.00000000000E+00  0.00000000000E+00  0.12068325666E+02  0.12068326570E+02  0.46700000000E-02 0.  1.
          1   -1    0    0  501    0  0.00000000000E+00 -0.00000000000E+00 -0.17443212507E+03  0.17443212513E+03  0.46700000000E-02 0. -1.
         23    2    1    2    0    0  0.00000000000E+00  0.00000000000E+00 -0.16236379940E+03  0.18650045170E+03  0.91762819967E+02 0.  0.
        -13    1    3    3    0    0 -0.36474366042E+02  0.27504001521E+02 -0.72501038061E+02  0.85692830332E+02  0.10570000000E+00 0.  1.
         13    1    3    3    0    0  0.36474366042E+02 -0.27504001521E+02 -0.89862761340E+02  0.10080762137E+03  0.10570000000E+00 0. -1.
<mgrwt>
<rscale>  0 0.91762820E+02</rscale>
<asrwt>0</asrwt>
<pdfrwt beam="2">  1        1 0.26835710E-01 0.91762820E+02</pdfrwt>
<pdfrwt beam="1">  1       -1 0.18566657E-02 0.91762820E+02</pdfrwt>
<totfact> 0.11336239E+05</totfact>
</mgrwt>
</event>
<event>
 5    1  0.2734570E+000  0.9450437E+02  0.7818608E-02  0.1292296E+00
         -1   -1    0    0    0  501 -0.00000000000E+00  0.00000000000E+00  0.24078686682E+02  0.24078687135E+02  0.46700000000E-02 0.  1.
          1   -1    0    0  501    0  0.00000000000E+00 -0.00000000000E+00 -0.92728026460E+02  0.92728026578E+02  0.46700000000E-02 0. -1.
         23    2    1    2    0    0  0.00000000000E+00  0.00000000000E+00 -0.68649339778E+02  0.11680671371E+03  0.94504373002E+02 0.  0.
        -13    1    3    3    0    0  0.14095676768E+02  0.41935138607E+02 -0.13808903799E+02  0.46345883853E+02  0.10570000000E+00 0.  1.
         13    1    3    3    0    0 -0.14095676768E+02 -0.41935138607E+02 -0.54840435979E+02  0.70460829859E+02  0.10570000000E+00 0. -1.
<mgrwt>
<rscale>  0 0.94504373E+02</rscale>
<asrwt>0</asrwt>
<pdfrwt beam="2">  1        1 0.14265850E-01 0.94504373E+02</pdfrwt>
<pdfrwt beam="1">  1       -1 0.37044134E-02 0.94504373E+02</pdfrwt>
<totfact> 0.93506946E+04</totfact>
</mgrwt>
</event>
<event>
 5    1  0.2734570E+000  0.9143362E+02  0.7818608E-02  0.1299417E+00
          1   -1    0    0  501    0  0.00000000000E+00  0.00000000000E+00  0.24500695798E+02  0.24500696243E+02  0.46700000000E-02 0. -1.
         -1   -1    0    0    0  501 -0.00000000000E+00 -0.00000000000E+00 -0.85304785926E+02  0.85304786054E+02  0.46700000000E-02 0.  1.
         23    2    1    2    0    0  0.00000000000E+00  0.00000000000E+00 -0.60804090128E+02  0.10980548230E+03  0.91433618358E+02 0.  0.
        -13    1    3    3    0    0  0.29759057767E+01  0.38312007775E+02 -0.60144179334E+02  0.71372259563E+02  0.10570000000E+00 0.  1.
         13    1    3    3    0    0 -0.29759057767E+01 -0.38312007775E+02 -0.65991079429E+00  0.38433222733E+02  0.10570000000E+00 0. -1.
<mgrwt>
<rscale>  0 0.91433618E+02</rscale>
<asrwt>0</asrwt>
<pdfrwt beam="1">  1        1 0.37693379E-02 0.91433618E+02</pdfrwt>
<pdfrwt beam="2">  1       -1 0.13123813E-01 0.91433618E+02</pdfrwt>
<totfact> 0.83122941E+04</totfact>
</mgrwt>
</event>
<event>
 5    1  0.2734570E+000  0.9162216E+02  0.7818608E-02  0.1298970E+00
         -1   -1    0    0    0  501 -0.00000000000E+00  0.00000000000E+00  0.11683911884E+02  0.11683912817E+02  0.46700000000E-02 0.  1.
          1   -1    0    0  501    0  0.00000000000E+00 -0.00000000000E+00 -0.17961921250E+03  0.17961921256E+03  0.46700000000E-02 0. -1.
         23    2    1    2    0    0  0.00000000000E+00  0.00000000000E+00 -0.16793530061E+03  0.19130312538E+03  0.91622162091E+02 0.  0.
        -13    1    3    3    0    0 -0.59267205288E+00  0.35818702997E+02 -0.14358652493E+03  0.14798794565E+03  0.10570000000E+00 0. -1.
         13    1    3    3    0    0  0.59267205288E+00 -0.35818702997E+02 -0.24348775681E+02  0.43315179720E+02  0.10570000000E+00 0.  1.
<mgrwt>
<rscale>  0 0.91622162E+02</rscale>
<asrwt>0</asrwt>
<pdfrwt beam="2">  1        1 0.27633723E-01 0.91622162E+02</pdfrwt>
<pdfrwt beam="1">  1       -1 0.17975251E-02 0.91622162E+02</pdfrwt>
<totfact> 0.11446889E+05</totfact>
</mgrwt>
</event>
<event>
 5    1  0.2734570E+000  0.9104069E+02  0.7818608E-02  0.1300351E+00
          1   -1    0    0  501    0  0.00000000000E+00  0.00000000000E+00  0.20801038139E+03  0.20801038144E+03  0.46700000000E-02 0. -1.
         -1   -1    0    0    0  501 -0.00000000000E+00 -0.00000000000E+00 -0.99615292579E+01  0.99615303526E+01  0.46700000000E-02 0.  1.
         23    2    1    2    0    0  0.00000000000E+00  0.00000000000E+00  0.19804885213E+03  0.21797191179E+03  0.91040685963E+02 0.  0.
        -13    1    3    3    0    0 -0.41566361576E+02  0.56609370844E+01  0.56714879654E+02  0.70543584896E+02  0.10570000000E+00 0.  1.
         13    1    3    3    0    0  0.41566361576E+02 -0.56609370844E+01  0.14133397248E+03  0.14742832690E+03  0.10570000000E+00 0. -1.
<mgrwt>
<rscale>  0 0.91040686E+02</rscale>
<asrwt>0</asrwt>
<pdfrwt beam="1">  1        1 0.32001597E-01 0.91040686E+02</pdfrwt>
<pdfrwt beam="2">  1       -1 0.15325431E-02 0.91040686E+02</pdfrwt>
<totfact> 0.11979200E+05</totfact>
</mgrwt>
</event>
<event>
 5    1  0.2734570E+000  0.9293317E+02  0.7818608E-02  0.1295900E+00
         -1   -1    0    0    0  501 -0.00000000000E+00  0.00000000000E+00  0.49180223572E+02  0.49180223794E+02  0.46700000000E-02 0.  1.
          1   -1    0    0  501    0  0.00000000000E+00 -0.00000000000E+00 -0.43902673994E+02  0.43902674242E+02  0.46700000000E-02 0. -1.
         23    2    1    2    0    0  0.00000000000E+00  0.00000000000E+00  0.52775495779E+01  0.93082898036E+02  0.92933166186E+02 0.  0.
        -13    1    3    3    0    0  0.25614040372E+02 -0.10757717841E+02 -0.34668043207E+02  0.44426252932E+02  0.10570000000E+00 0. -1.
         13    1    3    3    0    0 -0.25614040372E+02  0.10757717841E+02  0.39945592785E+02  0.48656645104E+02  0.10570000000E+00 0.  1.
<mgrwt>
<rscale>  0 0.92933166E+02</rscale>
<asrwt>0</asrwt>
<pdfrwt beam="2">  1        1 0.67542576E-02 0.92933166E+02</pdfrwt>
<pdfrwt beam="1">  1       -1 0.75661883E-02 0.92933166E+02</pdfrwt>
<totfact> 0.87134381E+04</totfact>
</mgrwt>
</event>
<event>
 5    1  0.2734570E+000  0.9100858E+02  0.7818608E-02  0.1300427E+00
          1   -1    0    0  501    0  0.00000000000E+00  0.00000000000E+00  0.57872437963E+01  0.57872456806E+01  0.46700000000E-02 0. -1.
         -1   -1    0    0    0  501 -0.00000000000E+00 -0.00000000000E+00 -0.35779382704E+03  0.35779382707E+03  0.46700000000E-02 0.  1.
         23    2    1    2    0    0  0.00000000000E+00  0.00000000000E+00 -0.35200658324E+03  0.36358107275E+03  0.91008581001E+02 0.  0.
        -13    1    3    3    0    0 -0.12177594833E+02  0.41706742134E+02 -0.12197692739E+03  0.12948408452E+03  0.10570000000E+00 0.  1.
         13    1    3    3    0    0  0.12177594833E+02 -0.41706742134E+02 -0.23002965585E+03  0.23409698823E+03  0.10570000000E+00 0. -1.
<mgrwt>
<rscale>  0 0.91008581E+02</rscale>
<asrwt>0</asrwt>
<pdfrwt beam="1">  1        1 0.89034562E-03 0.91008581E+02</pdfrwt>
<pdfrwt beam="2">  1       -1 0.55045187E-01 0.91008581E+02</pdfrwt>
<totfact> 0.56496797E+04</totfact>
</mgrwt>
</event>
<event>
 5    1  0.2734570E+000  0.9112658E+02  0.7818608E-02  0.1300146E+00
         -1   -1    0    0    0  501 -0.00000000000E+00  0.00000000000E+00  0.12155410518E+03  0.12155410527E+03  0.46700000000E-02 0.  1.
          1   -1    0    0  501    0  0.00000000000E+00 -0.00000000000E+00 -0.17078922991E+02  0.17078923629E+02  0.46700000000E-02 0. -1.
         23    2    1    2    0    0  0.00000000000E+00  0.00000000000E+00  0.10447518219E+03  0.13863302890E+03  0.91126576850E+02 0.  0.
        -13    1    3    3    0    0  0.11726897514E+02 -0.37559826744E+02  0.87186387629E+02  0.95654263212E+02  0.10570000000E+00 0. -1.
         13    1    3    3    0    0 -0.11726897514E+02  0.37559826744E+02  0.17288794564E+02  0.42978765691E+02  0.10570000000E+00 0.  1.
<mgrwt>
<rscale>  0 0.91126577E+02</rscale>
<asrwt>0</asrwt>
<pdfrwt beam="2">  1        1 0.26275267E-02 0.91126577E+02</pdfrwt>
<pdfrwt beam="1">  1       -1 0.18700631E-01 0.91126577E+02</pdfrwt>
<totfact> 0.78435457E+04</totfact>
</mgrwt>
</event>
<event>
 5    1  0.2734570E+000  0.1001450E+03  0.7818608E-02  0.1279991E+00
          1   -1    0    0  501    0  0.00000000000E+00  0.00000000000E+00  0.50708848577E+02  0.50708848792E+02  0.46700000000E-02 0. -1.
         -1   -1    0    0    0  501 -0.00000000000E+00 -0.00000000000E+00 -0.49444170351E+02  0.49444170571E+02  0.46700000000E-02 0.  1.
         23    2    1    2    0    0  0.00000000000E+00  0.00000000000E+00  0.12646782259E+01  0.10015301936E+03  0.10014503421E+03 0.  0.
        -13    1    3    3    0    0  0.32000761847E+02  0.38159089758E+02  0.58366859055E+01  0.50142227361E+02  0.10570000000E+00 0.  1.
         13    1    3    3    0    0 -0.32000761847E+02 -0.38159089758E+02 -0.45720076796E+01  0.50010792002E+02  0.10570000000E+00 0. -1.
<mgrwt>
<rscale>  0 0.10014503E+03</rscale>
<asrwt>0</asrwt>
<pdfrwt beam="1">  1        1 0.78013613E-02 0.10014503E+03</pdfrwt>
<pdfrwt beam="2">  1       -1 0.76067955E-02 0.10014503E+03</pdfrwt>
<totfact> 0.72142362E+04</totfact>
</mgrwt>
</event>
<event>
 5    1  0.2734570E+000  0.9842359E+02  0.7818608E-02  0.1283646E+00
         -1   -1    0    0    0  501 -0.00000000000E+00  0.00000000000E+00  0.52895812015E+02  0.52895812221E+02  0.46700000000E-02 0.  1.
          1   -1    0    0  501    0  0.00000000000E+00 -0.00000000000E+00 -0.45784357061E+02  0.45784357299E+02  0.46700000000E-02 0. -1.
         23    2    1    2    0    0  0.00000000000E+00  0.00000000000E+00  0.71114549539E+01  0.98680169519E+02  0.98423589981E+02 0.  0.
        -13    1    3    3    0    0 -0.93688992814E+01 -0.37165766693E+02 -0.27390885419E+02  0.47109895608E+02  0.10570000000E+00 0. -1.
         13    1    3    3    0    0  0.93688992814E+01  0.37165766693E+02  0.34502340373E+02  0.51570273912E+02  0.10570000000E+00 0.  1.
<mgrwt>
<rscale>  0 0.98423590E+02</rscale>
<asrwt>0</asrwt>
<pdfrwt beam="2">  1        1 0.70437473E-02 0.98423590E+02</pdfrwt>
<pdfrwt beam="1">  1       -1 0.81378172E-02 0.98423590E+02</pdfrwt>
<totfact> 0.74544370E+04</totfact>
</mgrwt>
</event>
<event>
 5    1  0.2734570E+000  0.6736176E+02  0.7818608E-02  0.1369301E+00
         -1   -1    0    0    0  501 -0.00000000000E+00  0.00000000000E+00  0.70381134603E+01  0.70381150096E+01  0.46700000000E-02 0.  1.
          1   -1    0    0  501    0  0.00000000000E+00 -0.00000000000E+00 -0.16117976865E+03  0.16117976871E+03  0.46700000000E-02 0. -1.
         23    2    1    2    0    0  0.00000000000E+00  0.00000000000E+00 -0.15414165519E+03  0.16821788372E+03  0.67361758743E+02 0.  0.
        -13    1    3    3    0    0  0.27832588683E+02  0.17180828670E+02 -0.57006294443E+02  0.65723379746E+02  0.10570000000E+00 0. -1.
         13    1    3    3    0    0 -0.27832588683E+02 -0.17180828670E+02 -0.97135360743E+02  0.10249450398E+03  0.10570000000E+00 0.  1.
<mgrwt>
<rscale>  0 0.67361759E+02</rscale>
<asrwt>0</asrwt>
<pdfrwt beam="2">  1        1 0.24796885E-01 0.67361759E+02</pdfrwt>
<pdfrwt beam="1">  1       -1 0.10827869E-02 0.67361759E+02</pdfrwt>
<totfact> 0.25312613E+05</totfact>
</mgrwt>
</event>
<event>
 5    1  0.2734570E+000  0.8897990E+02  0.7818608E-02  0.1305341E+00
          1   -1    0    0  501    0  0.00000000000E+00  0.00000000000E+00  0.67668944391E+01  0.67668960505E+01  0.46700000000E-02 0. -1.
         -1   -1    0    0    0  501 -0.00000000000E+00 -0.00000000000E+00 -0.29250573308E+03  0.29250573311E+03  0.46700000000E-02 0.  1.
         23    2    1    2    0    0  0.00000000000E+00  0.00000000000E+00 -0.28573883864E+03  0.29927262916E+03  0.88979900320E+02 0.  0.
        -13    1    3    3    0    0  0.32637433721E+02  0.26267663362E+02 -0.19322488991E+03  0.19771459600E+03  0.10570000000E+00 0.  1.
         13    1    3    3    0    0 -0.32637433721E+02 -0.26267663362E+02 -0.92513948723E+02  0.10155803316E+03  0.10570000000E+00 0. -1.
<mgrwt>
<rscale>  0 0.88979900E+02</rscale>
<asrwt>0</asrwt>
<pdfrwt beam="1">  1        1 0.10410610E-02 0.88979900E+02</pdfrwt>
<pdfrwt beam="2">  1       -1 0.45000872E-01 0.88979900E+02</pdfrwt>
<totfact> 0.65209907E+04</totfact>
</mgrwt>
</event>
<event>
 5    1  0.2734570E+000  0.6892649E+02  0.7818608E-02  0.1363782E+00
          1   -1    0    0  501    0  0.00000000000E+00  0.00000000000E+00  0.16333033573E+03  0.16333033580E+03  0.46700000000E-02 0. -1.
         -1   -1    0    0    0  501 -0.00000000000E+00 -0.00000000000E+00 -0.72718586972E+01  0.72718601967E+01  0.46700000000E-02 0.  1.
         23    2    1    2    0    0  0.00000000000E+00  0.00000000000E+00  0.15605847703E+03  0.17060219599E+03  0.68926490002E+02 0.  0.
        -13    1    3    3    0    0  0.21952391371E+02 -0.97642766194E+01  0.16875155427E+02  0.29360358104E+02  0.10570000000E+00 0.  1.
         13    1    3    3    0    0 -0.21952391371E+02  0.97642766194E+01  0.13918332161E+03  0.14124183789E+03  0.10570000000E+00 0. -1.
<mgrwt>
<rscale>  0 0.68926490E+02</rscale>
<asrwt>0</asrwt>
<pdfrwt beam="1">  1        1 0.25127745E-01 0.68926490E+02</pdfrwt>
<pdfrwt beam="2">  1       -1 0.11187476E-02 0.68926490E+02</pdfrwt>
<totfact> 0.23898671E+05</totfact>
</mgrwt>
</event>
<event>
 5    1  0.2734570E+000  0.9226439E+02  0.7818608E-02  0.1297459E+00
          1   -1    0    0  501    0  0.00000000000E+00  0.00000000000E+00  0.25143161370E+03  0.25143161374E+03  0.46700000000E-02 0. -1.
         -1   -1    0    0    0  501 -0.00000000000E+00 -0.00000000000E+00 -0.84642464654E+01  0.84642477537E+01  0.46700000000E-02 0.  1.
         23    2    1    2    0    0  0.00000000000E+00  0.00000000000E+00  0.24296736724E+03  0.25989586150E+03  0.92264387943E+02 0.  0.
        -13    1    3    3    0    0 -0.44646814658E+01  0.39391758401E+02  0.55031805237E+02  0.67824440806E+02  0.10570000000E+00 0.  1.
         13    1    3    3    0    0  0.44646814658E+01 -0.39391758401E+02  0.18793556200E+03  0.19207142069E+03  0.10570000000E+00 0. -1.
<mgrwt>
<rscale>  0 0.92264388E+02</rscale>
<asrwt>0</asrwt>
<pdfrwt beam="1">  1        1 0.38681790E-01 0.92264388E+02</pdfrwt>
<pdfrwt beam="2">  1       -1 0.13021918E-02 0.92264388E+02</pdfrwt>
<totfact> 0.11994251E+05</totfact>
</mgrwt>
</event>
<event>
 5    1  0.2734570E+000  0.9397758E+02  0.7818608E-02  0.1293496E+00
         -1   -1    0    0    0  501 -0.00000000000E+00  0.00000000000E+00  0.10066698102E+03  0.10066698113E+03  0.46700000000E-02 0.  1.
          1   -1    0    0  501    0  0.00000000000E+00 -0.00000000000E+00 -0.21933171069E+02  0.21933171566E+02  0.46700000000E-02 0. -1.
         23    2    1    2    0    0  0.00000000000E+00  0.00000000000E+00  0.78733809956E+02  0.12260015270E+03  0.93977575047E+02 0.  0.
        -13    1    3    3    0    0 -0.44806124495E+01  0.39121546477E+02  0.72814864868E+02  0.82780353979E+02  0.10570000000E+00 0.  1.
         13    1    3    3    0    0  0.44806124495E+01 -0.39121546477E+02  0.59189450878E+01  0.39819798720E+02  0.10570000000E+00 0. -1.
<mgrwt>
<rscale>  0 0.93977575E+02</rscale>
<asrwt>0</asrwt>
<pdfrwt beam="2">  1        1 0.33743340E-02 0.93977575E+02</pdfrwt>
<pdfrwt beam="1">  1       -1 0.15487228E-01 0.93977575E+02</pdfrwt>
<totfact> 0.75169172E+04</totfact>
</mgrwt>
</event>
<event>
 5    1  0.2734570E+000  0.9442183E+02  0.7818608E-02  0.1292484E+00
          1   -1    0    0  501    0  0.00000000000E+00  0.00000000000E+00  0.17923830742E+03  0.17923830748E+03  0.46700000000E-02 0. -1.
         -1   -1    0    0    0  501 -0.00000000000E+00 -0.00000000000E+00 -0.12435234286E+02  0.12435235163E+02  0.46700000000E-02 0.  1.
         23    2    1    2    0    0  0.00000000000E+00  0.00000000000E+00  0.16680307313E+03  0.19167354264E+03  0.94421828740E+02 0.  0.
        -13    1    3    3    0    0  0.33357282644E+02  0.33314021483E+02  0.78295472137E+02  0.91393240792E+02  0.10570000000E+00 0.  1.
         13    1    3    3    0    0 -0.33357282644E+02 -0.33314021483E+02  0.88507600996E+02  0.10028030185E+03  0.10570000000E+00 0. -1.
<mgrwt>
<rscale>  0 0.94421829E+02</rscale>
<asrwt>0</asrwt>
<pdfrwt beam="1">  1        1 0.27575124E-01 0.94421829E+02</pdfrwt>
<pdfrwt beam="2">  1       -1 0.19131131E-02 0.94421829E+02</pdfrwt>
<totfact> 0.10550606E+05</totfact>
</mgrwt>
</event>
<event>
 5    1  0.2734570E+000  0.8931380E+02  0.7818608E-02  0.1304522E+00
         -1   -1    0    0    0  501 -0.00000000000E+00  0.00000000000E+00  0.91185471206E+01  0.91185483164E+01  0.46700000000E-02 0.  1.
          1   -1    0    0  501    0  0.00000000000E+00 -0.00000000000E+00 -0.21870136217E+03  0.21870136222E+03  0.46700000000E-02 0. -1.
         23    2    1    2    0    0  0.00000000000E+00  0.00000000000E+00 -0.20958281505E+03  0.22781991054E+03  0.89313802252E+02 0.  0.
        -13    1    3    3    0    0  0.26087616114E+02 -0.34972531564E+02 -0.12906888508E+03  0.13624400885E+03  0.10570000000E+00 0. -1.
         13    1    3    3    0    0 -0.26087616114E+02  0.34972531564E+02 -0.80513929970E+02  0.91575901689E+02  0.10570000000E+00 0.  1.
<mgrwt>
<rscale>  0 0.89313802E+02</rscale>
<asrwt>0</asrwt>
<pdfrwt beam="2">  1        1 0.33646360E-01 0.89313802E+02</pdfrwt>
<pdfrwt beam="1">  1       -1 0.14028537E-02 0.89313802E+02</pdfrwt>
<totfact> 0.12731955E+05</totfact>
</mgrwt>
</event>
<event>
 5    1  0.2734570E+000  0.9400841E+02  0.7818608E-02  0.1293425E+00
          1   -1    0    0  501    0  0.00000000000E+00  0.00000000000E+00  0.13471013930E+02  0.13471014740E+02  0.46700000000E-02 0. -1.
         -1   -1    0    0    0  501 -0.00000000000E+00 -0.00000000000E+00 -0.16401106929E+03  0.16401106935E+03  0.46700000000E-02 0.  1.
         23    2    1    2    0    0  0.00000000000E+00  0.00000000000E+00 -0.15054005536E+03  0.17748208409E+03  0.94008414025E+02 0.  0.
        -13    1    3    3    0    0  0.13773006826E+02  0.37230911266E+02 -0.27749910930E+02  0.48434545521E+02  0.10570000000E+00 0. -1.
         13    1    3    3    0    0 -0.13773006826E+02 -0.37230911266E+02 -0.12279014443E+03  0.12904753857E+03  0.10570000000E+00 0.  1.
<mgrwt>
<rscale>  0 0.94008414E+02</rscale>
<asrwt>0</asrwt>
<pdfrwt beam="1">  1        1 0.20724639E-02 0.94008414E+02</pdfrwt>
<pdfrwt beam="2">  1       -1 0.25232471E-01 0.94008414E+02</pdfrwt>
<totfact> 0.67594230E+04</totfact>
</mgrwt>
</event>
<event>
 5    1  0.2734570E+000  0.9253878E+02  0.7818608E-02  0.1296818E+00
          1   -1    0    0  501    0  0.00000000000E+00  0.00000000000E+00  0.18599913148E+02  0.18599913734E+02  0.46700000000E-02 0. -1.
         -1   -1    0    0    0  501 -0.00000000000E+00 -0.00000000000E+00 -0.11510033412E+03  0.11510033422E+03  0.46700000000E-02 0.  1.
         23    2    1    2    0    0  0.00000000000E+00  0.00000000000E+00 -0.96500420975E+02  0.13370024795E+03  0.92538775949E+02 0.  0.
        -13    1    3    3    0    0  0.22051525187E+02  0.15852175124E+02 -0.10237313170E+03  0.10591426006E+03  0.10570000000E+00 0.  1.
         13    1    3    3    0    0 -0.22051525187E+02 -0.15852175124E+02  0.58727107200E+01  0.27785987889E+02  0.10570000000E+00 0. -1.
<mgrwt>
<rscale>  0 0.92538776E+02</rscale>
<asrwt>0</asrwt>
<pdfrwt beam="1">  1        1 0.28615252E-02 0.92538776E+02</pdfrwt>
<pdfrwt beam="2">  1       -1 0.17707743E-01 0.92538776E+02</pdfrwt>
<totfact> 0.76216060E+04</totfact>
</mgrwt>
</event>
<event>
 5    1  0.2734570E+000  0.5877547E+02  0.7818608E-02  0.1403044E+00
          1   -1    0    0  501    0  0.00000000000E+00  0.00000000000E+00  0.15938449933E+02  0.15938450617E+02  0.46700000000E-02 0.  1.
         -1   -1    0    0    0  501 -0.00000000000E+00 -0.00000000000E+00 -0.54185878463E+02  0.54185878664E+02  0.46700000000E-02 0. -1.
         23    2    1    2    0    0  0.00000000000E+00  0.00000000000E+00 -0.38247428530E+02  0.70124329281E+02  0.58775469100E+02 0.  0.
        -13    1    3    3    0    0  0.25959625310E+02  0.12217830756E+02 -0.11535612611E+02  0.30923438771E+02  0.10570000000E+00 0.  1.
         13    1    3    3    0    0 -0.25959625310E+02 -0.12217830756E+02 -0.26711815920E+02  0.39200890510E+02  0.10570000000E+00 0. -1.
<mgrwt>
<rscale>  0 0.58775469E+02</rscale>
<asrwt>0</asrwt>
<pdfrwt beam="1">  1        1 0.24520693E-02 0.58775469E+02</pdfrwt>
<pdfrwt beam="2">  1       -1 0.83362890E-02 0.58775469E+02</pdfrwt>
<totfact> 0.27142687E+05</totfact>
</mgrwt>
</event>
<event>
 5    1  0.2734570E+000  0.1010310E+03  0.7818608E-02  0.1278143E+00
         -1   -1    0    0    0  501 -0.00000000000E+00  0.00000000000E+00  0.19414651734E+02  0.19414652295E+02  0.46700000000E-02 0.  1.
          1   -1    0    0  501    0  0.00000000000E+00 -0.00000000000E+00 -0.13143751802E+03  0.13143751810E+03  0.46700000000E-02 0. -1.
         23    2    1    2    0    0  0.00000000000E+00  0.00000000000E+00 -0.11202286628E+03  0.15085217039E+03  0.10103095933E+03 0.  0.
        -13    1    3    3    0    0 -0.19360196302E+02 -0.36840896618E+02 -0.98761172128E+02  0.10717205399E+03  0.10570000000E+00 0. -1.
         13    1    3    3    0    0  0.19360196302E+02  0.36840896618E+02 -0.13261694154E+02  0.43680116401E+02  0.10570000000E+00 0.  1.
<mgrwt>
<rscale>  0 0.10103096E+03</rscale>
<asrwt>0</asrwt>
<pdfrwt beam="2">  1        1 0.20221156E-01 0.10103096E+03</pdfrwt>
<pdfrwt beam="1">  1       -1 0.29868696E-02 0.10103096E+03</pdfrwt>
<totfact> 0.82775504E+04</totfact>
</mgrwt>
</event>
<event>
 5    1  0.2734570E+000  0.9082489E+02  0.7818608E-02  0.1300866E+00
          1   -1    0    0  501    0  0.00000000000E+00  0.00000000000E+00  0.10242579682E+03  0.10242579693E+03  0.46700000000E-02 0. -1.
         -1   -1    0    0    0  501 -0.00000000000E+00 -0.00000000000E+00 -0.20134479324E+02  0.20134479866E+02  0.46700000000E-02 0.  1.
         23    2    1    2    0    0  0.00000000000E+00  0.00000000000E+00  0.82291317495E+02  0.12256027679E+03  0.90824889277E+02 0.  0.
        -13    1    3    3    0    0 -0.22784690261E+02 -0.38487473615E+02  0.30533127276E+02  0.54154508301E+02  0.10570000000E+00 0.  1.
         13    1    3    3    0    0  0.22784690261E+02  0.38487473615E+02  0.51758190219E+02  0.68405768491E+02  0.10570000000E+00 0. -1.
<mgrwt>
<rscale>  0 0.90824889E+02</rscale>
<asrwt>0</asrwt>
<pdfrwt beam="1">  1        1 0.15757815E-01 0.90824889E+02</pdfrwt>
<pdfrwt beam="2">  1       -1 0.30976123E-02 0.90824889E+02</pdfrwt>
<totfact> 0.10598030E+05</totfact>
</mgrwt>
</event>
<event>
 5    1  0.2734570E+000  0.9497926E+02  0.7818608E-02  0.1291223E+00
          1   -1    0    0  501    0  0.00000000000E+00  0.00000000000E+00  0.27290212641E+03  0.27290212645E+03  0.46700000000E-02 0. -1.
         -1   -1    0    0    0  501 -0.00000000000E+00 -0.00000000000E+00 -0.82640056296E+01  0.82640069491E+01  0.46700000000E-02 0.  1.
         23    2    1    2    0    0  0.00000000000E+00  0.00000000000E+00  0.26463812078E+03  0.28116613340E+03  0.94979258790E+02 0.  0.
        -13    1    3    3    0    0 -0.38209202835E+02 -0.26670119753E+02  0.10518509187E+03  0.11504413585E+03  0.10570000000E+00 0.  1.
         13    1    3    3    0    0  0.38209202835E+02  0.26670119753E+02  0.15945302891E+03  0.16612199755E+03  0.10570000000E+00 0. -1.
<mgrwt>
<rscale>  0 0.94979259E+02</rscale>
<asrwt>0</asrwt>
<pdfrwt beam="1">  1        1 0.41984935E-01 0.94979259E+02</pdfrwt>
<pdfrwt beam="2">  1       -1 0.12713858E-02 0.94979259E+02</pdfrwt>
<totfact> 0.11277777E+05</totfact>
</mgrwt>
</event>
<event>
 5    1  0.2734570E+000  0.8916595E+02  0.7818608E-02  0.1304884E+00
          1   -1    0    0  501    0  0.00000000000E+00  0.00000000000E+00  0.33523124217E+03  0.33523124220E+03  0.46700000000E-02 0. -1.
         -1   -1    0    0    0  501 -0.00000000000E+00 -0.00000000000E+00 -0.59291653253E+01  0.59291671645E+01  0.46700000000E-02 0.  1.
         23    2    1    2    0    0  0.00000000000E+00  0.00000000000E+00  0.32930207685E+03  0.34116040937E+03  0.89165952612E+02 0.  0.
        -13    1    3    3    0    0 -0.10621577289E+02  0.43099016298E+02  0.18055940510E+03  0.18593561534E+03  0.10570000000E+00 0. -1.
         13    1    3    3    0    0  0.10621577289E+02 -0.43099016298E+02  0.14874267175E+03  0.15522479403E+03  0.10570000000E+00 0.  1.
<mgrwt>
<rscale>  0 0.89165953E+02</rscale>
<asrwt>0</asrwt>
<pdfrwt beam="1">  1        1 0.51574039E-01 0.89165953E+02</pdfrwt>
<pdfrwt beam="2">  1       -1 0.91217939E-03 0.89165953E+02</pdfrwt>
<totfact> 0.13879279E+05</totfact>
</mgrwt>
</event>
<event>
 5    1  0.2734570E+000  0.8941984E+02  0.7818608E-02  0.1304263E+00
         -1   -1    0    0    0  501 -0.00000000000E+00  0.00000000000E+00  0.66842522002E+02  0.66842522165E+02  0.46700000000E-02 0.  1.
          1   -1    0    0  501    0  0.00000000000E+00 -0.00000000000E+00 -0.29905770176E+02  0.29905770541E+02  0.46700000000E-02 0. -1.
         23    2    1    2    0    0  0.00000000000E+00  0.00000000000E+00  0.36936751826E+02  0.96748292706E+02  0.89419844028E+02 0.  0.
        -13    1    3    3    0    0 -0.16473614757E+02  0.38689115984E+00  0.63437085039E+02  0.65542387802E+02  0.10570000000E+00 0.  1.
         13    1    3    3    0    0  0.16473614757E+02 -0.38689115984E+00 -0.26500333214E+02  0.31205904904E+02  0.10570000000E+00 0. -1.
<mgrwt>
<rscale>  0 0.89419844E+02</rscale>
<asrwt>0</asrwt>
<pdfrwt beam="2">  1        1 0.46008878E-02 0.89419844E+02</pdfrwt>
<pdfrwt beam="1">  1       -1 0.10283465E-01 0.89419844E+02</pdfrwt>
<totfact> 0.91605764E+04</totfact>
</mgrwt>
</event>
<event>
 5    1  0.2734570E+000  0.9091844E+02  0.7818608E-02  0.1300643E+00
          1   -1    0    0  501    0  0.00000000000E+00  0.00000000000E+00  0.12506269213E+03  0.12506269222E+03  0.46700000000E-02 0. -1.
         -1   -1    0    0    0  501 -0.00000000000E+00 -0.00000000000E+00 -0.16524036819E+02  0.16524037479E+02  0.46700000000E-02 0.  1.
         23    2    1    2    0    0  0.00000000000E+00  0.00000000000E+00  0.10853865531E+03  0.14158672970E+03  0.90918437785E+02 0.  0.
        -13    1    3    3    0    0 -0.26797329429E+02  0.20767822237E+02  0.10143065945E+03  0.10694666499E+03  0.10570000000E+00 0. -1.
         13    1    3    3    0    0  0.26797329429E+02 -0.20767822237E+02  0.71079958670E+01  0.34640064705E+02  0.10570000000E+00 0.  1.
<mgrwt>
<rscale>  0 0.90918438E+02</rscale>
<asrwt>0</asrwt>
<pdfrwt beam="1">  1        1 0.19240415E-01 0.90918438E+02</pdfrwt>
<pdfrwt beam="2">  1       -1 0.25421595E-02 0.90918438E+02</pdfrwt>
<totfact> 0.10935845E+05</totfact>
</mgrwt>
</event>
<event>
 5    1  0.2734570E+000  0.9552706E+02  0.7818608E-02  0.1289993E+00
         -1   -1    0    0    0  501 -0.00000000000E+00  0.00000000000E+00  0.22239056458E+03  0.22239056463E+03  0.46700000000E-02 0.  1.
          1   -1    0    0  501    0  0.00000000000E+00 -0.00000000000E+00 -0.10258324016E+02  0.10258325079E+02  0.46700000000E-02 0. -1.
         23    2    1    2    0    0  0.00000000000E+00  0.00000000000E+00  0.21213224056E+03  0.23264888971E+03  0.95527055831E+02 0.  0.
        -13    1    3    3    0    0 -0.40183406185E+02  0.18004665441E+02  0.15113589888E+03  0.15741964685E+03  0.10570000000E+00 0.  1.
         13    1    3    3    0    0  0.40183406185E+02 -0.18004665441E+02  0.60996341679E+02  0.75229242858E+02  0.10570000000E+00 0. -1.
<mgrwt>
<rscale>  0 0.95527056E+02</rscale>
<asrwt>0</asrwt>
<pdfrwt beam="2">  1        1 0.15782037E-02 0.95527056E+02</pdfrwt>
<pdfrwt beam="1">  1       -1 0.34213935E-01 0.95527056E+02</pdfrwt>
<totfact> 0.59551054E+04</totfact>
</mgrwt>
</event>
<event>
 5    1  0.2734570E+000  0.9154495E+02  0.7818608E-02  0.1299153E+00
         -1   -1    0    0    0  501 -0.00000000000E+00  0.00000000000E+00  0.44684857598E+02  0.44684857842E+02  0.46700000000E-02 0.  1.
          1   -1    0    0  501    0  0.00000000000E+00 -0.00000000000E+00 -0.46886565276E+02  0.46886565509E+02  0.46700000000E-02 0. -1.
         23    2    1    2    0    0  0.00000000000E+00  0.00000000000E+00 -0.22017076778E+01  0.91571423351E+02  0.91544951023E+02 0.  0.
        -13    1    3    3    0    0 -0.16664689000E+02 -0.13209526117E+02 -0.41645338138E+02  0.46760547482E+02  0.10570000000E+00 0. -1.
         13    1    3    3    0    0  0.16664689000E+02  0.13209526117E+02  0.39443630460E+02  0.44810875869E+02  0.10570000000E+00 0.  1.
<mgrwt>
<rscale>  0 0.91544951E+02</rscale>
<asrwt>0</asrwt>
<pdfrwt beam="2">  1        1 0.72133178E-02 0.91544951E+02</pdfrwt>
<pdfrwt beam="1">  1       -1 0.68745935E-02 0.91544951E+02</pdfrwt>
<totfact> 0.91818913E+04</totfact>
</mgrwt>
</event>
<event>
 5    1  0.2734570E+000  0.9042003E+02  0.7818608E-02  0.1301838E+00
          1   -1    0    0  501    0  0.00000000000E+00  0.00000000000E+00  0.34077277776E+02  0.34077278096E+02  0.46700000000E-02 0. -1.
         -1   -1    0    0    0  501 -0.00000000000E+00 -0.00000000000E+00 -0.59979712350E+02  0.59979712531E+02  0.46700000000E-02 0.  1.
         23    2    1    2    0    0  0.00000000000E+00  0.00000000000E+00 -0.25902434573E+02  0.94056990628E+02  0.90420027478E+02 0.  0.
        -13    1    3    3    0    0  0.20051593394E+02  0.36387005853E+01 -0.54930725239E+02  0.58589267681E+02  0.10570000000E+00 0.  1.
         13    1    3    3    0    0 -0.20051593394E+02 -0.36387005853E+01  0.29028290666E+02  0.35467722947E+02  0.10570000000E+00 0. -1.
<mgrwt>
<rscale>  0 0.90420027E+02</rscale>
<asrwt>0</asrwt>
<pdfrwt beam="1">  1        1 0.52426582E-02 0.90420027E+02</pdfrwt>
<pdfrwt beam="2">  1       -1 0.92276481E-02 0.90420027E+02</pdfrwt>
<totfact> 0.90577910E+04</totfact>
</mgrwt>
</event>
<event>
 5    1  0.2734570E+000  0.8895676E+02  0.7818608E-02  0.1305398E+00
         -1   -1    0    0    0  501 -0.00000000000E+00  0.00000000000E+00  0.45457517247E+02  0.45457517487E+02  0.46700000000E-02 0.  1.
          1   -1    0    0  501    0  0.00000000000E+00 -0.00000000000E+00 -0.43520329587E+02  0.43520329837E+02  0.46700000000E-02 0. -1.
         23    2    1    2    0    0  0.00000000000E+00  0.00000000000E+00  0.19371876603E+01  0.88977847324E+02  0.88956757013E+02 0.  0.
        -13    1    3    3    0    0  0.90543122448E+01  0.12286400484E+02  0.42756229314E+02  0.45398706200E+02  0.10570000000E+00 0.  1.
         13    1    3    3    0    0 -0.90543122448E+01 -0.12286400484E+02 -0.40819041653E+02  0.43579141123E+02  0.10570000000E+00 0. -1.
<mgrwt>
<rscale>  0 0.88956757E+02</rscale>
<asrwt>0</asrwt>
<pdfrwt beam="2">  1        1 0.66954354E-02 0.88956757E+02</pdfrwt>
<pdfrwt beam="1">  1       -1 0.69934642E-02 0.88956757E+02</pdfrwt>
<totfact> 0.98402184E+04</totfact>
</mgrwt>
</event>
<event>
 5    1  0.2734570E+000  0.8752442E+02  0.7818608E-02  0.1308960E+00
          1   -1    0    0  501    0  0.00000000000E+00  0.00000000000E+00  0.48240630835E+02  0.48240631061E+02  0.46700000000E-02 0. -1.
         -1   -1    0    0    0  501 -0.00000000000E+00 -0.00000000000E+00 -0.39699542147E+02  0.39699542421E+02  0.46700000000E-02 0.  1.
         23    2    1    2    0    0  0.00000000000E+00  0.00000000000E+00  0.85410886881E+01  0.87940173482E+02  0.87524418970E+02 0.  0.
        -13    1    3    3    0    0  0.21545029284E+02  0.18890827410E+02  0.37504364942E+02  0.47197883525E+02  0.10570000000E+00 0. -1.
         13    1    3    3    0    0 -0.21545029284E+02 -0.18890827410E+02 -0.28963276254E+02  0.40742289957E+02  0.10570000000E+00 0.  1.
<mgrwt>
<rscale>  0 0.87524419E+02</rscale>
<asrwt>0</asrwt>
<pdfrwt beam="1">  1        1 0.74216355E-02 0.87524419E+02</pdfrwt>
<pdfrwt beam="2">  1       -1 0.61076219E-02 0.87524419E+02</pdfrwt>
<totfact> 0.10452129E+05</totfact>
</mgrwt>
</event>
<event>
 5    1  0.2734570E+000  0.9547582E+02  0.7818608E-02  0.1290108E+00
         -1   -1    0    0    0  501 -0.00000000000E+00  0.00000000000E+00  0.11365650222E+03  0.11365650232E+03  0.46700000000E-02 0.  1.
          1   -1    0    0  501    0  0.00000000000E+00 -0.00000000000E+00 -0.20050838268E+02  0.20050838812E+02  0.46700000000E-02 0. -1.
         23    2    1    2    0    0  0.00000000000E+00  0.00000000000E+00  0.93605663951E+02  0.13370734113E+03  0.95475822843E+02 0.  0.
        -13    1    3    3    0    0 -0.23067026699E+02  0.37983117659E+02  0.71223885060E+02  0.83950330097E+02  0.10570000000E+00 0. -1.
         13    1    3    3    0    0  0.23067026699E+02 -0.37983117659E+02  0.22381778891E+02  0.49757011030E+02  0.10570000000E+00 0.  1.
<mgrwt>
<rscale>  0 0.95475823E+02</rscale>
<asrwt>0</asrwt>
<pdfrwt beam="2">  1        1 0.30847444E-02 0.95475823E+02</pdfrwt>
<pdfrwt beam="1">  1       -1 0.17485616E-01 0.95475823E+02</pdfrwt>
<totfact> 0.70474527E+04</totfact>
</mgrwt>
</event>
<event>
 5    1  0.2734570E+000  0.9368025E+02  0.7818608E-02  0.1294176E+00
         -1   -1    0    0    0  501 -0.00000000000E+00  0.00000000000E+00  0.18498254287E+02  0.18498254876E+02  0.46700000000E-02 0.  1.
          1   -1    0    0  501    0  0.00000000000E+00 -0.00000000000E+00 -0.11860564713E+03  0.11860564723E+03  0.46700000000E-02 0. -1.
         23    2    1    2    0    0  0.00000000000E+00  0.00000000000E+00 -0.10010739285E+03  0.13710390210E+03  0.93680253357E+02 0.  0.
        -13    1    3    3    0    0 -0.22143871615E+02 -0.11058141727E+02  0.81453859722E+01  0.26057475581E+02  0.10570000000E+00 0.  1.
         13    1    3    3    0    0  0.22143871615E+02  0.11058141727E+02 -0.10825277882E+03  0.11104642652E+03  0.10570000000E+00 0. -1.
<mgrwt>
<rscale>  0 0.93680253E+02</rscale>
<asrwt>0</asrwt>
<pdfrwt beam="2">  1        1 0.18247022E-01 0.93680253E+02</pdfrwt>
<pdfrwt beam="1">  1       -1 0.28458854E-02 0.93680253E+02</pdfrwt>
<totfact> 0.99884212E+04</totfact>
</mgrwt>
</event>
<event>
 5    1  0.2734570E+000  0.8868007E+02  0.7818608E-02  0.1306080E+00
          1   -1    0    0  501    0  0.00000000000E+00  0.00000000000E+00  0.11319809389E+02  0.11319810353E+02  0.46700000000E-02 0. -1.
         -1   -1    0    0    0  501 -0.00000000000E+00 -0.00000000000E+00 -0.17368122918E+03  0.17368122925E+03  0.46700000000E-02 0.  1.
         23    2    1    2    0    0  0.00000000000E+00  0.00000000000E+00 -0.16236141979E+03  0.18500103960E+03  0.88680065489E+02 0.  0.
        -13    1    3    3    0    0  0.33495702017E+02 -0.29049634426E+02 -0.82075616236E+02  0.93285911407E+02  0.10570000000E+00 0.  1.
         13    1    3    3    0    0 -0.33495702017E+02  0.29049634426E+02 -0.80285803558E+02  0.91715128192E+02  0.10570000000E+00 0. -1.
<mgrwt>
<rscale>  0 0.88680065E+02</rscale>
<asrwt>0</asrwt>
<pdfrwt beam="1">  1        1 0.17415093E-02 0.88680065E+02</pdfrwt>
<pdfrwt beam="2">  1       -1 0.26720187E-01 0.88680065E+02</pdfrwt>
<totfact> 0.77534822E+04</totfact>
</mgrwt>
</event>
<event>
 5    1  0.2734570E+000  0.9105091E+02  0.7818608E-02  0.1300327E+00
         -1   -1    0    0    0  501 -0.00000000000E+00  0.00000000000E+00  0.50705539349E+02  0.50705539564E+02  0.46700000000E-02 0.  1.
          1   -1    0    0  501    0  0.00000000000E+00 -0.00000000000E+00 -0.40874566091E+02  0.40874566358E+02  0.46700000000E-02 0. -1.
         23    2    1    2    0    0  0.00000000000E+00  0.00000000000E+00  0.98309732577E+01  0.91580105922E+02  0.91050907549E+02 0.  0.
        -13    1    3    3    0    0  0.47444758671E+01 -0.20780760068E+02  0.45376218077E+02  0.50133445719E+02  0.10570000000E+00 0.  1.
         13    1    3    3    0    0 -0.47444758671E+01  0.20780760068E+02 -0.35545244819E+02  0.41446660203E+02  0.10570000000E+00 0. -1.
<mgrwt>
<rscale>  0 0.91050908E+02</rscale>
<asrwt>0</asrwt>
<pdfrwt beam="2">  1        1 0.62883948E-02 0.91050908E+02</pdfrwt>
<pdfrwt beam="1">  1       -1 0.78008522E-02 0.91050908E+02</pdfrwt>
<totfact> 0.91317599E+04</totfact>
</mgrwt>
</event>
<event>
 5    1  0.2734570E+000  0.9231082E+02  0.7818608E-02  0.1297350E+00
         -1   -1    0    0    0  501 -0.00000000000E+00  0.00000000000E+00  0.72639042620E+01  0.72639057632E+01  0.46700000000E-02 0.  1.
          1   -1    0    0  501    0  0.00000000000E+00 -0.00000000000E+00 -0.29327502241E+03  0.29327502244E+03  0.46700000000E-02 0. -1.
         23    2    1    2    0    0  0.00000000000E+00  0.00000000000E+00 -0.28601111815E+03  0.30053892821E+03  0.92310820955E+02 0.  0.
        -13    1    3    3    0    0 -0.10092069280E+02  0.42452869367E+02 -0.94037984551E+02  0.10366894275E+03  0.10570000000E+00 0.  1.
         13    1    3    3    0    0  0.10092069280E+02 -0.42452869367E+02 -0.19197313359E+03  0.19686998546E+03  0.10570000000E+00 0. -1.
<mgrwt>
<rscale>  0 0.92310821E+02</rscale>
<asrwt>0</asrwt>
<pdfrwt beam="2">  1        1 0.45119225E-01 0.92310821E+02</pdfrwt>
<pdfrwt beam="1">  1       -1 0.11175241E-02 0.92310821E+02</pdfrwt>
<totfact> 0.12342821E+05</totfact>
</mgrwt>
</event>
<event>
 5    1  0.2734570E+000  0.9212020E+02  0.7818608E-02  0.1297797E+00
          1   -1    0    0  501    0  0.00000000000E+00  0.00000000000E+00  0.63317697421E+02  0.63317697593E+02  0.46700000000E-02 0. -1.
         -1   -1    0    0    0  501 -0.00000000000E+00 -0.00000000000E+00 -0.33506160720E+02  0.33506161046E+02  0.46700000000E-02 0.  1.
         23    2    1    2    0    0  0.00000000000E+00  0.00000000000E+00  0.29811536701E+02  0.96823858639E+02  0.92120203437E+02 0.  0.
        -13    1    3    3    0    0 -0.28156723397E+02 -0.70668834831E+01 -0.22680169877E+02  0.36839424436E+02  0.10570000000E+00 0.  1.
         13    1    3    3    0    0  0.28156723397E+02  0.70668834831E+01  0.52491706578E+02  0.59984434202E+02  0.10570000000E+00 0. -1.
<mgrwt>
<rscale>  0 0.92120203E+02</rscale>
<asrwt>0</asrwt>
<pdfrwt beam="1">  1        1 0.97411842E-02 0.92120203E+02</pdfrwt>
<pdfrwt beam="2">  1       -1 0.51547941E-02 0.92120203E+02</pdfrwt>
<totfact> 0.94427653E+04</totfact>
</mgrwt>
</event>
<event>
 5    1  0.2734570E+000  0.8930060E+02  0.7818608E-02  0.1304554E+00
          1   -1    0    0  501    0  0.00000000000E+00  0.00000000000E+00  0.13587130347E+02  0.13587131149E+02  0.46700000000E-02 0. -1.
         -1   -1    0    0    0  501 -0.00000000000E+00 -0.00000000000E+00 -0.14673072064E+03  0.14673072071E+03  0.46700000000E-02 0.  1.
         23    2    1    2    0    0  0.00000000000E+00  0.00000000000E+00 -0.13314359029E+03  0.16031785186E+03  0.89300604645E+02 0.  0.
        -13    1    3    3    0    0 -0.39200282332E+01 -0.27473208469E+02 -0.12936729182E+03  0.13231043485E+03  0.10570000000E+00 0.  1.
         13    1    3    3    0    0  0.39200282332E+01  0.27473208469E+02 -0.37762984688E+01  0.28007417009E+02  0.10570000000E+00 0. -1.
<mgrwt>
<rscale>  0 0.89300605E+02</rscale>
<asrwt>0</asrwt>
<pdfrwt beam="1">  1        1 0.20903279E-02 0.89300605E+02</pdfrwt>
<pdfrwt beam="2">  1       -1 0.22573956E-01 0.89300605E+02</pdfrwt>
<totfact> 0.79333993E+04</totfact>
</mgrwt>
</event>
<event>
 5    1  0.2734570E+000  0.1014775E+03  0.7818608E-02  0.1277219E+00
          1   -1    0    0  501    0  0.00000000000E+00  0.00000000000E+00  0.28178712261E+02  0.28178712648E+02  0.46700000000E-02 0. -1.
         -1   -1    0    0    0  501 -0.00000000000E+00 -0.00000000000E+00 -0.91360395795E+02  0.91360395915E+02  0.46700000000E-02 0.  1.
         23    2    1    2    0    0  0.00000000000E+00  0.00000000000E+00 -0.63181683534E+02  0.11953910856E+03  0.10147745238E+03 0.  0.
        -13    1    3    3    0    0 -0.19260289829E+02  0.91179941171E+00 -0.86876177677E+02  0.88990289148E+02  0.10570000000E+00 0.  1.
         13    1    3    3    0    0  0.19260289829E+02 -0.91179941171E+00  0.23694494143E+02  0.30548819414E+02  0.10570000000E+00 0. -1.
<mgrwt>
<rscale>  0 0.10147745E+03</rscale>
<asrwt>0</asrwt>
<pdfrwt beam="1">  1        1 0.43351866E-02 0.10147745E+03</pdfrwt>
<pdfrwt beam="2">  1       -1 0.14055445E-01 0.10147745E+03</pdfrwt>
<totfact> 0.62799367E+04</totfact>
</mgrwt>
</event>
<event>
 5    1  0.2734570E+000  0.5735169E+02  0.7818608E-02  0.1409294E+00
          1   -1    0    0  501    0  0.00000000000E+00  0.00000000000E+00  0.60262136616E+02  0.60262136797E+02  0.46700000000E-02 0. -1.
         -1   -1    0    0    0  501 -0.00000000000E+00 -0.00000000000E+00 -0.13645449973E+02  0.13645450772E+02  0.46700000000E-02 0.  1.
         23    2    1    2    0    0  0.00000000000E+00  0.00000000000E+00  0.46616686642E+02  0.73907587569E+02  0.57351687218E+02 0.  0.
        -13    1    3    3    0    0  0.11019665352E+02 -0.26469073531E+02  0.23950040698E+02  0.37358539854E+02  0.10570000000E+00 0. -1.
         13    1    3    3    0    0 -0.11019665352E+02  0.26469073531E+02  0.22666645944E+02  0.36549047715E+02  0.10570000000E+00 0.  1.
<mgrwt>
<rscale>  0 0.57351687E+02</rscale>
<asrwt>0</asrwt>
<pdfrwt beam="1">  1        1 0.92710982E-02 0.57351687E+02</pdfrwt>
<pdfrwt beam="2">  1       -1 0.20993000E-02 0.57351687E+02</pdfrwt>
<totfact> 0.33410105E+05</totfact>
</mgrwt>
</event>
<event>
 5    1  0.2734570E+000  0.9256305E+02  0.7818608E-02  0.1296761E+00
         -1   -1    0    0    0  501 -0.00000000000E+00  0.00000000000E+00  0.53895469342E+01  0.53895489574E+01  0.46700000000E-02 0.  1.
          1   -1    0    0  501    0  0.00000000000E+00 -0.00000000000E+00 -0.39743213097E+03  0.39743213100E+03  0.46700000000E-02 0. -1.
         23    2    1    2    0    0  0.00000000000E+00  0.00000000000E+00 -0.39204258404E+03  0.40282167996E+03  0.92563049562E+02 0.  0.
        -13    1    3    3    0    0 -0.45981844171E+02  0.52428532979E+01 -0.19771158289E+03  0.20305590040E+03  0.10570000000E+00 0.  1.
         13    1    3    3    0    0  0.45981844171E+02 -0.52428532979E+01 -0.19433100115E+03  0.19976577956E+03  0.10570000000E+00 0. -1.
<mgrwt>
<rscale>  0 0.92563050E+02</rscale>
<asrwt>0</asrwt>
<pdfrwt beam="2">  1        1 0.61143382E-01 0.92563050E+02</pdfrwt>
<pdfrwt beam="1">  1       -1 0.82916154E-03 0.92563050E+02</pdfrwt>
<totfact> 0.12944996E+05</totfact>
</mgrwt>
</event>
<event>
 5    1  0.2734570E+000  0.9368620E+02  0.7818608E-02  0.1294163E+00
          1   -1    0    0  501    0  0.00000000000E+00  0.00000000000E+00  0.11131816277E+02  0.11131817257E+02  0.46700000000E-02 0. -1.
         -1   -1    0    0    0  501 -0.00000000000E+00 -0.00000000000E+00 -0.19711752482E+03  0.19711752487E+03  0.46700000000E-02 0.  1.
         23    2    1    2    0    0  0.00000000000E+00  0.00000000000E+00 -0.18598570854E+03  0.20824934213E+03  0.93686203445E+02 0.  0.
        -13    1    3    3    0    0  0.45871969892E+02  0.42759589851E+01 -0.11182064915E+03  0.12093961384E+03  0.10570000000E+00 0.  1.
         13    1    3    3    0    0 -0.45871969892E+02 -0.42759589851E+01 -0.74165059391E+02  0.87309728290E+02  0.10570000000E+00 0. -1.
<mgrwt>
<rscale>  0 0.93686203E+02</rscale>
<asrwt>0</asrwt>
<pdfrwt beam="1">  1        1 0.17125873E-02 0.93686203E+02</pdfrwt>
<pdfrwt beam="2">  1       -1 0.30325770E-01 0.93686203E+02</pdfrwt>
<totfact> 0.64944691E+04</totfact>
</mgrwt>
</event>
<event>
 4    1  0.2734570E+000  0.1476061E+03  0.7818608E-02  0.1203446E+00
          1   -1    0    0  501    0  0.00000000000E+00  0.00000000000E+00  0.16403912683E+03  0.16403912690E+03  0.46700000000E-02 0. -1.
         -1   -1    0    0    0  501 -0.00000000000E+00 -0.00000000000E+00 -0.33204824780E+02  0.33204825108E+02  0.46700000000E-02 0.  1.
        -13    1    1    2    0    0 -0.82593166299E+01 -0.25835588132E+02 -0.26302939643E+02  0.37782929104E+02  0.10570000000E+00 0.  1.
         13    1    1    2    0    0  0.82593166299E+01  0.25835588132E+02  0.15713724170E+03  0.15946102290E+03  0.10570000000E+00 0. -1.
<mgrwt>
<rscale>  0 0.14760610E+03</rscale>
<asrwt>0</asrwt>
<pdfrwt beam="1">  1        1 0.25236788E-01 0.14760610E+03</pdfrwt>
<pdfrwt beam="2">  1       -1 0.51084347E-02 0.14760610E+03</pdfrwt>
<totfact> 0.29952379E+04</totfact>
</mgrwt>
</event>
<event>
 5    1  0.2734570E+000  0.9291851E+02  0.7818608E-02  0.1295934E+00
         -1   -1    0    0    0  501 -0.00000000000E+00  0.00000000000E+00  0.62271705570E+02  0.62271705745E+02  0.46700000000E-02 0.  1.
          1   -1    0    0  501    0  0.00000000000E+00 -0.00000000000E+00 -0.34662008323E+02  0.34662008637E+02  0.46700000000E-02 0. -1.
         23    2    1    2    0    0  0.00000000000E+00  0.00000000000E+00  0.27609697247E+02  0.96933714382E+02  0.92918510545E+02 0.  0.
        -13    1    3    3    0    0 -0.30521138947E+02  0.15837759220E+02  0.46397116820E+02  0.57750135597E+02  0.10570000000E+00 0.  1.
         13    1    3    3    0    0  0.30521138947E+02 -0.15837759220E+02 -0.18787419572E+02  0.39183578786E+02  0.10570000000E+00 0. -1.
<mgrwt>
<rscale>  0 0.92918511E+02</rscale>
<asrwt>0</asrwt>
<pdfrwt beam="2">  1        1 0.53326167E-02 0.92918511E+02</pdfrwt>
<pdfrwt beam="1">  1       -1 0.95802624E-02 0.92918511E+02</pdfrwt>
<totfact> 0.84026858E+04</totfact>
</mgrwt>
</event>
<event>
 5    1  0.2734570E+000  0.8847092E+02  0.7818608E-02  0.1306597E+00
         -1   -1    0    0    0  501 -0.00000000000E+00  0.00000000000E+00  0.29390265681E+02  0.29390266052E+02  0.46700000000E-02 0.  1.
          1   -1    0    0  501    0  0.00000000000E+00 -0.00000000000E+00 -0.66579042772E+02  0.66579042936E+02  0.46700000000E-02 0. -1.
         23    2    1    2    0    0  0.00000000000E+00  0.00000000000E+00 -0.37188777092E+02  0.95969308988E+02  0.88470916837E+02 0.  0.
        -13    1    3    3    0    0  0.18313617453E+02  0.30415386831E+02  0.10029187048E+02  0.36892819161E+02  0.10570000000E+00 0.  1.
         13    1    3    3    0    0 -0.18313617453E+02 -0.30415386831E+02 -0.47217964140E+02  0.59076489827E+02  0.10570000000E+00 0. -1.
<mgrwt>
<rscale>  0 0.88470917E+02</rscale>
<asrwt>0</asrwt>
<pdfrwt beam="2">  1        1 0.10242930E-01 0.88470917E+02</pdfrwt>
<pdfrwt beam="1">  1       -1 0.45215794E-02 0.88470917E+02</pdfrwt>
<totfact> 0.10638151E+05</totfact>
</mgrwt>
</event>
<event>
 5    1  0.2734570E+000  0.9125606E+02  0.7818608E-02  0.1299838E+00
          1   -1    0    0  501    0  0.00000000000E+00  0.00000000000E+00  0.18810564565E+03  0.18810564570E+03  0.46700000000E-02 0. -1.
         -1   -1    0    0    0  501 -0.00000000000E+00 -0.00000000000E+00 -0.11067807070E+02  0.11067808055E+02  0.46700000000E-02 0.  1.
         23    2    1    2    0    0  0.00000000000E+00  0.00000000000E+00  0.17703783858E+03  0.19917345376E+03  0.91256059495E+02 0.  0.
        -13    1    3    3    0    0  0.86314750640E+01 -0.28427921513E+02  0.12935620032E+02  0.32403557234E+02  0.10570000000E+00 0.  1.
         13    1    3    3    0    0 -0.86314750640E+01  0.28427921513E+02  0.16410221854E+03  0.16676989653E+03  0.10570000000E+00 0. -1.
<mgrwt>
<rscale>  0 0.91256059E+02</rscale>
<asrwt>0</asrwt>
<pdfrwt beam="1">  1        1 0.28939329E-01 0.91256059E+02</pdfrwt>
<pdfrwt beam="2">  1       -1 0.17027397E-02 0.91256059E+02</pdfrwt>
<totfact> 0.11673839E+05</totfact>
</mgrwt>
</event>
<event>
 5    1  0.2734570E+000  0.8637635E+02  0.7818608E-02  0.1311872E+00
          1   -1    0    0  501    0  0.00000000000E+00  0.00000000000E+00  0.30832763441E+02  0.30832763795E+02  0.46700000000E-02 0. -1.
         -1   -1    0    0    0  501 -0.00000000000E+00 -0.00000000000E+00 -0.60494690542E+02  0.60494690722E+02  0.46700000000E-02 0.  1.
         23    2    1    2    0    0  0.00000000000E+00  0.00000000000E+00 -0.29661927100E+02  0.91327454517E+02  0.86376351100E+02 0.  0.
        -13    1    3    3    0    0  0.18762480711E+02 -0.38236640096E+02 -0.22391801046E+02  0.48119385437E+02  0.10570000000E+00 0.  1.
         13    1    3    3    0    0 -0.18762480711E+02  0.38236640096E+02 -0.72701260546E+01  0.43208069080E+02  0.10570000000E+00 0. -1.
<mgrwt>
<rscale>  0 0.86376351E+02</rscale>
<asrwt>0</asrwt>
<pdfrwt beam="1">  1        1 0.47435021E-02 0.86376351E+02</pdfrwt>
<pdfrwt beam="2">  1       -1 0.93068755E-02 0.86376351E+02</pdfrwt>
<totfact> 0.10157367E+05</totfact>
</mgrwt>
</event>
<event>
 5    1  0.2734570E+000  0.8854644E+02  0.7818608E-02  0.1306410E+00
         -1   -1    0    0    0  501 -0.00000000000E+00  0.00000000000E+00  0.62477172298E+02  0.62477172473E+02  0.46700000000E-02 0.  1.
          1   -1    0    0  501    0  0.00000000000E+00 -0.00000000000E+00 -0.31373343580E+02  0.31373343928E+02  0.46700000000E-02 0. -1.
         23    2    1    2    0    0  0.00000000000E+00  0.00000000000E+00  0.31103828718E+02  0.93850516401E+02  0.88546435658E+02 0.  0.
        -13    1    3    3    0    0  0.44133108068E+02 -0.28794144439E+01  0.13409866645E+02  0.46215343245E+02  0.10570000000E+00 0. -1.
         13    1    3    3    0    0 -0.44133108068E+02  0.28794144439E+01  0.17693962073E+02  0.47635173156E+02  0.10570000000E+00 0.  1.
<mgrwt>
<rscale>  0 0.88546436E+02</rscale>
<asrwt>0</asrwt>
<pdfrwt beam="2">  1        1 0.48266683E-02 0.88546436E+02</pdfrwt>
<pdfrwt beam="1">  1       -1 0.96118726E-02 0.88546436E+02</pdfrwt>
<totfact> 0.94913566E+04</totfact>
</mgrwt>
</event>
<event>
 5    1  0.2734570E+000  0.9058932E+02  0.7818608E-02  0.1301431E+00
         -1   -1    0    0    0  501 -0.00000000000E+00  0.00000000000E+00  0.77871633460E+02  0.77871633600E+02  0.46700000000E-02 0.  1.
          1   -1    0    0  501    0  0.00000000000E+00 -0.00000000000E+00 -0.26346004660E+02  0.26346005074E+02  0.46700000000E-02 0. -1.
         23    2    1    2    0    0  0.00000000000E+00  0.00000000000E+00  0.51525628800E+02  0.10421763867E+03  0.90589324909E+02 0.  0.
        -13    1    3    3    0    0 -0.35520388793E+02  0.51442528746E+01  0.57549842861E+02  0.67824456823E+02  0.10570000000E+00 0.  1.
         13    1    3    3    0    0  0.35520388793E+02 -0.51442528746E+01 -0.60242140602E+01  0.36393181850E+02  0.10570000000E+00 0. -1.
<mgrwt>
<rscale>  0 0.90589325E+02</rscale>
<asrwt>0</asrwt>
<pdfrwt beam="2">  1        1 0.40532316E-02 0.90589325E+02</pdfrwt>
<pdfrwt beam="1">  1       -1 0.11980251E-01 0.90589325E+02</pdfrwt>
<totfact> 0.86452414E+04</totfact>
</mgrwt>
</event>
<event>
 5    1  0.2734570E+000  0.9276648E+02  0.7818608E-02  0.1296287E+00
         -1   -1    0    0    0  501 -0.00000000000E+00  0.00000000000E+00  0.34295913411E+02  0.34295913729E+02  0.46700000000E-02 0.  1.
          1   -1    0    0  501    0  0.00000000000E+00 -0.00000000000E+00 -0.62730643636E+02  0.62730643810E+02  0.46700000000E-02 0. -1.
         23    2    1    2    0    0  0.00000000000E+00  0.00000000000E+00 -0.28434730226E+02  0.97026557539E+02  0.92766475544E+02 0.  0.
        -13    1    3    3    0    0 -0.44884189680E+02  0.91888796054E+01 -0.21786231302E+02  0.50731420623E+02  0.10570000000E+00 0. -1.
         13    1    3    3    0    0  0.44884189680E+02 -0.91888796054E+01 -0.66484989233E+01  0.46295136916E+02  0.10570000000E+00 0.  1.
<mgrwt>
<rscale>  0 0.92766476E+02</rscale>
<asrwt>0</asrwt>
<pdfrwt beam="2">  1        1 0.96508682E-02 0.92766476E+02</pdfrwt>
<pdfrwt beam="1">  1       -1 0.52762944E-02 0.92766476E+02</pdfrwt>
<totfact> 0.92479852E+04</totfact>
</mgrwt>
</event>
<event>
 5    1  0.2734570E+000  0.9183729E+02  0.7818608E-02  0.1298462E+00
         -1   -1    0    0    0  501 -0.00000000000E+00  0.00000000000E+00  0.19430504111E+02  0.19430504672E+02  0.46700000000E-02 0.  1.
          1   -1    0    0  501    0  0.00000000000E+00 -0.00000000000E+00 -0.10851607931E+03  0.10851607941E+03  0.46700000000E-02 0. -1.
         23    2    1    2    0    0  0.00000000000E+00  0.00000000000E+00 -0.89085575195E+02  0.12794658408E+03  0.91837294546E+02 0.  0.
        -13    1    3    3    0    0 -0.35134136869E+02 -0.29401963087E+02 -0.40219865759E+02  0.60963364253E+02  0.10570000000E+00 0. -1.
         13    1    3    3    0    0  0.35134136869E+02  0.29401963087E+02 -0.48865709436E+02  0.66983219825E+02  0.10570000000E+00 0.  1.
<mgrwt>
<rscale>  0 0.91837295E+02</rscale>
<asrwt>0</asrwt>
<pdfrwt beam="2">  1        1 0.16694781E-01 0.91837295E+02</pdfrwt>
<pdfrwt beam="1">  1       -1 0.29893084E-02 0.91837295E+02</pdfrwt>
<totfact> 0.10383386E+05</totfact>
</mgrwt>
</event>
<event>
 5    1  0.2734570E+000  0.9325686E+02  0.7818608E-02  0.1295151E+00
          1   -1    0    0  501    0  0.00000000000E+00  0.00000000000E+00  0.16213817432E+02  0.16213818105E+02  0.46700000000E-02 0. -1.
         -1   -1    0    0    0  501 -0.00000000000E+00 -0.00000000000E+00 -0.13409614619E+03  0.13409614627E+03  0.46700000000E-02 0.  1.
         23    2    1    2    0    0  0.00000000000E+00  0.00000000000E+00 -0.11788232876E+03  0.15030996438E+03  0.93256860109E+02 0.  0.
        -13    1    3    3    0    0  0.13466408915E+01 -0.44823919548E+02 -0.38350523243E+02  0.59006533629E+02  0.10570000000E+00 0. -1.
         13    1    3    3    0    0 -0.13466408915E+01  0.44823919548E+02 -0.79531805514E+02  0.91303430747E+02  0.10570000000E+00 0.  1.
<mgrwt>
<rscale>  0 0.93256860E+02</rscale>
<asrwt>0</asrwt>
<pdfrwt beam="1">  1        1 0.24944336E-02 0.93256860E+02</pdfrwt>
<pdfrwt beam="2">  1       -1 0.20630176E-01 0.93256860E+02</pdfrwt>
<totfact> 0.72348048E+04</totfact>
</mgrwt>
</event>
<event>
 5    1  0.2734570E+000  0.1109413E+03  0.7818608E-02  0.1258837E+00
         -1   -1    0    0    0  501 -0.00000000000E+00  0.00000000000E+00  0.17234561626E+02  0.17234562259E+02  0.46700000000E-02 0.  1.
          1   -1    0    0  501    0  0.00000000000E+00 -0.00000000000E+00 -0.17853614078E+03  0.17853614084E+03  0.46700000000E-02 0. -1.
         23    2    1    2    0    0  0.00000000000E+00  0.00000000000E+00 -0.16130157915E+03  0.19577070310E+03  0.11094128517E+03 0.  0.
        -13    1    3    3    0    0  0.26762553166E+02  0.40373161816E+02 -0.32948384302E+02  0.58581854252E+02  0.10570000000E+00 0.  1.
         13    1    3    3    0    0 -0.26762553166E+02 -0.40373161816E+02 -0.12835319485E+03  0.13718884885E+03  0.10570000000E+00 0. -1.
<mgrwt>
<rscale>  0 0.11094129E+03</rscale>
<asrwt>0</asrwt>
<pdfrwt beam="2">  1        1 0.27467097E-01 0.11094129E+03</pdfrwt>
<pdfrwt beam="1">  1       -1 0.26514712E-02 0.11094129E+03</pdfrwt>
<totfact> 0.67948609E+04</totfact>
</mgrwt>
</event>
<event>
 5    1  0.2734570E+000  0.9207326E+02  0.7818608E-02  0.1297907E+00
         -1   -1    0    0    0  501 -0.00000000000E+00  0.00000000000E+00  0.93820446188E+01  0.93820457810E+01  0.46700000000E-02 0.  1.
          1   -1    0    0  501    0  0.00000000000E+00 -0.00000000000E+00 -0.22589653520E+03  0.22589653525E+03  0.46700000000E-02 0. -1.
         23    2    1    2    0    0  0.00000000000E+00  0.00000000000E+00 -0.21651449058E+03  0.23527858103E+03  0.92073264630E+02 0.  0.
        -13    1    3    3    0    0  0.15940790406E+02 -0.29933002696E+02 -0.28701684834E+02  0.44428496868E+02  0.10570000000E+00 0.  1.
         13    1    3    3    0    0 -0.15940790406E+02  0.29933002696E+02 -0.18781280575E+03  0.19085008416E+03  0.10570000000E+00 0. -1.
<mgrwt>
<rscale>  0 0.92073265E+02</rscale>
<asrwt>0</asrwt>
<pdfrwt beam="2">  1        1 0.34753309E-01 0.92073265E+02</pdfrwt>
<pdfrwt beam="1">  1       -1 0.14433917E-02 0.92073265E+02</pdfrwt>
<totfact> 0.11811053E+05</totfact>
</mgrwt>
</event>
<event>
 5    1  0.2734570E+000  0.8069967E+02  0.7818608E-02  0.1327078E+00
         -1   -1    0    0    0  501 -0.00000000000E+00  0.00000000000E+00  0.30811533615E+02  0.30811533969E+02  0.46700000000E-02 0.  1.
          1   -1    0    0  501    0  0.00000000000E+00 -0.00000000000E+00 -0.52840897507E+02  0.52840897714E+02  0.46700000000E-02 0. -1.
         23    2    1    2    0    0  0.00000000000E+00  0.00000000000E+00 -0.22029363893E+02  0.83652431682E+02  0.80699668233E+02 0.  0.
        -13    1    3    3    0    0  0.27189214334E+02  0.26917335823E+02  0.22723418512E+01  0.38327158176E+02  0.10570000000E+00 0. -1.
         13    1    3    3    0    0 -0.27189214334E+02 -0.26917335823E+02 -0.24301705744E+02  0.45325273506E+02  0.10570000000E+00 0.  1.
<mgrwt>
<rscale>  0 0.80699668E+02</rscale>
<asrwt>0</asrwt>
<pdfrwt beam="2">  1        1 0.81293689E-02 0.80699668E+02</pdfrwt>
<pdfrwt beam="1">  1       -1 0.47402360E-02 0.80699668E+02</pdfrwt>
<totfact> 0.13242814E+05</totfact>
</mgrwt>
</event>
<event>
 5    1  0.2734570E+000  0.8968609E+02  0.7818608E-02  0.1303614E+00
         -1   -1    0    0    0  501 -0.00000000000E+00  0.00000000000E+00  0.80562564979E+02  0.80562565114E+02  0.46700000000E-02 0.  1.
          1   -1    0    0  501    0  0.00000000000E+00 -0.00000000000E+00 -0.24960706719E+02  0.24960707156E+02  0.46700000000E-02 0. -1.
         23    2    1    2    0    0  0.00000000000E+00  0.00000000000E+00  0.55601858259E+02  0.10552327227E+03  0.89686087821E+02 0.  0.
        -13    1    3    3    0    0  0.30191552488E+02 -0.28546789651E+02  0.47644382887E+02  0.63217461466E+02  0.10570000000E+00 0. -1.
         13    1    3    3    0    0 -0.30191552488E+02  0.28546789651E+02  0.79574753728E+01  0.42305810805E+02  0.10570000000E+00 0.  1.
<mgrwt>
<rscale>  0 0.89686088E+02</rscale>
<asrwt>0</asrwt>
<pdfrwt beam="2">  1        1 0.38401087E-02 0.89686088E+02</pdfrwt>
<pdfrwt beam="1">  1       -1 0.12394241E-01 0.89686088E+02</pdfrwt>
<totfact> 0.88191454E+04</totfact>
</mgrwt>
</event>
<event>
 5    1  0.2734570E+000  0.9168010E+02  0.7818608E-02  0.1298833E+00
         -1   -1    0    0    0  501 -0.00000000000E+00  0.00000000000E+00  0.78636154099E+01  0.78636167966E+01  0.46700000000E-02 0.  1.
          1   -1    0    0  501    0  0.00000000000E+00 -0.00000000000E+00 -0.26721932660E+03  0.26721932664E+03  0.46700000000E-02 0. -1.
         23    2    1    2    0    0  0.00000000000E+00  0.00000000000E+00 -0.25935571119E+03  0.27508294344E+03  0.91680100586E+02 0.  0.
        -13    1    3    3    0    0 -0.35972155828E+00 -0.42410890819E+02 -0.77493394149E+02  0.88340536386E+02  0.10570000000E+00 0.  1.
         13    1    3    3    0    0  0.35972155828E+00  0.42410890819E+02 -0.18186231704E+03  0.18674240706E+03  0.10570000000E+00 0. -1.
<mgrwt>
<rscale>  0 0.91680101E+02</rscale>
<asrwt>0</asrwt>
<pdfrwt beam="2">  1        1 0.41110659E-01 0.91680101E+02</pdfrwt>
<pdfrwt beam="1">  1       -1 0.12097873E-02 0.91680101E+02</pdfrwt>
<totfact> 0.12346014E+05</totfact>
</mgrwt>
</event>
<event>
 5    1  0.2734570E+000  0.8909761E+02  0.7818608E-02  0.1305052E+00
         -1   -1    0    0    0  501 -0.00000000000E+00  0.00000000000E+00  0.39618645729E+02  0.39618646004E+02  0.46700000000E-02 0.  1.
          1   -1    0    0  501    0  0.00000000000E+00 -0.00000000000E+00 -0.50092479642E+02  0.50092479859E+02  0.46700000000E-02 0. -1.
         23    2    1    2    0    0  0.00000000000E+00  0.00000000000E+00 -0.10473833913E+02  0.89711125864E+02  0.89097614485E+02 0.  0.
        -13    1    3    3    0    0 -0.24925814776E+02 -0.26392258950E+02 -0.31235978091E+02  0.47890970699E+02  0.10570000000E+00 0. -1.
         13    1    3    3    0    0  0.24925814776E+02  0.26392258950E+02  0.20762144178E+02  0.41820155165E+02  0.10570000000E+00 0.  1.
<mgrwt>
<rscale>  0 0.89097614E+02</rscale>
<asrwt>0</asrwt>
<pdfrwt beam="2">  1        1 0.77065354E-02 0.89097614E+02</pdfrwt>
<pdfrwt beam="1">  1       -1 0.60951763E-02 0.89097614E+02</pdfrwt>
<totfact> 0.10001894E+05</totfact>
</mgrwt>
</event>
<event>
 5    1  0.2734570E+000  0.9377260E+02  0.7818608E-02  0.1293965E+00
          1   -1    0    0  501    0  0.00000000000E+00  0.00000000000E+00  0.45615317585E+02  0.45615317824E+02  0.46700000000E-02 0. -1.
         -1   -1    0    0    0  501 -0.00000000000E+00 -0.00000000000E+00 -0.48192698992E+02  0.48192699219E+02  0.46700000000E-02 0.  1.
         23    2    1    2    0    0  0.00000000000E+00  0.00000000000E+00 -0.25773814076E+01  0.93808017043E+02  0.93772603497E+02 0.  0.
        -13    1    3    3    0    0  0.28017142276E+02 -0.48541588836E+01  0.36005288921E+02  0.45879353990E+02  0.10570000000E+00 0. -1.
         13    1    3    3    0    0 -0.28017142276E+02  0.48541588836E+01 -0.38582670329E+02  0.47928663052E+02  0.10570000000E+00 0.  1.
<mgrwt>
<rscale>  0 0.93772603E+02</rscale>
<asrwt>0</asrwt>
<pdfrwt beam="1">  1        1 0.70177412E-02 0.93772603E+02</pdfrwt>
<pdfrwt beam="2">  1       -1 0.74142614E-02 0.93772603E+02</pdfrwt>
<totfact> 0.85451529E+04</totfact>
</mgrwt>
</event>
<event>
 5    1  0.2734570E+000  0.9167921E+02  0.7818608E-02  0.1298835E+00
         -1   -1    0    0    0  501 -0.00000000000E+00  0.00000000000E+00  0.75646014462E+01  0.75646028877E+01  0.46700000000E-02 0.  1.
          1   -1    0    0  501    0  0.00000000000E+00 -0.00000000000E+00 -0.27777657284E+03  0.27777657288E+03  0.46700000000E-02 0. -1.
         23    2    1    2    0    0  0.00000000000E+00  0.00000000000E+00 -0.27021197139E+03  0.28534117576E+03  0.91679207585E+02 0.  0.
        -13    1    3    3    0    0  0.26959793801E+02  0.30389465362E+02 -0.69015708429E+02  0.80084513292E+02  0.10570000000E+00 0. -1.
         13    1    3    3    0    0 -0.26959793801E+02 -0.30389465362E+02 -0.20119626296E+03  0.20525666247E+03  0.10570000000E+00 0.  1.
<mgrwt>
<rscale>  0 0.91679208E+02</rscale>
<asrwt>0</asrwt>
<pdfrwt beam="2">  1        1 0.42734850E-01 0.91679208E+02</pdfrwt>
<pdfrwt beam="1">  1       -1 0.11637852E-02 0.91679208E+02</pdfrwt>
<totfact> 0.12439933E+05</totfact>
</mgrwt>
</event>
<event>
 5    1  0.2734570E+000  0.9057227E+02  0.7818608E-02  0.1301472E+00
          1   -1    0    0  501    0  0.00000000000E+00  0.00000000000E+00  0.22847282324E+02  0.22847282801E+02  0.46700000000E-02 0. -1.
         -1   -1    0    0    0  501 -0.00000000000E+00 -0.00000000000E+00 -0.89762715674E+02  0.89762715796E+02  0.46700000000E-02 0.  1.
         23    2    1    2    0    0  0.00000000000E+00  0.00000000000E+00 -0.66915433350E+02  0.11260999860E+03  0.90572272598E+02 0.  0.
        -13    1    3    3    0    0 -0.35052988323E+02  0.24545160139E+02 -0.15031192210E+02  0.45355537571E+02  0.10570000000E+00 0. -1.
         13    1    3    3    0    0  0.35052988323E+02 -0.24545160139E+02 -0.51884241140E+02  0.67254461025E+02  0.10570000000E+00 0.  1.
<mgrwt>
<rscale>  0 0.90572273E+02</rscale>
<asrwt>0</asrwt>
<pdfrwt beam="1">  1        1 0.35149666E-02 0.90572273E+02</pdfrwt>
<pdfrwt beam="2">  1       -1 0.13809648E-01 0.90572273E+02</pdfrwt>
<totfact> 0.84409899E+04</totfact>
</mgrwt>
</event>
<event>
 5    1  0.2734570E+000  0.9456924E+02  0.7818608E-02  0.1292149E+00
          1   -1    0    0  501    0  0.00000000000E+00  0.00000000000E+00  0.74820039263E+02  0.74820039409E+02  0.46700000000E-02 0. -1.
         -1   -1    0    0    0  501 -0.00000000000E+00 -0.00000000000E+00 -0.29882839834E+02  0.29882840199E+02  0.46700000000E-02 0.  1.
         23    2    1    2    0    0  0.00000000000E+00  0.00000000000E+00  0.44937199429E+02  0.10470287961E+03  0.94569239744E+02 0.  0.
        -13    1    3    3    0    0  0.43228340329E+01  0.26159430163E+02  0.65815146924E+02  0.70955249401E+02  0.10570000000E+00 0. -1.
         13    1    3    3    0    0 -0.43228340329E+01 -0.26159430163E+02 -0.20877947495E+02  0.33747630207E+02  0.10570000000E+00 0.  1.
<mgrwt>
<rscale>  0 0.94569240E+02</rscale>
<asrwt>0</asrwt>
<pdfrwt beam="1">  1        1 0.11510775E-01 0.94569240E+02</pdfrwt>
<pdfrwt beam="2">  1       -1 0.45973600E-02 0.94569240E+02</pdfrwt>
<totfact> 0.90127236E+04</totfact>
</mgrwt>
</event>
<event>
 5    1  0.2734570E+000  0.9743935E+02  0.7818608E-02  0.1285775E+00
          1   -1    0    0  501    0  0.00000000000E+00  0.00000000000E+00  0.74026799089E+02  0.74026799237E+02  0.46700000000E-02 0. -1.
         -1   -1    0    0    0  501 -0.00000000000E+00 -0.00000000000E+00 -0.32064154650E+02  0.32064154990E+02  0.46700000000E-02 0.  1.
         23    2    1    2    0    0  0.00000000000E+00  0.00000000000E+00  0.41962644439E+02  0.10609095423E+03  0.97439350575E+02 0.  0.
        -13    1    3    3    0    0  0.29716789741E+01 -0.16962336016E+02 -0.28639826000E+02  0.33418595495E+02  0.10570000000E+00 0.  1.
         13    1    3    3    0    0 -0.29716789741E+01  0.16962336016E+02  0.70602470439E+02  0.72672358732E+02  0.10570000000E+00 0. -1.
<mgrwt>
<rscale>  0 0.97439351E+02</rscale>
<asrwt>0</asrwt>
<pdfrwt beam="1">  1        1 0.11388738E-01 0.97439351E+02</pdfrwt>
<pdfrwt beam="2">  1       -1 0.49329470E-02 0.97439351E+02</pdfrwt>
<totfact> 0.82811835E+04</totfact>
</mgrwt>
</event>
<event>
 5    1  0.2734570E+000  0.8987114E+02  0.7818608E-02  0.1303164E+00
          1   -1    0    0  501    0  0.00000000000E+00  0.00000000000E+00  0.17498269523E+03  0.17498269530E+03  0.46700000000E-02 0. -1.
         -1   -1    0    0    0  501 -0.00000000000E+00 -0.00000000000E+00 -0.11539458336E+02  0.11539459281E+02  0.46700000000E-02 0.  1.
         23    2    1    2    0    0  0.00000000000E+00  0.00000000000E+00  0.16344323690E+03  0.18652215458E+03  0.89871143646E+02 0.  0.
        -13    1    3    3    0    0  0.59125771039E+01  0.36578035486E+02  0.28959577496E+02  0.47027434007E+02  0.10570000000E+00 0.  1.
         13    1    3    3    0    0 -0.59125771039E+01 -0.36578035486E+02  0.13448365940E+03  0.13949472057E+03  0.10570000000E+00 0. -1.
<mgrwt>
<rscale>  0 0.89871144E+02</rscale>
<asrwt>0</asrwt>
<pdfrwt beam="1">  1        1 0.26920414E-01 0.89871144E+02</pdfrwt>
<pdfrwt beam="2">  1       -1 0.17753014E-02 0.89871144E+02</pdfrwt>
<totfact> 0.11995980E+05</totfact>
</mgrwt>
</event>
<event>
 5    1  0.2734570E+000  0.8949864E+02  0.7818608E-02  0.1304070E+00
         -1   -1    0    0    0  501 -0.00000000000E+00  0.00000000000E+00  0.50099423869E+02  0.50099424087E+02  0.46700000000E-02 0.  1.
          1   -1    0    0  501    0  0.00000000000E+00 -0.00000000000E+00 -0.39970552913E+02  0.39970553186E+02  0.46700000000E-02 0. -1.
         23    2    1    2    0    0  0.00000000000E+00  0.00000000000E+00  0.10128870956E+02  0.90069977273E+02  0.89498641214E+02 0.  0.
        -13    1    3    3    0    0  0.29744373012E+02  0.31888662579E+02 -0.50433851827E+01  0.43898307866E+02  0.10570000000E+00 0. -1.
         13    1    3    3    0    0 -0.29744373012E+02 -0.31888662579E+02  0.15172256139E+02  0.46171669406E+02  0.10570000000E+00 0.  1.
<mgrwt>
<rscale>  0 0.89498641E+02</rscale>
<asrwt>0</asrwt>
<pdfrwt beam="2">  1        1 0.61493158E-02 0.89498641E+02</pdfrwt>
<pdfrwt beam="1">  1       -1 0.77076037E-02 0.89498641E+02</pdfrwt>
<totfact> 0.95525942E+04</totfact>
</mgrwt>
</event>
<event>
 5    1  0.2734570E+000  0.9198088E+02  0.7818608E-02  0.1298124E+00
          1   -1    0    0  501    0  0.00000000000E+00  0.00000000000E+00  0.32159856803E+02  0.32159857142E+02  0.46700000000E-02 0. -1.
         -1   -1    0    0    0  501 -0.00000000000E+00 -0.00000000000E+00 -0.65768965975E+02  0.65768966141E+02  0.46700000000E-02 0.  1.
         23    2    1    2    0    0  0.00000000000E+00  0.00000000000E+00 -0.33609109172E+02  0.97928823283E+02  0.91980879591E+02 0.  0.
        -13    1    3    3    0    0  0.36830866954E+02  0.50455905748E+01  0.12022882374E+02  0.39070853816E+02  0.10570000000E+00 0. -1.
         13    1    3    3    0    0 -0.36830866954E+02 -0.50455905748E+01 -0.45631991546E+02  0.58857969467E+02  0.10570000000E+00 0.  1.
<mgrwt>
<rscale>  0 0.91980880E+02</rscale>
<asrwt>0</asrwt>
<pdfrwt beam="1">  1        1 0.49476703E-02 0.91980880E+02</pdfrwt>
<pdfrwt beam="2">  1       -1 0.10118302E-01 0.91980880E+02</pdfrwt>
<totfact> 0.85476116E+04</totfact>
</mgrwt>
</event>
<event>
 5    1  0.2734570E+000  0.7001305E+02  0.7818608E-02  0.1360049E+00
          1   -1    0    0  501    0  0.00000000000E+00  0.00000000000E+00  0.90123392227E+02  0.90123392348E+02  0.46700000000E-02 0. -1.
         -1   -1    0    0    0  501 -0.00000000000E+00 -0.00000000000E+00 -0.13597544191E+02  0.13597544993E+02  0.46700000000E-02 0.  1.
         23    2    1    2    0    0  0.00000000000E+00  0.00000000000E+00  0.76525848036E+02  0.10372093734E+03  0.70013051821E+02 0.  0.
        -13    1    3    3    0    0 -0.28085954585E+02  0.14290168850E+02  0.15677910528E+02  0.35197128033E+02  0.10570000000E+00 0.  1.
         13    1    3    3    0    0  0.28085954585E+02 -0.14290168850E+02  0.60847937507E+02  0.68523809308E+02  0.10570000000E+00 0. -1.
<mgrwt>
<rscale>  0 0.70013052E+02</rscale>
<asrwt>0</asrwt>
<pdfrwt beam="1">  1        1 0.13865137E-01 0.70013052E+02</pdfrwt>
<pdfrwt beam="2">  1       -1 0.20919300E-02 0.70013052E+02</pdfrwt>
<totfact> 0.20872887E+05</totfact>
</mgrwt>
</event>
<event>
 5    1  0.2734570E+000  0.9944260E+02  0.7818608E-02  0.1281472E+00
         -1   -1    0    0    0  501 -0.00000000000E+00  0.00000000000E+00  0.40271709677E+02  0.40271709948E+02  0.46700000000E-02 0.  1.
          1   -1    0    0  501    0  0.00000000000E+00 -0.00000000000E+00 -0.61388198409E+02  0.61388198586E+02  0.46700000000E-02 0. -1.
         23    2    1    2    0    0  0.00000000000E+00  0.00000000000E+00 -0.21116488732E+02  0.10165990853E+03  0.99442601066E+02 0.  0.
        -13    1    3    3    0    0 -0.30393067079E+02 -0.16245278132E+02  0.26081511495E+02  0.43219254996E+02  0.10570000000E+00 0.  1.
         13    1    3    3    0    0  0.30393067079E+02  0.16245278132E+02 -0.47198000227E+02  0.58440653538E+02  0.10570000000E+00 0. -1.
<mgrwt>
<rscale>  0 0.99442601E+02</rscale>
<asrwt>0</asrwt>
<pdfrwt beam="2">  1        1 0.94443383E-02 0.99442601E+02</pdfrwt>
<pdfrwt beam="1">  1       -1 0.61956476E-02 0.99442601E+02</pdfrwt>
<totfact> 0.75900754E+04</totfact>
</mgrwt>
</event>
<event>
 5    1  0.2734570E+000  0.9109226E+02  0.7818608E-02  0.1300228E+00
         -1   -1    0    0    0  501 -0.00000000000E+00  0.00000000000E+00  0.13131108523E+03  0.13131108531E+03  0.46700000000E-02 0.  1.
          1   -1    0    0  501    0  0.00000000000E+00 -0.00000000000E+00 -0.15797978728E+02  0.15797979419E+02  0.46700000000E-02 0. -1.
         23    2    1    2    0    0  0.00000000000E+00  0.00000000000E+00  0.11551310650E+03  0.14710906473E+03  0.91092256271E+02 0.  0.
        -13    1    3    3    0    0  0.39659194312E+02  0.22329723811E+02  0.54973238795E+02  0.71369015791E+02  0.10570000000E+00 0.  1.
         13    1    3    3    0    0 -0.39659194312E+02 -0.22329723811E+02  0.60539867708E+02  0.75740048941E+02  0.10570000000E+00 0. -1.
<mgrwt>
<rscale>  0 0.91092256E+02</rscale>
<asrwt>0</asrwt>
<pdfrwt beam="2">  1        1 0.24304583E-02 0.91092256E+02</pdfrwt>
<pdfrwt beam="1">  1       -1 0.20201705E-01 0.91092256E+02</pdfrwt>
<totfact> 0.77243915E+04</totfact>
</mgrwt>
</event>
<event>
 5    1  0.2734570E+000  0.9096358E+02  0.7818608E-02  0.1300535E+00
         -1   -1    0    0    0  501 -0.00000000000E+00  0.00000000000E+00  0.60239796109E+01  0.60239814211E+01  0.46700000000E-02 0. -1.
          1   -1    0    0  501    0  0.00000000000E+00 -0.00000000000E+00 -0.34339304388E+03  0.34339304391E+03  0.46700000000E-02 0.  1.
         23    2    1    2    0    0  0.00000000000E+00  0.00000000000E+00 -0.33736906426E+03  0.34941702533E+03  0.90963575493E+02 0.  0.
        -13    1    3    3    0    0  0.26721686782E+02 -0.36781524873E+02 -0.17362282893E+03  0.17947653612E+03  0.10570000000E+00 0. -1.
         13    1    3    3    0    0 -0.26721686782E+02  0.36781524873E+02 -0.16374623533E+03  0.16994048921E+03  0.10570000000E+00 0.  1.
<mgrwt>
<rscale>  0 0.90963575E+02</rscale>
<asrwt>0</asrwt>
<pdfrwt beam="2">  1        1 0.52829684E-01 0.90963575E+02</pdfrwt>
<pdfrwt beam="1">  1       -1 0.92676650E-03 0.90963575E+02</pdfrwt>
<totfact> 0.13220322E+05</totfact>
</mgrwt>
</event>
<event>
 5    1  0.2734570E+000  0.8702734E+02  0.7818608E-02  0.1310214E+00
         -1   -1    0    0    0  501 -0.00000000000E+00  0.00000000000E+00  0.11634592377E+03  0.11634592386E+03  0.46700000000E-02 0.  1.
          1   -1    0    0  501    0  0.00000000000E+00 -0.00000000000E+00 -0.16274221079E+02  0.16274221750E+02  0.46700000000E-02 0. -1.
         23    2    1    2    0    0  0.00000000000E+00  0.00000000000E+00  0.10007170269E+03  0.13262014561E+03  0.87027336756E+02 0.  0.
        -13    1    3    3    0    0  0.16648367759E+02  0.34860052537E+02  0.19518566322E+02  0.43282525524E+02  0.10570000000E+00 0. -1.
         13    1    3    3    0    0 -0.16648367759E+02 -0.34860052537E+02  0.80553136364E+02  0.89337620086E+02  0.10570000000E+00 0.  1.
<mgrwt>
<rscale>  0 0.87027337E+02</rscale>
<asrwt>0</asrwt>
<pdfrwt beam="2">  1        1 0.25037264E-02 0.87027337E+02</pdfrwt>
<pdfrwt beam="1">  1       -1 0.17899373E-01 0.87027337E+02</pdfrwt>
<totfact> 0.89111167E+04</totfact>
</mgrwt>
</event>
<event>
 5    1  0.2734570E+000  0.9359400E+02  0.7818608E-02  0.1294375E+00
         -1   -1    0    0    0  501 -0.00000000000E+00  0.00000000000E+00  0.31136447369E+02  0.31136447719E+02  0.46700000000E-02 0.  1.
          1   -1    0    0  501    0  0.00000000000E+00 -0.00000000000E+00 -0.70334265823E+02  0.70334265978E+02  0.46700000000E-02 0. -1.
         23    2    1    2    0    0  0.00000000000E+00  0.00000000000E+00 -0.39197818454E+02  0.10147071370E+03  0.93593999629E+02 0.  0.
        -13    1    3    3    0    0  0.24133304291E+01 -0.12826558339E+02 -0.68320980128E+02  0.69556540029E+02  0.10570000000E+00 0. -1.
         13    1    3    3    0    0 -0.24133304291E+01  0.12826558339E+02  0.29123161674E+02  0.31914173669E+02  0.10570000000E+00 0.  1.
<mgrwt>
<rscale>  0 0.93594000E+02</rscale>
<asrwt>0</asrwt>
<pdfrwt beam="2">  1        1 0.10820656E-01 0.93594000E+02</pdfrwt>
<pdfrwt beam="1">  1       -1 0.47902227E-02 0.93594000E+02</pdfrwt>
<totfact> 0.91848019E+04</totfact>
</mgrwt>
</event>
<event>
 5    1  0.2734570E+000  0.8964999E+02  0.7818608E-02  0.1303702E+00
         -1   -1    0    0    0  501 -0.00000000000E+00  0.00000000000E+00  0.14018923056E+02  0.14018923834E+02  0.46700000000E-02 0.  1.
          1   -1    0    0  501    0  0.00000000000E+00 -0.00000000000E+00 -0.14332628004E+03  0.14332628012E+03  0.46700000000E-02 0. -1.
         23    2    1    2    0    0  0.00000000000E+00  0.00000000000E+00 -0.12930735698E+03  0.15734520395E+03  0.89649989605E+02 0.  0.
        -13    1    3    3    0    0 -0.32963944037E+02 -0.97064761642E-01 -0.11796493580E+03  0.12248415522E+03  0.10570000000E+00 0. -1.
         13    1    3    3    0    0  0.32963944037E+02  0.97064761642E-01 -0.11342421182E+02  0.34861048734E+02  0.10570000000E+00 0.  1.
<mgrwt>
<rscale>  0 0.89649990E+02</rscale>
<asrwt>0</asrwt>
<pdfrwt beam="2">  1        1 0.22050196E-01 0.89649990E+02</pdfrwt>
<pdfrwt beam="1">  1       -1 0.21567576E-02 0.89649990E+02</pdfrwt>
<totfact> 0.11638296E+05</totfact>
</mgrwt>
</event>
<event>
 5    1  0.2734570E+000  0.9320040E+02  0.7818608E-02  0.1295281E+00
          1   -1    0    0  501    0  0.00000000000E+00  0.00000000000E+00  0.72449915642E+01  0.72449930693E+01  0.46700000000E-02 0. -1.
         -1   -1    0    0    0  501 -0.00000000000E+00 -0.00000000000E+00 -0.29973510238E+03  0.29973510242E+03  0.46700000000E-02 0.  1.
         23    2    1    2    0    0  0.00000000000E+00  0.00000000000E+00 -0.29249011082E+03  0.30698009549E+03  0.93200397528E+02 0.  0.
        -13    1    3    3    0    0 -0.41194248101E+02  0.18662695045E+02 -0.18326219676E+03  0.18875991682E+03  0.10570000000E+00 0.  1.
         13    1    3    3    0    0  0.41194248101E+02 -0.18662695045E+02 -0.10922791406E+03  0.11822017867E+03  0.10570000000E+00 0. -1.
<mgrwt>
<rscale>  0 0.93200398E+02</rscale>
<asrwt>0</asrwt>
<pdfrwt beam="1">  1        1 0.11146144E-02 0.93200398E+02</pdfrwt>
<pdfrwt beam="2">  1       -1 0.46113083E-01 0.93200398E+02</pdfrwt>
<totfact> 0.57221575E+04</totfact>
</mgrwt>
</event>
<event>
 5    1  0.2734570E+000  0.1101006E+03  0.7818608E-02  0.1260384E+00
          1   -1    0    0  501    0  0.00000000000E+00  0.00000000000E+00  0.13231470626E+03  0.13231470634E+03  0.46700000000E-02 0. -1.
         -1   -1    0    0    0  501 -0.00000000000E+00 -0.00000000000E+00 -0.22903984309E+02  0.22903984785E+02  0.46700000000E-02 0.  1.
         23    2    1    2    0    0  0.00000000000E+00  0.00000000000E+00  0.10941072195E+03  0.15521869113E+03  0.11010057219E+03 0.  0.
        -13    1    3    3    0    0 -0.39515475192E+02  0.93464101697E+01  0.10710888353E+03  0.11454759826E+03  0.10570000000E+00 0. -1.
         13    1    3    3    0    0  0.39515475192E+02 -0.93464101697E+01  0.23018384211E+01  0.40671092871E+02  0.10570000000E+00 0.  1.
<mgrwt>
<rscale>  0 0.11010057E+03</rscale>
<asrwt>0</asrwt>
<pdfrwt beam="1">  1        1 0.20356109E-01 0.11010057E+03</pdfrwt>
<pdfrwt beam="2">  1       -1 0.35236899E-02 0.11010057E+03</pdfrwt>
<totfact> 0.65399277E+04</totfact>
</mgrwt>
</event>
<event>
 5    1  0.2734570E+000  0.9224486E+02  0.7818608E-02  0.1297505E+00
         -1   -1    0    0    0  501 -0.00000000000E+00  0.00000000000E+00  0.28008488299E+02  0.28008488688E+02  0.46700000000E-02 0.  1.
          1   -1    0    0  501    0  0.00000000000E+00 -0.00000000000E+00 -0.75951206698E+02  0.75951206842E+02  0.46700000000E-02 0. -1.
         23    2    1    2    0    0  0.00000000000E+00  0.00000000000E+00 -0.47942718399E+02  0.10395969553E+03  0.92244859191E+02 0.  0.
        -13    1    3    3    0    0 -0.35555730844E+02 -0.14912964574E+02  0.45543803764E+01  0.38824735174E+02  0.10570000000E+00 0.  1.
         13    1    3    3    0    0  0.35555730844E+02  0.14912964574E+02 -0.52497098776E+02  0.65134960356E+02  0.10570000000E+00 0. -1.
<mgrwt>
<rscale>  0 0.92244859E+02</rscale>
<asrwt>0</asrwt>
<pdfrwt beam="2">  1        1 0.11684801E-01 0.92244859E+02</pdfrwt>
<pdfrwt beam="1">  1       -1 0.43089983E-02 0.92244859E+02</pdfrwt>
<totfact> 0.96770936E+04</totfact>
</mgrwt>
</event>
<event>
 5    1  0.2734570E+000  0.9105618E+02  0.7818608E-02  0.1300314E+00
         -1   -1    0    0    0  501 -0.00000000000E+00  0.00000000000E+00  0.13303748178E+02  0.13303748997E+02  0.46700000000E-02 0.  1.
          1   -1    0    0  501    0  0.00000000000E+00 -0.00000000000E+00 -0.15580622554E+03  0.15580622561E+03  0.46700000000E-02 0. -1.
         23    2    1    2    0    0  0.00000000000E+00  0.00000000000E+00 -0.14250247736E+03  0.16910997461E+03  0.91056177479E+02 0.  0.
        -13    1    3    3    0    0 -0.90091636843E+01 -0.22479804276E+02 -0.14285097951E+03  0.14488933760E+03  0.10570000000E+00 0. -1.
         13    1    3    3    0    0  0.90091636843E+01  0.22479804276E+02  0.34850215207E+00  0.24220637003E+02  0.10570000000E+00 0.  1.
<mgrwt>
<rscale>  0 0.91056177E+02</rscale>
<asrwt>0</asrwt>
<pdfrwt beam="2">  1        1 0.23970187E-01 0.91056177E+02</pdfrwt>
<pdfrwt beam="1">  1       -1 0.20467307E-02 0.91056177E+02</pdfrwt>
<totfact> 0.11332566E+05</totfact>
</mgrwt>
</event>
<event>
 5    1  0.2734570E+000  0.9081931E+02  0.7818608E-02  0.1300880E+00
          1   -1    0    0  501    0  0.00000000000E+00  0.00000000000E+00  0.90679779809E+02  0.90679779929E+02  0.46700000000E-02 0. -1.
         -1   -1    0    0    0  501 -0.00000000000E+00 -0.00000000000E+00 -0.22739761727E+02  0.22739762206E+02  0.46700000000E-02 0.  1.
         23    2    1    2    0    0  0.00000000000E+00  0.00000000000E+00  0.67940018082E+02  0.11341954214E+03  0.90819306764E+02 0.  0.
        -13    1    3    3    0    0 -0.73228649600E+01 -0.44719361275E+02  0.30311965343E+02  0.54518547665E+02  0.10570000000E+00 0.  1.
         13    1    3    3    0    0  0.73228649600E+01  0.44719361275E+02  0.37628052739E+02  0.58900994470E+02  0.10570000000E+00 0. -1.
<mgrwt>
<rscale>  0 0.90819307E+02</rscale>
<asrwt>0</asrwt>
<pdfrwt beam="1">  1        1 0.13950735E-01 0.90819307E+02</pdfrwt>
<pdfrwt beam="2">  1       -1 0.34984250E-02 0.90819307E+02</pdfrwt>
<totfact> 0.10389539E+05</totfact>
</mgrwt>
</event>
<event>
 5    1  0.2734570E+000  0.9252459E+02  0.7818608E-02  0.1296851E+00
          1   -1    0    0  501    0  0.00000000000E+00  0.00000000000E+00  0.34778739161E+03  0.34778739164E+03  0.46700000000E-02 0. -1.
         -1   -1    0    0    0  501 -0.00000000000E+00 -0.00000000000E+00 -0.61537581420E+01  0.61537599140E+01  0.46700000000E-02 0.  1.
         23    2    1    2    0    0  0.00000000000E+00  0.00000000000E+00  0.34163363347E+03  0.35394115155E+03  0.92524587260E+02 0.  0.
        -13    1    3    3    0    0 -0.41123743137E+02 -0.16619750644E+02  0.22110415954E+03  0.22550928783E+03  0.10570000000E+00 0. -1.
         13    1    3    3    0    0  0.41123743137E+02  0.16619750644E+02  0.12052947393E+03  0.12843186372E+03  0.10570000000E+00 0.  1.
<mgrwt>
<rscale>  0 0.92524587E+02</rscale>
<asrwt>0</asrwt>
<pdfrwt beam="1">  1        1 0.53505748E-01 0.92524587E+02</pdfrwt>
<pdfrwt beam="2">  1       -1 0.94673224E-03 0.92524587E+02</pdfrwt>
<totfact> 0.12663703E+05</totfact>
</mgrwt>
</event>
<event>
 5    1  0.2734570E+000  0.9211278E+02  0.7818608E-02  0.1297814E+00
          1   -1    0    0  501    0  0.00000000000E+00  0.00000000000E+00  0.39334581219E+02  0.39334581496E+02  0.46700000000E-02 0. -1.
         -1   -1    0    0    0  501 -0.00000000000E+00 -0.00000000000E+00 -0.53926874936E+02  0.53926875138E+02  0.46700000000E-02 0.  1.
         23    2    1    2    0    0  0.00000000000E+00  0.00000000000E+00 -0.14592293717E+02  0.93261456634E+02  0.92112780099E+02 0.  0.
        -13    1    3    3    0    0  0.20713402887E+02 -0.24461485870E+02  0.26188476280E+02  0.41391506526E+02  0.10570000000E+00 0. -1.
         13    1    3    3    0    0 -0.20713402887E+02  0.24461485870E+02 -0.40780769997E+02  0.51869950108E+02  0.10570000000E+00 0.  1.
<mgrwt>
<rscale>  0 0.92112780E+02</rscale>
<asrwt>0</asrwt>
<pdfrwt beam="1">  1        1 0.60514740E-02 0.92112780E+02</pdfrwt>
<pdfrwt beam="2">  1       -1 0.82964424E-02 0.92112780E+02</pdfrwt>
<totfact> 0.87854107E+04</totfact>
</mgrwt>
</event>
<event>
 5    1  0.2734570E+000  0.8672720E+02  0.7818608E-02  0.1310977E+00
          1   -1    0    0  501    0  0.00000000000E+00  0.00000000000E+00  0.19804909622E+03  0.19804909628E+03  0.46700000000E-02 0.  1.
         -1   -1    0    0    0  501 -0.00000000000E+00 -0.00000000000E+00 -0.94946228666E+01  0.94946240151E+01  0.46700000000E-02 0. -1.
         23    2    1    2    0    0  0.00000000000E+00  0.00000000000E+00  0.18855447335E+03  0.20754372029E+03  0.86727195333E+02 0.  0.
        -13    1    3    3    0    0 -0.86944876455E+01  0.42193956719E+02  0.10611415686E+03  0.11452575937E+03  0.10570000000E+00 0.  1.
         13    1    3    3    0    0  0.86944876455E+01 -0.42193956719E+02  0.82440316490E+02  0.93017960924E+02  0.10570000000E+00 0. -1.
<mgrwt>
<rscale>  0 0.86727195E+02</rscale>
<asrwt>0</asrwt>
<pdfrwt beam="1">  1        1 0.30469086E-01 0.86727195E+02</pdfrwt>
<pdfrwt beam="2">  1       -1 0.14607116E-02 0.86727195E+02</pdfrwt>
<totfact> 0.13509404E+05</totfact>
</mgrwt>
</event>
<event>
 5    1  0.2734570E+000  0.9265105E+02  0.7818608E-02  0.1296556E+00
         -1   -1    0    0    0  501 -0.00000000000E+00  0.00000000000E+00  0.32712029400E+02  0.32712029733E+02  0.46700000000E-02 0.  1.
          1   -1    0    0  501    0  0.00000000000E+00 -0.00000000000E+00 -0.65604435720E+02  0.65604435886E+02  0.46700000000E-02 0. -1.
         23    2    1    2    0    0  0.00000000000E+00  0.00000000000E+00 -0.32892406320E+02  0.98316465619E+02  0.92651049742E+02 0.  0.
        -13    1    3    3    0    0 -0.30347487328E+02 -0.26468766199E+02  0.78556475623E+01  0.41027892248E+02  0.10570000000E+00 0.  1.
         13    1    3    3    0    0  0.30347487328E+02  0.26468766199E+02 -0.40748053882E+02  0.57288573371E+02  0.10570000000E+00 0. -1.
<mgrwt>
<rscale>  0 0.92651050E+02</rscale>
<asrwt>0</asrwt>
<pdfrwt beam="2">  1        1 0.10092990E-01 0.92651050E+02</pdfrwt>
<pdfrwt beam="1">  1       -1 0.50326199E-02 0.92651050E+02</pdfrwt>
<totfact> 0.93443327E+04</totfact>
</mgrwt>
</event>
<event>
 5    1  0.2734570E+000  0.9800320E+02  0.7818608E-02  0.1284552E+00
          1   -1    0    0  501    0  0.00000000000E+00  0.00000000000E+00  0.24375794931E+03  0.24375794936E+03  0.46700000000E-02 0. -1.
         -1   -1    0    0    0  501 -0.00000000000E+00 -0.00000000000E+00 -0.98505778573E+01  0.98505789643E+01  0.46700000000E-02 0.  1.
         23    2    1    2    0    0  0.00000000000E+00  0.00000000000E+00  0.23390737146E+03  0.25360852832E+03  0.98003200031E+02 0.  0.
        -13    1    3    3    0    0 -0.19363888644E+02 -0.28374595186E+02  0.26527651213E+02  0.43402825792E+02  0.10570000000E+00 0.  1.
         13    1    3    3    0    0  0.19363888644E+02  0.28374595186E+02  0.20737972024E+03  0.21020570253E+03  0.10570000000E+00 0. -1.
<mgrwt>
<rscale>  0 0.98003200E+02</rscale>
<asrwt>0</asrwt>
<pdfrwt beam="1">  1        1 0.37501223E-01 0.98003200E+02</pdfrwt>
<pdfrwt beam="2">  1       -1 0.15154736E-02 0.98003200E+02</pdfrwt>
<totfact> 0.10137927E+05</totfact>
</mgrwt>
</event>
<event>
 5    1  0.2734570E+000  0.9363784E+02  0.7818608E-02  0.1294274E+00
          1   -1    0    0  501    0  0.00000000000E+00  0.00000000000E+00  0.29332725024E+02  0.29332725396E+02  0.46700000000E-02 0. -1.
         -1   -1    0    0    0  501 -0.00000000000E+00 -0.00000000000E+00 -0.74729211052E+02  0.74729211198E+02  0.46700000000E-02 0.  1.
         23    2    1    2    0    0  0.00000000000E+00  0.00000000000E+00 -0.45396486028E+02  0.10406193659E+03  0.93637843333E+02 0.  0.
        -13    1    3    3    0    0  0.12489001748E+02  0.19932836895E+02 -0.67685671508E+02  0.71656503204E+02  0.10570000000E+00 0.  1.
         13    1    3    3    0    0 -0.12489001748E+02 -0.19932836895E+02  0.22289185481E+02  0.32405433391E+02  0.10570000000E+00 0. -1.
<mgrwt>
<rscale>  0 0.93637843E+02</rscale>
<asrwt>0</asrwt>
<pdfrwt beam="1">  1        1 0.45127270E-02 0.93637843E+02</pdfrwt>
<pdfrwt beam="2">  1       -1 0.11496802E-01 0.93637843E+02</pdfrwt>
<totfact> 0.79981432E+04</totfact>
</mgrwt>
</event>
<event>
 5    1  0.2734570E+000  0.9165534E+02  0.7818608E-02  0.1298892E+00
          1   -1    0    0  501    0  0.00000000000E+00  0.00000000000E+00  0.56963658288E+02  0.56963658479E+02  0.46700000000E-02 0. -1.
         -1   -1    0    0    0  501 -0.00000000000E+00 -0.00000000000E+00 -0.36868683972E+02  0.36868684268E+02  0.46700000000E-02 0.  1.
         23    2    1    2    0    0  0.00000000000E+00  0.00000000000E+00  0.20094974315E+02  0.93832342748E+02  0.91655335648E+02 0.  0.
        -13    1    3    3    0    0 -0.14687305088E+02 -0.43394519592E+02  0.11242563433E+02  0.47172106868E+02  0.10570000000E+00 0. -1.
         13    1    3    3    0    0  0.14687305088E+02  0.43394519592E+02  0.88524108828E+01  0.46660235879E+02  0.10570000000E+00 0.  1.
<mgrwt>
<rscale>  0 0.91655336E+02</rscale>
<asrwt>0</asrwt>
<pdfrwt beam="1">  1        1 0.87636398E-02 0.91655336E+02</pdfrwt>
<pdfrwt beam="2">  1       -1 0.56721052E-02 0.91655336E+02</pdfrwt>
<totfact> 0.94235593E+04</totfact>
</mgrwt>
</event>
<event>
 5    1  0.2734570E+000  0.9324605E+02  0.7818608E-02  0.1295176E+00
         -1   -1    0    0    0  501 -0.00000000000E+00  0.00000000000E+00  0.19822391452E+02  0.19822392002E+02  0.46700000000E-02 0.  1.
          1   -1    0    0  501    0  0.00000000000E+00 -0.00000000000E+00 -0.10965913478E+03  0.10965913488E+03  0.46700000000E-02 0. -1.
         23    2    1    2    0    0  0.00000000000E+00  0.00000000000E+00 -0.89836743328E+02  0.12948152688E+03  0.93246047379E+02 0.  0.
        -13    1    3    3    0    0  0.32281580634E+02 -0.30710288370E+02 -0.25854906578E+02  0.51514169184E+02  0.10570000000E+00 0.  1.
         13    1    3    3    0    0 -0.32281580634E+02  0.30710288370E+02 -0.63981836750E+02  0.77967357698E+02  0.10570000000E+00 0. -1.
<mgrwt>
<rscale>  0 0.93246047E+02</rscale>
<asrwt>0</asrwt>
<pdfrwt beam="2">  1        1 0.16870636E-01 0.93246047E+02</pdfrwt>
<pdfrwt beam="1">  1       -1 0.30495988E-02 0.93246047E+02</pdfrwt>
<totfact> 0.99790374E+04</totfact>
</mgrwt>
</event>
<event>
 5    1  0.2734570E+000  0.9050637E+02  0.7818608E-02  0.1301630E+00
          1   -1    0    0  501    0  0.00000000000E+00  0.00000000000E+00  0.24096087816E+02  0.24096088269E+02  0.46700000000E-02 0. -1.
         -1   -1    0    0    0  501 -0.00000000000E+00 -0.00000000000E+00 -0.84986855755E+02  0.84986855883E+02  0.46700000000E-02 0.  1.
         23    2    1    2    0    0  0.00000000000E+00  0.00000000000E+00 -0.60890767939E+02  0.10908294415E+03  0.90506370410E+02 0.  0.
        -13    1    3    3    0    0 -0.35170246252E+02  0.25947813496E+02 -0.44583573106E+02  0.62433495898E+02  0.10570000000E+00 0.  1.
         13    1    3    3    0    0  0.35170246252E+02 -0.25947813496E+02 -0.16307194833E+02  0.46649448254E+02  0.10570000000E+00 0. -1.
<mgrwt>
<rscale>  0 0.90506370E+02</rscale>
<asrwt>0</asrwt>
<pdfrwt beam="1">  1        1 0.37070905E-02 0.90506370E+02</pdfrwt>
<pdfrwt beam="2">  1       -1 0.13074901E-01 0.90506370E+02</pdfrwt>
<totfact> 0.85379081E+04</totfact>
</mgrwt>
</event>
<event>
 5    1  0.2734570E+000  0.9083898E+02  0.7818608E-02  0.1300833E+00
          1   -1    0    0  501    0  0.00000000000E+00  0.00000000000E+00  0.69174188913E+02  0.69174189071E+02  0.46700000000E-02 0. -1.
         -1   -1    0    0    0  501 -0.00000000000E+00 -0.00000000000E+00 -0.29822253362E+02  0.29822253728E+02  0.46700000000E-02 0.  1.
         23    2    1    2    0    0  0.00000000000E+00  0.00000000000E+00  0.39351935551E+02  0.98996442799E+02  0.90838983125E+02 0.  0.
        -13    1    3    3    0    0  0.16578378857E+02 -0.80739131729E+01 -0.25559167061E+02  0.31516867116E+02  0.10570000000E+00 0.  1.
         13    1    3    3    0    0 -0.16578378857E+02  0.80739131729E+01  0.64911102612E+02  0.67479575683E+02  0.10570000000E+00 0. -1.
<mgrwt>
<rscale>  0 0.90838983E+02</rscale>
<asrwt>0</asrwt>
<pdfrwt beam="1">  1        1 0.10642183E-01 0.90838983E+02</pdfrwt>
<pdfrwt beam="2">  1       -1 0.45880390E-02 0.90838983E+02</pdfrwt>
<totfact> 0.99500101E+04</totfact>
</mgrwt>
</event>
<event>
 5    1  0.2734570E+000  0.9135242E+02  0.7818608E-02  0.1299609E+00
         -1   -1    0    0    0  501 -0.00000000000E+00  0.00000000000E+00  0.42909004556E+02  0.42909004810E+02  0.46700000000E-02 0.  1.
          1   -1    0    0  501    0  0.00000000000E+00 -0.00000000000E+00 -0.48621870658E+02  0.48621870883E+02  0.46700000000E-02 0. -1.
         23    2    1    2    0    0  0.00000000000E+00  0.00000000000E+00 -0.57128661027E+01  0.91530875693E+02  0.91352418501E+02 0.  0.
        -13    1    3    3    0    0 -0.49044021124E+01 -0.19377718470E+02  0.38293930089E+02  0.43197052993E+02  0.10570000000E+00 0.  1.
         13    1    3    3    0    0  0.49044021124E+01  0.19377718470E+02 -0.44006796192E+02  0.48333822699E+02  0.10570000000E+00 0. -1.
<mgrwt>
<rscale>  0 0.91352419E+02</rscale>
<asrwt>0</asrwt>
<pdfrwt beam="2">  1        1 0.74802878E-02 0.91352419E+02</pdfrwt>
<pdfrwt beam="1">  1       -1 0.66013854E-02 0.91352419E+02</pdfrwt>
<totfact> 0.92869423E+04</totfact>
</mgrwt>
</event>
<event>
 5    1  0.2734570E+000  0.8385600E+02  0.7818608E-02  0.1318452E+00
          1   -1    0    0  501    0  0.00000000000E+00  0.00000000000E+00  0.13735974513E+02  0.13735975307E+02  0.46700000000E-02 0.  1.
         -1   -1    0    0    0  501 -0.00000000000E+00 -0.00000000000E+00 -0.12798197915E+03  0.12798197923E+03  0.46700000000E-02 0. -1.
         23    2    1    2    0    0  0.00000000000E+00  0.00000000000E+00 -0.11424600463E+03  0.14171795454E+03  0.83856001954E+02 0.  0.
        -13    1    3    3    0    0 -0.35620532835E+01 -0.37493472858E+02 -0.25983696584E+02  0.45756009345E+02  0.10570000000E+00 0.  1.
         13    1    3    3    0    0  0.35620532835E+01  0.37493472858E+02 -0.88262308049E+02  0.95961945192E+02  0.10570000000E+00 0. -1.
<mgrwt>
<rscale>  0 0.83856002E+02</rscale>
<asrwt>0</asrwt>
<pdfrwt beam="1">  1        1 0.21132270E-02 0.83856002E+02</pdfrwt>
<pdfrwt beam="2">  1       -1 0.19689535E-01 0.83856002E+02</pdfrwt>
<totfact> 0.96172665E+04</totfact>
</mgrwt>
</event>
<event>
 5    1  0.2734570E+000  0.9198516E+02  0.7818608E-02  0.1298114E+00
          1   -1    0    0  501    0  0.00000000000E+00  0.00000000000E+00  0.26485346857E+02  0.26485347269E+02  0.46700000000E-02 0. -1.
         -1   -1    0    0    0  501 -0.00000000000E+00 -0.00000000000E+00 -0.79867465021E+02  0.79867465157E+02  0.46700000000E-02 0.  1.
         23    2    1    2    0    0  0.00000000000E+00  0.00000000000E+00 -0.53382118164E+02  0.10635281243E+03  0.91985162778E+02 0.  0.
        -13    1    3    3    0    0 -0.15432329603E+02  0.28585837423E+02  0.10951923113E+02  0.34282104523E+02  0.10570000000E+00 0. -1.
         13    1    3    3    0    0  0.15432329603E+02 -0.28585837423E+02 -0.64334041277E+02  0.72070707903E+02  0.10570000000E+00 0.  1.
<mgrwt>
<rscale>  0 0.91985163E+02</rscale>
<asrwt>0</asrwt>
<pdfrwt beam="1">  1        1 0.40746688E-02 0.91985163E+02</pdfrwt>
<pdfrwt beam="2">  1       -1 0.12287302E-01 0.91985163E+02</pdfrwt>
<totfact> 0.82780621E+04</totfact>
</mgrwt>
</event>
<event>
 5    1  0.2734570E+000  0.8727701E+02  0.7818608E-02  0.1309583E+00
         -1   -1    0    0    0  501 -0.00000000000E+00  0.00000000000E+00  0.17309926283E+03  0.17309926289E+03  0.46700000000E-02 0.  1.
          1   -1    0    0  501    0  0.00000000000E+00 -0.00000000000E+00 -0.11001312969E+02  0.11001313960E+02  0.46700000000E-02 0. -1.
         23    2    1    2    0    0  0.00000000000E+00  0.00000000000E+00  0.16209794986E+03  0.18410057685E+03  0.87277013288E+02 0.  0.
        -13    1    3    3    0    0 -0.96554082636E+01 -0.25787285051E+02  0.15246011758E+03  0.15492678789E+03  0.10570000000E+00 0.  1.
         13    1    3    3    0    0  0.96554082636E+01  0.25787285051E+02  0.96378322762E+01  0.29173788964E+02  0.10570000000E+00 0. -1.
<mgrwt>
<rscale>  0 0.87277013E+02</rscale>
<asrwt>0</asrwt>
<pdfrwt beam="2">  1        1 0.16925098E-02 0.87277013E+02</pdfrwt>
<pdfrwt beam="1">  1       -1 0.26630655E-01 0.87277013E+02</pdfrwt>
<totfact> 0.80878986E+04</totfact>
</mgrwt>
</event>
<event>
 5    1  0.2734570E+000  0.9013321E+02  0.7818608E-02  0.1302529E+00
         -1   -1    0    0    0  501 -0.00000000000E+00  0.00000000000E+00  0.22498683220E+02  0.22498683704E+02  0.46700000000E-02 0.  1.
          1   -1    0    0  501    0  0.00000000000E+00 -0.00000000000E+00 -0.90271893561E+02  0.90271893682E+02  0.46700000000E-02 0. -1.
         23    2    1    2    0    0  0.00000000000E+00  0.00000000000E+00 -0.67773210342E+02  0.11277057739E+03  0.90133207444E+02 0.  0.
        -13    1    3    3    0    0  0.23081705820E+02  0.13906525105E+02  0.11308157849E+02  0.29224000248E+02  0.10570000000E+00 0.  1.
         13    1    3    3    0    0 -0.23081705820E+02 -0.13906525105E+02 -0.79081368191E+02  0.83546577138E+02  0.10570000000E+00 0. -1.
<mgrwt>
<rscale>  0 0.90133207E+02</rscale>
<asrwt>0</asrwt>
<pdfrwt beam="2">  1        1 0.13887984E-01 0.90133207E+02</pdfrwt>
<pdfrwt beam="1">  1       -1 0.34613360E-02 0.90133207E+02</pdfrwt>
<totfact> 0.10599030E+05</totfact>
</mgrwt>
</event>
<event>
 5    1  0.2734570E+000  0.6976649E+02  0.7818608E-02  0.1360889E+00
          1   -1    0    0  501    0  0.00000000000E+00  0.00000000000E+00  0.29740130973E+03  0.29740130977E+03  0.46700000000E-02 0. -1.
         -1   -1    0    0    0  501 -0.00000000000E+00 -0.00000000000E+00 -0.40915766106E+01  0.40915792757E+01  0.46700000000E-02 0.  1.
         23    2    1    2    0    0  0.00000000000E+00  0.00000000000E+00  0.29330973312E+03  0.30149288904E+03  0.69766486227E+02 0.  0.
        -13    1    3    3    0    0 -0.32604067952E+02 -0.50420419174E+01  0.19561948402E+03  0.19838205850E+03  0.10570000000E+00 0. -1.
         13    1    3    3    0    0  0.32604067952E+02  0.50420419174E+01  0.97690249100E+02  0.10311083054E+03  0.10570000000E+00 0.  1.
<mgrwt>
<rscale>  0 0.69766486E+02</rscale>
<asrwt>0</asrwt>
<pdfrwt beam="1">  1        1 0.45754060E-01 0.69766486E+02</pdfrwt>
<pdfrwt beam="2">  1       -1 0.62947336E-03 0.69766486E+02</pdfrwt>
<totfact> 0.25837815E+05</totfact>
</mgrwt>
</event>
<event>
 5    1  0.2734570E+000  0.8852965E+02  0.7818608E-02  0.1306452E+00
         -1   -1    0    0    0  501 -0.00000000000E+00  0.00000000000E+00  0.22189546051E+02  0.22189546543E+02  0.46700000000E-02 0.  1.
          1   -1    0    0  501    0  0.00000000000E+00 -0.00000000000E+00 -0.88301703728E+02  0.88301703851E+02  0.46700000000E-02 0. -1.
         23    2    1    2    0    0  0.00000000000E+00  0.00000000000E+00 -0.66112157676E+02  0.11049125039E+03  0.88529650519E+02 0.  0.
        -13    1    3    3    0    0  0.24877549441E+02  0.64010053960E+01 -0.78047217790E+02  0.82165958362E+02  0.10570000000E+00 0. -1.
         13    1    3    3    0    0 -0.24877549441E+02 -0.64010053960E+01  0.11935060114E+02  0.28325292032E+02  0.10570000000E+00 0.  1.
<mgrwt>
<rscale>  0 0.88529651E+02</rscale>
<asrwt>0</asrwt>
<pdfrwt beam="2">  1        1 0.13584877E-01 0.88529651E+02</pdfrwt>
<pdfrwt beam="1">  1       -1 0.34137764E-02 0.88529651E+02</pdfrwt>
<totfact> 0.11091190E+05</totfact>
</mgrwt>
</event>
<event>
 5    1  0.2734570E+000  0.9191038E+02  0.7818608E-02  0.1298290E+00
         -1   -1    0    0    0  501 -0.00000000000E+00  0.00000000000E+00  0.26351372346E+02  0.26351372760E+02  0.46700000000E-02 0.  1.
          1   -1    0    0  501    0  0.00000000000E+00 -0.00000000000E+00 -0.80143058431E+02  0.80143058567E+02  0.46700000000E-02 0. -1.
         23    2    1    2    0    0  0.00000000000E+00  0.00000000000E+00 -0.53791686085E+02  0.10649443133E+03  0.91910382502E+02 0.  0.
        -13    1    3    3    0    0 -0.21058438588E+02  0.40831668523E+02 -0.28157386348E+02  0.53884437165E+02  0.10570000000E+00 0.  1.
         13    1    3    3    0    0  0.21058438588E+02 -0.40831668523E+02 -0.25634299737E+02  0.52609994162E+02  0.10570000000E+00 0. -1.
<mgrwt>
<rscale>  0 0.91910383E+02</rscale>
<asrwt>0</asrwt>
<pdfrwt beam="2">  1        1 0.12329701E-01 0.91910383E+02</pdfrwt>
<pdfrwt beam="1">  1       -1 0.40540574E-02 0.91910383E+02</pdfrwt>
<totfact> 0.98577204E+04</totfact>
</mgrwt>
</event>
<event>
 5    1  0.2734570E+000  0.9187419E+02  0.7818608E-02  0.1298376E+00
         -1   -1    0    0    0  501 -0.00000000000E+00  0.00000000000E+00  0.21399070241E+02  0.21399070751E+02  0.46700000000E-02 0.  1.
          1   -1    0    0  501    0  0.00000000000E+00 -0.00000000000E+00 -0.98612531601E+02  0.98612531711E+02  0.46700000000E-02 0. -1.
         23    2    1    2    0    0  0.00000000000E+00  0.00000000000E+00 -0.77213461359E+02  0.12001160246E+03  0.91874186312E+02 0.  0.
        -13    1    3    3    0    0  0.40736430992E+02  0.67153224260E+01 -0.12297565378E+02  0.43078923524E+02  0.10570000000E+00 0.  1.
         13    1    3    3    0    0 -0.40736430992E+02 -0.67153224260E+01 -0.64915895981E+02  0.76932678939E+02  0.10570000000E+00 0. -1.
<mgrwt>
<rscale>  0 0.91874186E+02</rscale>
<asrwt>0</asrwt>
<pdfrwt beam="2">  1        1 0.15171159E-01 0.91874186E+02</pdfrwt>
<pdfrwt beam="1">  1       -1 0.32921648E-02 0.91874186E+02</pdfrwt>
<totfact> 0.10206372E+05</totfact>
</mgrwt>
</event>
<event>
 5    1  0.2734570E+000  0.9295847E+02  0.7818608E-02  0.1295841E+00
          1   -1    0    0  501    0  0.00000000000E+00  0.00000000000E+00  0.13958802921E+02  0.13958803702E+02  0.46700000000E-02 0. -1.
         -1   -1    0    0    0  501 -0.00000000000E+00 -0.00000000000E+00 -0.15476394579E+03  0.15476394586E+03  0.46700000000E-02 0.  1.
         23    2    1    2    0    0  0.00000000000E+00  0.00000000000E+00 -0.14080514287E+03  0.16872274956E+03  0.92958474393E+02 0.  0.
        -13    1    3    3    0    0 -0.59586508357E+01 -0.44398310279E+02 -0.92896750365E+02  0.10313356814E+03  0.10570000000E+00 0.  1.
         13    1    3    3    0    0  0.59586508357E+01  0.44398310279E+02 -0.47908392500E+02  0.65589181424E+02  0.10570000000E+00 0. -1.
<mgrwt>
<rscale>  0 0.92958474E+02</rscale>
<asrwt>0</asrwt>
<pdfrwt beam="1">  1        1 0.21475083E-02 0.92958474E+02</pdfrwt>
<pdfrwt beam="2">  1       -1 0.23809837E-01 0.92958474E+02</pdfrwt>
<totfact> 0.70594214E+04</totfact>
</mgrwt>
</event>
<event>
 5    1  0.2734570E+000  0.9299241E+02  0.7818608E-02  0.1295763E+00
          1   -1    0    0  501    0  0.00000000000E+00  0.00000000000E+00  0.51416841293E+02  0.51416841505E+02  0.46700000000E-02 0. -1.
         -1   -1    0    0    0  501 -0.00000000000E+00 -0.00000000000E+00 -0.42046478119E+02  0.42046478378E+02  0.46700000000E-02 0.  1.
         23    2    1    2    0    0  0.00000000000E+00  0.00000000000E+00  0.93703631743E+01  0.93463319883E+02  0.92992410753E+02 0.  0.
        -13    1    3    3    0    0 -0.59398915930E+01 -0.19799964203E+02 -0.37173832222E+02  0.42534995817E+02  0.10570000000E+00 0.  1.
         13    1    3    3    0    0  0.59398915930E+01  0.19799964203E+02  0.46544195396E+02  0.50928324066E+02  0.10570000000E+00 0. -1.
<mgrwt>
<rscale>  0 0.92992411E+02</rscale>
<asrwt>0</asrwt>
<pdfrwt beam="1">  1        1 0.79102833E-02 0.92992411E+02</pdfrwt>
<pdfrwt beam="2">  1       -1 0.64686890E-02 0.92992411E+02</pdfrwt>
<totfact> 0.89102698E+04</totfact>
</mgrwt>
</event>
<event>
 5    1  0.2734570E+000  0.9222717E+02  0.7818608E-02  0.1297546E+00
         -1   -1    0    0    0  501 -0.00000000000E+00  0.00000000000E+00  0.85293873906E+01  0.85293886691E+01  0.46700000000E-02 0.  1.
          1   -1    0    0  501    0  0.00000000000E+00 -0.00000000000E+00 -0.24931010449E+03  0.24931010453E+03  0.46700000000E-02 0. -1.
         23    2    1    2    0    0  0.00000000000E+00  0.00000000000E+00 -0.24078071710E+03  0.25783949320E+03  0.92227168059E+02 0.  0.
        -13    1    3    3    0    0 -0.39574531113E+02  0.95795725396E+01 -0.59875255088E+02  0.72408349430E+02  0.10570000000E+00 0.  1.
         13    1    3    3    0    0  0.39574531113E+02 -0.95795725396E+01 -0.18090546201E+03  0.18543114377E+03  0.10570000000E+00 0. -1.
<mgrwt>
<rscale>  0 0.92227168E+02</rscale>
<asrwt>0</asrwt>
<pdfrwt beam="2">  1        1 0.38355395E-01 0.92227168E+02</pdfrwt>
<pdfrwt beam="1">  1       -1 0.13122137E-02 0.92227168E+02</pdfrwt>
<totfact> 0.11987367E+05</totfact>
</mgrwt>
</event>
<event>
 5    1  0.2734570E+000  0.9312869E+02  0.7818608E-02  0.1295447E+00
          1   -1    0    0  501    0  0.00000000000E+00  0.00000000000E+00  0.21957500387E+02  0.21957500884E+02  0.46700000000E-02 0. -1.
         -1   -1    0    0    0  501 -0.00000000000E+00 -0.00000000000E+00 -0.98747031343E+02  0.98747031453E+02  0.46700000000E-02 0.  1.
         23    2    1    2    0    0  0.00000000000E+00  0.00000000000E+00 -0.76789530956E+02  0.12070453234E+03  0.93128685496E+02 0.  0.
        -13    1    3    3    0    0  0.15702125923E+02 -0.17328465438E+02 -0.90584421579E+02  0.93554161202E+02  0.10570000000E+00 0.  1.
         13    1    3    3    0    0 -0.15702125923E+02  0.17328465438E+02  0.13794890623E+02  0.27150371135E+02  0.10570000000E+00 0. -1.
<mgrwt>
<rscale>  0 0.93128685E+02</rscale>
<asrwt>0</asrwt>
<pdfrwt beam="1">  1        1 0.33780771E-02 0.93128685E+02</pdfrwt>
<pdfrwt beam="2">  1       -1 0.15191851E-01 0.93128685E+02</pdfrwt>
<totfact> 0.77227225E+04</totfact>
</mgrwt>
</event>
<event>
 5    1  0.2734570E+000  0.9525456E+02  0.7818608E-02  0.1290604E+00
         -1   -1    0    0    0  501 -0.00000000000E+00  0.00000000000E+00  0.10758967633E+03  0.10758967644E+03  0.46700000000E-02 0.  1.
          1   -1    0    0  501    0  0.00000000000E+00 -0.00000000000E+00 -0.21083416607E+02  0.21083417124E+02  0.46700000000E-02 0. -1.
         23    2    1    2    0    0  0.00000000000E+00  0.00000000000E+00  0.86506259727E+02  0.12867309356E+03  0.95254564374E+02 0.  0.
        -13    1    3    3    0    0 -0.12986309928E+02  0.16611502822E+02  0.10094117967E+03  0.10311992629E+03  0.10570000000E+00 0.  1.
         13    1    3    3    0    0  0.12986309928E+02 -0.16611502822E+02 -0.14434919942E+02  0.25553167274E+02  0.10570000000E+00 0. -1.
<mgrwt>
<rscale>  0 0.95254564E+02</rscale>
<asrwt>0</asrwt>
<pdfrwt beam="2">  1        1 0.32436026E-02 0.95254564E+02</pdfrwt>
<pdfrwt beam="1">  1       -1 0.16552258E-01 0.95254564E+02</pdfrwt>
<totfact> 0.71673646E+04</totfact>
</mgrwt>
</event>
<event>
 5    1  0.2734570E+000  0.9374209E+02  0.7818608E-02  0.1294035E+00
         -1   -1    0    0    0  501 -0.00000000000E+00  0.00000000000E+00  0.70576330481E+01  0.70576345932E+01  0.46700000000E-02 0.  1.
          1   -1    0    0  501    0  0.00000000000E+00 -0.00000000000E+00 -0.31127925687E+03  0.31127925691E+03  0.46700000000E-02 0. -1.
         23    2    1    2    0    0  0.00000000000E+00  0.00000000000E+00 -0.30422162382E+03  0.31833689150E+03  0.93742093469E+02 0.  0.
        -13    1    3    3    0    0 -0.36254109397E+02  0.29632112581E+02 -0.14493810151E+03  0.15231377806E+03  0.10570000000E+00 0. -1.
         13    1    3    3    0    0  0.36254109397E+02 -0.29632112581E+02 -0.15928352231E+03  0.16602311344E+03  0.10570000000E+00 0.  1.
<mgrwt>
<rscale>  0 0.93742093E+02</rscale>
<asrwt>0</asrwt>
<pdfrwt beam="2">  1        1 0.47889106E-01 0.93742093E+02</pdfrwt>
<pdfrwt beam="1">  1       -1 0.10857901E-02 0.93742093E+02</pdfrwt>
<totfact> 0.11981330E+05</totfact>
</mgrwt>
</event>
<event>
 5    1  0.2734570E+000  0.9973433E+02  0.7818608E-02  0.1280856E+00
         -1   -1    0    0    0  501 -0.00000000000E+00  0.00000000000E+00  0.85534623281E+01  0.85534636029E+01  0.46700000000E-02 0.  1.
          1   -1    0    0  501    0  0.00000000000E+00 -0.00000000000E+00 -0.29072835339E+03  0.29072835343E+03  0.46700000000E-02 0. -1.
         23    2    1    2    0    0  0.00000000000E+00  0.00000000000E+00 -0.28217489106E+03  0.29928181703E+03  0.99734331398E+02 0.  0.
        -13    1    3    3    0    0  0.43104812093E+02 -0.20234719554E+02 -0.18552086658E+03  0.19153451859E+03  0.10570000000E+00 0.  1.
         13    1    3    3    0    0 -0.43104812093E+02  0.20234719554E+02 -0.96654024480E+02  0.10774729844E+03  0.10570000000E+00 0. -1.
<mgrwt>
<rscale>  0 0.99734331E+02</rscale>
<asrwt>0</asrwt>
<pdfrwt beam="2">  1        1 0.44727431E-01 0.99734331E+02</pdfrwt>
<pdfrwt beam="1">  1       -1 0.13159176E-02 0.99734331E+02</pdfrwt>
<totfact> 0.10014453E+05</totfact>
</mgrwt>
</event>
<event>
 5    1  0.2734570E+000  0.1018149E+03  0.7818608E-02  0.1276525E+00
         -1   -1    0    0    0  501 -0.00000000000E+00  0.00000000000E+00  0.13673408567E+02  0.13673409364E+02  0.46700000000E-02 0.  1.
          1   -1    0    0  501    0  0.00000000000E+00 -0.00000000000E+00 -0.18953348375E+03  0.18953348381E+03  0.46700000000E-02 0. -1.
         23    2    1    2    0    0  0.00000000000E+00  0.00000000000E+00 -0.17586007518E+03  0.20320689317E+03  0.10181490750E+03 0.  0.
        -13    1    3    3    0    0  0.36522089439E+02 -0.25199536081E+02 -0.38126655124E+02  0.58502415669E+02  0.10570000000E+00 0.  1.
         13    1    3    3    0    0 -0.36522089439E+02  0.25199536081E+02 -0.13773342006E+03  0.14470447750E+03  0.10570000000E+00 0. -1.
<mgrwt>
<rscale>  0 0.10181491E+03</rscale>
<asrwt>0</asrwt>
<pdfrwt beam="2">  1        1 0.29158996E-01 0.10181491E+03</pdfrwt>
<pdfrwt beam="1">  1       -1 0.21036015E-02 0.10181491E+03</pdfrwt>
<totfact> 0.86962476E+04</totfact>
</mgrwt>
</event>
<event>
 5    1  0.2734570E+000  0.9551677E+02  0.7818608E-02  0.1290016E+00
          1   -1    0    0  501    0  0.00000000000E+00  0.00000000000E+00  0.72666230503E+02  0.72666230653E+02  0.46700000000E-02 0. -1.
         -1   -1    0    0    0  501 -0.00000000000E+00 -0.00000000000E+00 -0.31388216111E+02  0.31388216458E+02  0.46700000000E-02 0.  1.
         23    2    1    2    0    0  0.00000000000E+00  0.00000000000E+00  0.41278014392E+02  0.10405444711E+03  0.95516770734E+02 0.  0.
        -13    1    3    3    0    0 -0.10022622200E+02  0.28782170027E+02 -0.19416948792E+02  0.36137173936E+02  0.10570000000E+00 0.  1.
         13    1    3    3    0    0  0.10022622200E+02 -0.28782170027E+02  0.60694963184E+02  0.67917273175E+02  0.10570000000E+00 0. -1.
<mgrwt>
<rscale>  0 0.95516771E+02</rscale>
<asrwt>0</asrwt>
<pdfrwt beam="1">  1        1 0.11179420E-01 0.95516771E+02</pdfrwt>
<pdfrwt beam="2">  1       -1 0.48289563E-02 0.95516771E+02</pdfrwt>
<totfact> 0.87263214E+04</totfact>
</mgrwt>
</event>
<event>
 5    1  0.2734570E+000  0.9529693E+02  0.7818608E-02  0.1290509E+00
          1   -1    0    0  501    0  0.00000000000E+00  0.00000000000E+00  0.24891730954E+02  0.24891731392E+02  0.46700000000E-02 0. -1.
         -1   -1    0    0    0  501 -0.00000000000E+00 -0.00000000000E+00 -0.91210053348E+02  0.91210053468E+02  0.46700000000E-02 0.  1.
         23    2    1    2    0    0  0.00000000000E+00  0.00000000000E+00 -0.66318322394E+02  0.11610178486E+03  0.95296928401E+02 0.  0.
        -13    1    3    3    0    0  0.15111475730E+02  0.97713573225E+01 -0.86910639815E+02  0.88754192060E+02  0.10570000000E+00 0.  1.
         13    1    3    3    0    0 -0.15111475730E+02 -0.97713573225E+01  0.20592317422E+02  0.27347592800E+02  0.10570000000E+00 0. -1.
<mgrwt>
<rscale>  0 0.95296928E+02</rscale>
<asrwt>0</asrwt>
<pdfrwt beam="1">  1        1 0.38294971E-02 0.95296928E+02</pdfrwt>
<pdfrwt beam="2">  1       -1 0.14032316E-01 0.95296928E+02</pdfrwt>
<totfact> 0.73851062E+04</totfact>
</mgrwt>
</event>
<event>
 5    1  0.2734570E+000  0.8935322E+02  0.7818608E-02  0.1304426E+00
          1   -1    0    0  501    0  0.00000000000E+00  0.00000000000E+00  0.19801255528E+02  0.19801256079E+02  0.46700000000E-02 0. -1.
         -1   -1    0    0    0  501 -0.00000000000E+00 -0.00000000000E+00 -0.10080166254E+03  0.10080166265E+03  0.46700000000E-02 0.  1.
         23    2    1    2    0    0  0.00000000000E+00  0.00000000000E+00 -0.81000407010E+02  0.12060291873E+03  0.89353220811E+02 0.  0.
        -13    1    3    3    0    0  0.22850145930E+02  0.27824613149E+02 -0.47985730397E+01  0.36323212159E+02  0.10570000000E+00 0. -1.
         13    1    3    3    0    0 -0.22850145930E+02 -0.27824613149E+02 -0.76201833971E+02  0.84279706566E+02  0.10570000000E+00 0.  1.
<mgrwt>
<rscale>  0 0.89353221E+02</rscale>
<asrwt>0</asrwt>
<pdfrwt beam="1">  1        1 0.30463471E-02 0.89353221E+02</pdfrwt>
<pdfrwt beam="2">  1       -1 0.15507948E-01 0.89353221E+02</pdfrwt>
<totfact> 0.85584282E+04</totfact>
</mgrwt>
</event>
<event>
 5    1  0.2734570E+000  0.9229603E+02  0.7818608E-02  0.1297385E+00
          1   -1    0    0  501    0  0.00000000000E+00  0.00000000000E+00  0.19029472958E+03  0.19029472964E+03  0.46700000000E-02 0. -1.
         -1   -1    0    0    0  501 -0.00000000000E+00 -0.00000000000E+00 -0.11191266209E+02  0.11191267184E+02  0.46700000000E-02 0.  1.
         23    2    1    2    0    0  0.00000000000E+00  0.00000000000E+00  0.17910346337E+03  0.20148599682E+03  0.92296025503E+02 0.  0.
        -13    1    3    3    0    0 -0.26711415851E+01 -0.38584806837E+02  0.34596930816E+02  0.51892977467E+02  0.10570000000E+00 0.  1.
         13    1    3    3    0    0  0.26711415851E+01  0.38584806837E+02  0.14450653256E+03  0.14959301936E+03  0.10570000000E+00 0. -1.
<mgrwt>
<rscale>  0 0.92296026E+02</rscale>
<asrwt>0</asrwt>
<pdfrwt beam="1">  1        1 0.29276110E-01 0.92296026E+02</pdfrwt>
<pdfrwt beam="2">  1       -1 0.17217335E-02 0.92296026E+02</pdfrwt>
<totfact> 0.11348853E+05</totfact>
</mgrwt>
</event>
<event>
 5    1  0.2734570E+000  0.9552225E+02  0.7818608E-02  0.1290004E+00
          1   -1    0    0  501    0  0.00000000000E+00  0.00000000000E+00  0.65147701629E+02  0.65147701796E+02  0.46700000000E-02 0. -1.
         -1   -1    0    0    0  501 -0.00000000000E+00 -0.00000000000E+00 -0.35014663983E+02  0.35014664294E+02  0.46700000000E-02 0.  1.
         23    2    1    2    0    0  0.00000000000E+00  0.00000000000E+00  0.30133037646E+02  0.10016236609E+03  0.95522246744E+02 0.  0.
        -13    1    3    3    0    0  0.19907950479E+02 -0.14123525122E+02  0.58113268785E+02  0.63031449575E+02  0.10570000000E+00 0. -1.
         13    1    3    3    0    0 -0.19907950479E+02  0.14123525122E+02 -0.27980231140E+02  0.37130916515E+02  0.10570000000E+00 0.  1.
<mgrwt>
<rscale>  0 0.95522247E+02</rscale>
<asrwt>0</asrwt>
<pdfrwt beam="1">  1        1 0.10022723E-01 0.95522247E+02</pdfrwt>
<pdfrwt beam="2">  1       -1 0.53868715E-02 0.95522247E+02</pdfrwt>
<totfact> 0.85749590E+04</totfact>
</mgrwt>
</event>
<event>
 5    1  0.2734570E+000  0.9010850E+02  0.7818608E-02  0.1302589E+00
          1   -1    0    0  501    0  0.00000000000E+00  0.00000000000E+00  0.14146283037E+02  0.14146283808E+02  0.46700000000E-02 0. -1.
         -1   -1    0    0    0  501 -0.00000000000E+00 -0.00000000000E+00 -0.14349249024E+03  0.14349249032E+03  0.46700000000E-02 0.  1.
         23    2    1    2    0    0  0.00000000000E+00  0.00000000000E+00 -0.12934620720E+03  0.15763877413E+03  0.90108500096E+02 0.  0.
        -13    1    3    3    0    0 -0.11353728579E+02  0.39789874331E+02 -0.95856862617E+02  0.10440637210E+03  0.10570000000E+00 0.  1.
         13    1    3    3    0    0  0.11353728579E+02 -0.39789874331E+02 -0.33489344587E+02  0.53232402025E+02  0.10570000000E+00 0. -1.
<mgrwt>
<rscale>  0 0.90108500E+02</rscale>
<asrwt>0</asrwt>
<pdfrwt beam="1">  1        1 0.21763514E-02 0.90108500E+02</pdfrwt>
<pdfrwt beam="2">  1       -1 0.22075767E-01 0.90108500E+02</pdfrwt>
<totfact> 0.77901398E+04</totfact>
</mgrwt>
</event>
<event>
 5    1  0.2734570E+000  0.9078634E+02  0.7818608E-02  0.1300959E+00
          1   -1    0    0  501    0  0.00000000000E+00  0.00000000000E+00  0.12654112422E+03  0.12654112431E+03  0.46700000000E-02 0. -1.
         -1   -1    0    0    0  501 -0.00000000000E+00 -0.00000000000E+00 -0.16283557974E+02  0.16283558644E+02  0.46700000000E-02 0.  1.
         23    2    1    2    0    0  0.00000000000E+00  0.00000000000E+00  0.11025756625E+03  0.14282468295E+03  0.90786337878E+02 0.  0.
        -13    1    3    3    0    0 -0.44446493200E+02 -0.58601845763E+01  0.43927442207E+02  0.62765148548E+02  0.10570000000E+00 0.  1.
         13    1    3    3    0    0  0.44446493200E+02  0.58601845763E+01  0.66330124041E+02  0.80059534403E+02  0.10570000000E+00 0. -1.
<mgrwt>
<rscale>  0 0.90786338E+02</rscale>
<asrwt>0</asrwt>
<pdfrwt beam="1">  1        1 0.19467865E-01 0.90786338E+02</pdfrwt>
<pdfrwt beam="2">  1       -1 0.25051629E-02 0.90786338E+02</pdfrwt>
<totfact> 0.11001699E+05</totfact>
</mgrwt>
</event>
<event>
 5    1  0.2734570E+000  0.9461246E+02  0.7818608E-02  0.1292051E+00
         -1   -1    0    0    0  501 -0.00000000000E+00  0.00000000000E+00  0.15115294355E+03  0.15115294363E+03  0.46700000000E-02 0.  1.
          1   -1    0    0  501    0  0.00000000000E+00 -0.00000000000E+00 -0.14805396947E+02  0.14805397683E+02  0.46700000000E-02 0. -1.
         23    2    1    2    0    0  0.00000000000E+00  0.00000000000E+00  0.13634754661E+03  0.16595834131E+03  0.94612459985E+02 0.  0.
        -13    1    3    3    0    0  0.23615948940E+02  0.41708998558E+01  0.13970000992E+03  0.14174347743E+03  0.10570000000E+00 0.  1.
         13    1    3    3    0    0 -0.23615948940E+02 -0.41708998558E+01 -0.33524633132E+01  0.24214863879E+02  0.10570000000E+00 0. -1.
<mgrwt>
<rscale>  0 0.94612460E+02</rscale>
<asrwt>0</asrwt>
<pdfrwt beam="2">  1        1 0.22777534E-02 0.94612460E+02</pdfrwt>
<pdfrwt beam="1">  1       -1 0.23254299E-01 0.94612460E+02</pdfrwt>
<totfact> 0.67808440E+04</totfact>
</mgrwt>
</event>
<event>
 5    1  0.2734570E+000  0.9209680E+02  0.7818608E-02  0.1297852E+00
          1   -1    0    0  501    0  0.00000000000E+00  0.00000000000E+00  0.25024295813E+03  0.25024295818E+03  0.46700000000E-02 0. -1.
         -1   -1    0    0    0  501 -0.00000000000E+00 -0.00000000000E+00 -0.84735842244E+01  0.84735855113E+01  0.46700000000E-02 0.  1.
         23    2    1    2    0    0  0.00000000000E+00  0.00000000000E+00  0.24176937391E+03  0.25871654369E+03  0.92096795914E+02 0.  0.
        -13    1    3    3    0    0  0.40797531634E+02 -0.40115442300E+01  0.17980471340E+03  0.18441875504E+03  0.10570000000E+00 0. -1.
         13    1    3    3    0    0 -0.40797531634E+02  0.40115442300E+01  0.61964660507E+02  0.74297788653E+02  0.10570000000E+00 0.  1.
<mgrwt>
<rscale>  0 0.92096796E+02</rscale>
<asrwt>0</asrwt>
<pdfrwt beam="1">  1        1 0.38498922E-01 0.92096796E+02</pdfrwt>
<pdfrwt beam="2">  1       -1 0.13036283E-02 0.92096796E+02</pdfrwt>
<totfact> 0.12041613E+05</totfact>
</mgrwt>
</event>
<event>
 5    1  0.2734570E+000  0.8999054E+02  0.7818608E-02  0.1302875E+00
         -1   -1    0    0    0  501 -0.00000000000E+00  0.00000000000E+00  0.88730609980E+02  0.88730610103E+02  0.46700000000E-02 0.  1.
          1   -1    0    0  501    0  0.00000000000E+00 -0.00000000000E+00 -0.22817088863E+02  0.22817089341E+02  0.46700000000E-02 0. -1.
         23    2    1    2    0    0  0.00000000000E+00  0.00000000000E+00  0.65913521117E+02  0.11154769944E+03  0.89990538309E+02 0.  0.
        -13    1    3    3    0    0 -0.40188346966E+02 -0.11813865788E+02  0.12592947126E+02  0.43740875009E+02  0.10570000000E+00 0. -1.
         13    1    3    3    0    0  0.40188346966E+02  0.11813865788E+02  0.53320573991E+02  0.67806824435E+02  0.10570000000E+00 0.  1.
<mgrwt>
<rscale>  0 0.89990538E+02</rscale>
<asrwt>0</asrwt>
<pdfrwt beam="2">  1        1 0.35103214E-02 0.89990538E+02</pdfrwt>
<pdfrwt beam="1">  1       -1 0.13650863E-01 0.89990538E+02</pdfrwt>
<totfact> 0.85991154E+04</totfact>
</mgrwt>
</event>
<event>
 5    1  0.2734570E+000  0.8947000E+02  0.7818608E-02  0.1304140E+00
         -1   -1    0    0    0  501 -0.00000000000E+00  0.00000000000E+00  0.34933902945E+02  0.34933903257E+02  0.46700000000E-02 0.  1.
          1   -1    0    0  501    0  0.00000000000E+00 -0.00000000000E+00 -0.57285898051E+02  0.57285898241E+02  0.46700000000E-02 0. -1.
         23    2    1    2    0    0  0.00000000000E+00  0.00000000000E+00 -0.22351995106E+02  0.92219801498E+02  0.89469995547E+02 0.  0.
        -13    1    3    3    0    0  0.24554083776E+02 -0.30620340702E+02  0.10947619717E+02  0.40747636063E+02  0.10570000000E+00 0.  1.
         13    1    3    3    0    0 -0.24554083776E+02  0.30620340702E+02 -0.33299614823E+02  0.51472165435E+02  0.10570000000E+00 0. -1.
<mgrwt>
<rscale>  0 0.89469996E+02</rscale>
<asrwt>0</asrwt>
<pdfrwt beam="2">  1        1 0.88132152E-02 0.89469996E+02</pdfrwt>
<pdfrwt beam="1">  1       -1 0.53744466E-02 0.89469996E+02</pdfrwt>
<totfact> 0.10084784E+05</totfact>
</mgrwt>
</event>
<event>
 5    1  0.2734570E+000  0.9810341E+02  0.7818608E-02  0.1284336E+00
         -1   -1    0    0    0  501 -0.00000000000E+00  0.00000000000E+00  0.41890753076E+02  0.41890753336E+02  0.46700000000E-02 0.  1.
          1   -1    0    0  501    0  0.00000000000E+00 -0.00000000000E+00 -0.57436776785E+02  0.57436776975E+02  0.46700000000E-02 0. -1.
         23    2    1    2    0    0  0.00000000000E+00  0.00000000000E+00 -0.15546023709E+02  0.99327530311E+02  0.98103411890E+02 0.  0.
        -13    1    3    3    0    0 -0.26610776962E+02  0.41124517208E+02 -0.10393612276E+02  0.50073922502E+02  0.10570000000E+00 0.  1.
         13    1    3    3    0    0  0.26610776962E+02 -0.41124517208E+02 -0.51524114331E+01  0.49253607809E+02  0.10570000000E+00 0. -1.
<mgrwt>
<rscale>  0 0.98103412E+02</rscale>
<asrwt>0</asrwt>
<pdfrwt beam="2">  1        1 0.88364272E-02 0.98103412E+02</pdfrwt>
<pdfrwt beam="1">  1       -1 0.64447313E-02 0.98103412E+02</pdfrwt>
<totfact> 0.78010878E+04</totfact>
</mgrwt>
</event>
<event>
 5    1  0.2734570E+000  0.9205556E+02  0.7818608E-02  0.1297949E+00
         -1   -1    0    0    0  501 -0.00000000000E+00  0.00000000000E+00  0.12075241571E+03  0.12075241580E+03  0.46700000000E-02 0.  1.
          1   -1    0    0  501    0  0.00000000000E+00 -0.00000000000E+00 -0.17544631845E+02  0.17544632466E+02  0.46700000000E-02 0. -1.
         23    2    1    2    0    0  0.00000000000E+00  0.00000000000E+00  0.10320778386E+03  0.13829704826E+03  0.92055564245E+02 0.  0.
        -13    1    3    3    0    0  0.38842406614E+02 -0.14823766665E+02  0.81274985586E+02  0.91291352625E+02  0.10570000000E+00 0.  1.
         13    1    3    3    0    0 -0.38842406614E+02  0.14823766665E+02  0.21932798276E+02  0.47005695638E+02  0.10570000000E+00 0. -1.
<mgrwt>
<rscale>  0 0.92055564E+02</rscale>
<asrwt>0</asrwt>
<pdfrwt beam="2">  1        1 0.26991741E-02 0.92055564E+02</pdfrwt>
<pdfrwt beam="1">  1       -1 0.18577295E-01 0.92055564E+02</pdfrwt>
<totfact> 0.76506948E+04</totfact>
</mgrwt>
</event>
<event>
 5    1  0.2734570E+000  0.9272043E+02  0.7818608E-02  0.1296394E+00
          1   -1    0    0  501    0  0.00000000000E+00  0.00000000000E+00  0.12058881800E+03  0.12058881809E+03  0.46700000000E-02 0. -1.
         -1   -1    0    0    0  501 -0.00000000000E+00 -0.00000000000E+00 -0.17823122431E+02  0.17823123043E+02  0.46700000000E-02 0.  1.
         23    2    1    2    0    0  0.00000000000E+00  0.00000000000E+00  0.10276569557E+03  0.13841194113E+03  0.92720425272E+02 0.  0.
        -13    1    3    3    0    0  0.31643227227E+02  0.19758776451E+01  0.10187484938E+03  0.10669439550E+03  0.10570000000E+00 0. -1.
         13    1    3    3    0    0 -0.31643227227E+02 -0.19758776451E+01  0.89084618922E+00  0.31717545637E+02  0.10570000000E+00 0.  1.
<mgrwt>
<rscale>  0 0.92720425E+02</rscale>
<asrwt>0</asrwt>
<pdfrwt beam="1">  1        1 0.18552126E-01 0.92720425E+02</pdfrwt>
<pdfrwt beam="2">  1       -1 0.27420189E-02 0.92720425E+02</pdfrwt>
<totfact> 0.10302257E+05</totfact>
</mgrwt>
</event>
<event>
 5    1  0.2734570E+000  0.9831807E+02  0.7818608E-02  0.1283873E+00
          1   -1    0    0  501    0  0.00000000000E+00  0.00000000000E+00  0.66631015344E+02  0.66631015508E+02  0.46700000000E-02 0. -1.
         -1   -1    0    0    0  501 -0.00000000000E+00 -0.00000000000E+00 -0.36268558084E+02  0.36268558384E+02  0.46700000000E-02 0.  1.
         23    2    1    2    0    0  0.00000000000E+00  0.00000000000E+00  0.30362457260E+02  0.10289957389E+03  0.98318073091E+02 0.  0.
        -13    1    3    3    0    0 -0.11924825501E+01 -0.13981103041E+02  0.64490432373E+02  0.65999396187E+02  0.10570000000E+00 0. -1.
         13    1    3    3    0    0  0.11924825501E+01  0.13981103041E+02 -0.34127975113E+02  0.36900177705E+02  0.10570000000E+00 0.  1.
<mgrwt>
<rscale>  0 0.98318073E+02</rscale>
<asrwt>0</asrwt>
<pdfrwt beam="1">  1        1 0.10250925E-01 0.98318073E+02</pdfrwt>
<pdfrwt beam="2">  1       -1 0.55797783E-02 0.98318073E+02</pdfrwt>
<totfact> 0.79401607E+04</totfact>
</mgrwt>
</event>
<event>
 5    1  0.2734570E+000  0.9237880E+02  0.7818608E-02  0.1297191E+00
         -1   -1    0    0    0  501 -0.00000000000E+00  0.00000000000E+00  0.80616099677E+02  0.80616099812E+02  0.46700000000E-02 0.  1.
          1   -1    0    0  501    0  0.00000000000E+00 -0.00000000000E+00 -0.26464446326E+02  0.26464446738E+02  0.46700000000E-02 0. -1.
         23    2    1    2    0    0  0.00000000000E+00  0.00000000000E+00  0.54151653351E+02  0.10708054655E+03  0.92378795667E+02 0.  0.
        -13    1    3    3    0    0 -0.41750413963E+02 -0.83020911566E+01  0.47857466289E+02  0.64049746570E+02  0.10570000000E+00 0.  1.
         13    1    3    3    0    0  0.41750413963E+02  0.83020911566E+01  0.62941870620E+01  0.43030799980E+02  0.10570000000E+00 0. -1.
<mgrwt>
<rscale>  0 0.92378796E+02</rscale>
<asrwt>0</asrwt>
<pdfrwt beam="2">  1        1 0.40714534E-02 0.92378796E+02</pdfrwt>
<pdfrwt beam="1">  1       -1 0.12402477E-01 0.92378796E+02</pdfrwt>
<totfact> 0.81749666E+04</totfact>
</mgrwt>
</event>
<event>
 5    1  0.2734570E+000  0.9291399E+02  0.7818608E-02  0.1295945E+00
         -1   -1    0    0    0  501 -0.00000000000E+00  0.00000000000E+00  0.30688735064E+02  0.30688735419E+02  0.46700000000E-02 0.  1.
          1   -1    0    0  501    0  0.00000000000E+00 -0.00000000000E+00 -0.70327190853E+02  0.70327191008E+02  0.46700000000E-02 0. -1.
         23    2    1    2    0    0  0.00000000000E+00  0.00000000000E+00 -0.39638455789E+02  0.10101592643E+03  0.92913993642E+02 0.  0.
        -13    1    3    3    0    0  0.57221122005E+00  0.15412312720E+02  0.27824056969E+02  0.31812829609E+02  0.10570000000E+00 0.  1.
         13    1    3    3    0    0 -0.57221122005E+00 -0.15412312720E+02 -0.67462512758E+02  0.69203096818E+02  0.10570000000E+00 0. -1.
<mgrwt>
<rscale>  0 0.92913994E+02</rscale>
<asrwt>0</asrwt>
<pdfrwt beam="2">  1        1 0.10819568E-01 0.92913994E+02</pdfrwt>
<pdfrwt beam="1">  1       -1 0.47213439E-02 0.92913994E+02</pdfrwt>
<totfact> 0.93719741E+04</totfact>
</mgrwt>
</event>
<event>
 5    1  0.2734570E+000  0.9186835E+02  0.7818608E-02  0.1298389E+00
          1   -1    0    0  501    0  0.00000000000E+00  0.00000000000E+00  0.30955559070E+03  0.30955559073E+03  0.46700000000E-02 0. -1.
         -1   -1    0    0    0  501 -0.00000000000E+00 -0.00000000000E+00 -0.68160551408E+01  0.68160567406E+01  0.46700000000E-02 0.  1.
         23    2    1    2    0    0  0.00000000000E+00  0.00000000000E+00  0.30273953556E+03  0.31637164747E+03  0.91868345669E+02 0.  0.
        -13    1    3    3    0    0 -0.35837493879E+02 -0.17144256584E+02  0.23077682343E+03  0.23417131530E+03  0.10570000000E+00 0. -1.
         13    1    3    3    0    0  0.35837493879E+02  0.17144256584E+02  0.71962712126E+02  0.82200332179E+02  0.10570000000E+00 0.  1.
<mgrwt>
<rscale>  0 0.91868346E+02</rscale>
<asrwt>0</asrwt>
<pdfrwt beam="1">  1        1 0.47623938E-01 0.91868346E+02</pdfrwt>
<pdfrwt beam="2">  1       -1 0.10486240E-02 0.91868346E+02</pdfrwt>
<totfact> 0.12631599E+05</totfact>
</mgrwt>
</event>
<event>
 5    1  0.2734570E+000  0.9121434E+02  0.7818608E-02  0.1299937E+00
          1   -1    0    0  501    0  0.00000000000E+00  0.00000000000E+00  0.45946869890E+02  0.45946870127E+02  0.46700000000E-02 0. -1.
         -1   -1    0    0    0  501 -0.00000000000E+00 -0.00000000000E+00 -0.45269982787E+02  0.45269983027E+02  0.46700000000E-02 0.  1.
         23    2    1    2    0    0  0.00000000000E+00  0.00000000000E+00  0.67688710325E+00  0.91216853155E+02  0.91214341654E+02 0.  0.
        -13    1    3    3    0    0  0.12755151299E+02  0.11704470106E+02 -0.41856489712E+02  0.45295313319E+02  0.10570000000E+00 0.  1.
         13    1    3    3    0    0 -0.12755151299E+02 -0.11704470106E+02  0.42533376815E+02  0.45921539836E+02  0.10570000000E+00 0. -1.
<mgrwt>
<rscale>  0 0.91214342E+02</rscale>
<asrwt>0</asrwt>
<pdfrwt beam="1">  1        1 0.70687492E-02 0.91214342E+02</pdfrwt>
<pdfrwt beam="2">  1       -1 0.69646128E-02 0.91214342E+02</pdfrwt>
<totfact> 0.92474355E+04</totfact>
</mgrwt>
</event>
<event>
 5    1  0.2734570E+000  0.9154500E+02  0.7818608E-02  0.1299153E+00
          1   -1    0    0  501    0  0.00000000000E+00  0.00000000000E+00  0.34815075530E+02  0.34815075843E+02  0.46700000000E-02 0. -1.
         -1   -1    0    0    0  501 -0.00000000000E+00 -0.00000000000E+00 -0.60178584163E+02  0.60178584345E+02  0.46700000000E-02 0.  1.
         23    2    1    2    0    0  0.00000000000E+00  0.00000000000E+00 -0.25363508634E+02  0.94993660187E+02  0.91545004810E+02 0.  0.
        -13    1    3    3    0    0  0.86864294287E+00 -0.15564762530E+02  0.31975450148E+02  0.35573261839E+02  0.10570000000E+00 0. -1.
         13    1    3    3    0    0 -0.86864294287E+00  0.15564762530E+02 -0.57338958782E+02  0.59420398349E+02  0.10570000000E+00 0.  1.
<mgrwt>
<rscale>  0 0.91545005E+02</rscale>
<asrwt>0</asrwt>
<pdfrwt beam="1">  1        1 0.53561655E-02 0.91545005E+02</pdfrwt>
<pdfrwt beam="2">  1       -1 0.92582438E-02 0.91545005E+02</pdfrwt>
<totfact> 0.87737379E+04</totfact>
</mgrwt>
</event>
<event>
 5    1  0.2734570E+000  0.9049785E+02  0.7818608E-02  0.1301651E+00
          1   -1    0    0  501    0  0.00000000000E+00  0.00000000000E+00  0.83492945760E+02  0.83492945890E+02  0.46700000000E-02 0. -1.
         -1   -1    0    0    0  501 -0.00000000000E+00 -0.00000000000E+00 -0.24522611795E+02  0.24522612240E+02  0.46700000000E-02 0.  1.
         23    2    1    2    0    0  0.00000000000E+00  0.00000000000E+00  0.58970333965E+02  0.10801555813E+03  0.90497848098E+02 0.  0.
        -13    1    3    3    0    0  0.29883446477E+02 -0.17892694499E+02  0.63960248059E+02  0.72829207013E+02  0.10570000000E+00 0. -1.
         13    1    3    3    0    0 -0.29883446477E+02  0.17892694499E+02 -0.49899140945E+01  0.35186351118E+02  0.10570000000E+00 0.  1.
<mgrwt>
<rscale>  0 0.90497848E+02</rscale>
<asrwt>0</asrwt>
<pdfrwt beam="1">  1        1 0.12845068E-01 0.90497848E+02</pdfrwt>
<pdfrwt beam="2">  1       -1 0.37727096E-02 0.90497848E+02</pdfrwt>
<totfact> 0.10352630E+05</totfact>
</mgrwt>
</event>
<event>
 5    1  0.2734570E+000  0.9099920E+02  0.7818608E-02  0.1300450E+00
         -1   -1    0    0    0  501 -0.00000000000E+00  0.00000000000E+00  0.10788075837E+02  0.10788076848E+02  0.46700000000E-02 0.  1.
          1   -1    0    0  501    0  0.00000000000E+00 -0.00000000000E+00 -0.19189829442E+03  0.19189829447E+03  0.46700000000E-02 0. -1.
         23    2    1    2    0    0  0.00000000000E+00  0.00000000000E+00 -0.18111021858E+03  0.20268637132E+03  0.90999196949E+02 0.  0.
        -13    1    3    3    0    0  0.20515840478E+02 -0.38418338167E+02 -0.61230738270E+02  0.75140421210E+02  0.10570000000E+00 0.  1.
         13    1    3    3    0    0 -0.20515840478E+02  0.38418338167E+02 -0.11987948031E+03  0.12754595011E+03  0.10570000000E+00 0. -1.
<mgrwt>
<rscale>  0 0.90999197E+02</rscale>
<asrwt>0</asrwt>
<pdfrwt beam="2">  1        1 0.29522812E-01 0.90999197E+02</pdfrwt>
<pdfrwt beam="1">  1       -1 0.16597042E-02 0.90999197E+02</pdfrwt>
<totfact> 0.11807903E+05</totfact>
</mgrwt>
</event>
<event>
 5    1  0.2734570E+000  0.9050670E+02  0.7818608E-02  0.1301629E+00
          1   -1    0    0  501    0  0.00000000000E+00  0.00000000000E+00  0.20093881683E+03  0.20093881689E+03  0.46700000000E-02 0. -1.
         -1   -1    0    0    0  501 -0.00000000000E+00 -0.00000000000E+00 -0.10191488869E+02  0.10191489939E+02  0.46700000000E-02 0.  1.
         23    2    1    2    0    0  0.00000000000E+00  0.00000000000E+00  0.19074732797E+03  0.21113030683E+03  0.90506703262E+02 0.  0.
        -13    1    3    3    0    0 -0.11411510831E+02 -0.28484062970E+02  0.17783910294E+02  0.35466083242E+02  0.10570000000E+00 0.  1.
         13    1    3    3    0    0  0.11411510831E+02  0.28484062970E+02  0.17296341767E+03  0.17566422359E+03  0.10570000000E+00 0. -1.
<mgrwt>
<rscale>  0 0.90506703E+02</rscale>
<asrwt>0</asrwt>
<pdfrwt beam="1">  1        1 0.30913665E-01 0.90506703E+02</pdfrwt>
<pdfrwt beam="2">  1       -1 0.15679214E-02 0.90506703E+02</pdfrwt>
<totfact> 0.12087940E+05</totfact>
</mgrwt>
</event>
<event>
 5    1  0.2734570E+000  0.9059984E+02  0.7818608E-02  0.1301406E+00
          1   -1    0    0  501    0  0.00000000000E+00  0.00000000000E+00  0.33967868905E+03  0.33967868908E+03  0.46700000000E-02 0. -1.
         -1   -1    0    0    0  501 -0.00000000000E+00 -0.00000000000E+00 -0.60412456417E+01  0.60412474467E+01  0.46700000000E-02 0.  1.
         23    2    1    2    0    0  0.00000000000E+00  0.00000000000E+00  0.33363744341E+03  0.34571993653E+03  0.90599839236E+02 0.  0.
        -13    1    3    3    0    0  0.45951142161E+01 -0.44854765286E+02  0.18345469014E+03  0.18891452975E+03  0.10570000000E+00 0.  1.
         13    1    3    3    0    0 -0.45951142161E+01  0.44854765286E+02  0.15018275327E+03  0.15680540678E+03  0.10570000000E+00 0. -1.
<mgrwt>
<rscale>  0 0.90599839E+02</rscale>
<asrwt>0</asrwt>
<pdfrwt beam="1">  1        1 0.52258249E-01 0.90599839E+02</pdfrwt>
<pdfrwt beam="2">  1       -1 0.92942275E-03 0.90599839E+02</pdfrwt>
<totfact> 0.13335576E+05</totfact>
</mgrwt>
</event>
<event>
 5    1  0.2734570E+000  0.9123938E+02  0.7818608E-02  0.1299878E+00
          1   -1    0    0  501    0  0.00000000000E+00  0.00000000000E+00  0.93347835553E+02  0.93347835669E+02  0.46700000000E-02 0. -1.
         -1   -1    0    0    0  501 -0.00000000000E+00 -0.00000000000E+00 -0.22294635189E+02  0.22294635678E+02  0.46700000000E-02 0.  1.
         23    2    1    2    0    0  0.00000000000E+00  0.00000000000E+00  0.71053200364E+02  0.11564247135E+03  0.91239376902E+02 0.  0.
        -13    1    3    3    0    0  0.43540710163E+02  0.12789031389E+02  0.41443360298E+02  0.61456619259E+02  0.10570000000E+00 0. -1.
         13    1    3    3    0    0 -0.43540710163E+02 -0.12789031389E+02  0.29609840065E+02  0.54185852089E+02  0.10570000000E+00 0.  1.
<mgrwt>
<rscale>  0 0.91239377E+02</rscale>
<asrwt>0</asrwt>
<pdfrwt beam="1">  1        1 0.14361205E-01 0.91239377E+02</pdfrwt>
<pdfrwt beam="2">  1       -1 0.34299439E-02 0.91239377E+02</pdfrwt>
<totfact> 0.10307938E+05</totfact>
</mgrwt>
</event>
<event>
 5    1  0.2734570E+000  0.8799529E+02  0.7818608E-02  0.1307780E+00
         -1   -1    0    0    0  501 -0.00000000000E+00  0.00000000000E+00  0.89692678477E+01  0.89692690635E+01  0.46700000000E-02 0.  1.
          1   -1    0    0  501    0  0.00000000000E+00 -0.00000000000E+00 -0.21582502594E+03  0.21582502599E+03  0.46700000000E-02 0. -1.
         23    2    1    2    0    0  0.00000000000E+00  0.00000000000E+00 -0.20685575809E+03  0.22479429506E+03  0.87995286425E+02 0.  0.
        -13    1    3    3    0    0  0.28030818846E+02 -0.31688727824E+02 -0.13428266246E+03  0.14078972579E+03  0.10570000000E+00 0. -1.
         13    1    3    3    0    0 -0.28030818846E+02  0.31688727824E+02 -0.72573095632E+02  0.84004569271E+02  0.10570000000E+00 0.  1.
<mgrwt>
<rscale>  0 0.87995286E+02</rscale>
<asrwt>0</asrwt>
<pdfrwt beam="2">  1        1 0.33203846E-01 0.87995286E+02</pdfrwt>
<pdfrwt beam="1">  1       -1 0.13798876E-02 0.87995286E+02</pdfrwt>
<totfact> 0.13213377E+05</totfact>
</mgrwt>
</event>
<event>
 5    1  0.2734570E+000  0.9208686E+02  0.7818608E-02  0.1297875E+00
          1   -1    0    0  501    0  0.00000000000E+00  0.00000000000E+00  0.15072094718E+02  0.15072095442E+02  0.46700000000E-02 0. -1.
         -1   -1    0    0    0  501 -0.00000000000E+00 -0.00000000000E+00 -0.14065711297E+03  0.14065711305E+03  0.46700000000E-02 0.  1.
         23    2    1    2    0    0  0.00000000000E+00  0.00000000000E+00 -0.12558501825E+03  0.15572920849E+03  0.92086858820E+02 0.  0.
        -13    1    3    3    0    0  0.44243273540E+02  0.76435784596E+01 -0.45538633138E+02  0.63950526391E+02  0.10570000000E+00 0. -1.
         13    1    3    3    0    0 -0.44243273540E+02 -0.76435784596E+01 -0.80046385114E+02  0.91778682097E+02  0.10570000000E+00 0.  1.
<mgrwt>
<rscale>  0 0.92086859E+02</rscale>
<asrwt>0</asrwt>
<pdfrwt beam="1">  1        1 0.23187840E-02 0.92086859E+02</pdfrwt>
<pdfrwt beam="2">  1       -1 0.21639555E-01 0.92086859E+02</pdfrwt>
<totfact> 0.73968537E+04</totfact>
</mgrwt>
</event>
<event>
 5    1  0.2734570E+000  0.9700777E+02  0.7818608E-02  0.1286717E+00
          1   -1    0    0  501    0  0.00000000000E+00  0.00000000000E+00  0.25510227154E+02  0.25510227581E+02  0.46700000000E-02 0. -1.
         -1   -1    0    0    0  501 -0.00000000000E+00 -0.00000000000E+00 -0.92222880753E+02  0.92222880871E+02  0.46700000000E-02 0.  1.
         23    2    1    2    0    0  0.00000000000E+00  0.00000000000E+00 -0.66712653599E+02  0.11773310845E+03  0.97007766058E+02 0.  0.
        -13    1    3    3    0    0  0.42574792152E+02 -0.16995933369E+02 -0.14123161693E+02  0.47968213919E+02  0.10570000000E+00 0. -1.
         13    1    3    3    0    0 -0.42574792152E+02  0.16995933369E+02 -0.52589491906E+02  0.69764894533E+02  0.10570000000E+00 0.  1.
<mgrwt>
<rscale>  0 0.97007766E+02</rscale>
<asrwt>0</asrwt>
<pdfrwt beam="1">  1        1 0.39246504E-02 0.97007766E+02</pdfrwt>
<pdfrwt beam="2">  1       -1 0.14188135E-01 0.97007766E+02</pdfrwt>
<totfact> 0.70402163E+04</totfact>
</mgrwt>
</event>
<event>
 5    1  0.2734570E+000  0.9315217E+02  0.7818608E-02  0.1295393E+00
          1   -1    0    0  501    0  0.00000000000E+00  0.00000000000E+00  0.29066274443E+02  0.29066274818E+02  0.46700000000E-02 0. -1.
         -1   -1    0    0    0  501 -0.00000000000E+00 -0.00000000000E+00 -0.74633971886E+02  0.74633972032E+02  0.46700000000E-02 0.  1.
         23    2    1    2    0    0  0.00000000000E+00  0.00000000000E+00 -0.45567697442E+02  0.10370024685E+03  0.93152166623E+02 0.  0.
        -13    1    3    3    0    0  0.43224886838E+02  0.11773925114E+02 -0.36966313750E+02  0.58082145962E+02  0.10570000000E+00 0.  1.
         13    1    3    3    0    0 -0.43224886838E+02 -0.11773925114E+02 -0.86013836928E+01  0.45618100889E+02  0.10570000000E+00 0. -1.
<mgrwt>
<rscale>  0 0.93152167E+02</rscale>
<asrwt>0</asrwt>
<pdfrwt beam="1">  1        1 0.44717346E-02 0.93152167E+02</pdfrwt>
<pdfrwt beam="2">  1       -1 0.11482150E-01 0.93152167E+02</pdfrwt>
<totfact> 0.81069709E+04</totfact>
</mgrwt>
</event>
<event>
 5    1  0.2734570E+000  0.9114855E+02  0.7818608E-02  0.1300094E+00
          1   -1    0    0  501    0  0.00000000000E+00  0.00000000000E+00  0.86846257718E+02  0.86846257843E+02  0.46700000000E-02 0. -1.
         -1   -1    0    0    0  501 -0.00000000000E+00 -0.00000000000E+00 -0.23915991623E+02  0.23915992079E+02  0.46700000000E-02 0.  1.
         23    2    1    2    0    0  0.00000000000E+00  0.00000000000E+00  0.62930266095E+02  0.11076224992E+03  0.91148546983E+02 0.  0.
        -13    1    3    3    0    0  0.18435987939E+02  0.40688935925E+02  0.42437380919E+02  0.61615076319E+02  0.10570000000E+00 0. -1.
         13    1    3    3    0    0 -0.18435987939E+02 -0.40688935925E+02  0.20492885175E+02  0.49147173604E+02  0.10570000000E+00 0.  1.
<mgrwt>
<rscale>  0 0.91148547E+02</rscale>
<asrwt>0</asrwt>
<pdfrwt beam="1">  1        1 0.13360963E-01 0.91148547E+02</pdfrwt>
<pdfrwt beam="2">  1       -1 0.36793833E-02 0.91148547E+02</pdfrwt>
<totfact> 0.10215748E+05</totfact>
</mgrwt>
</event>
<event>
 5    1  0.2734570E+000  0.8768720E+02  0.7818608E-02  0.1308551E+00
         -1   -1    0    0    0  501 -0.00000000000E+00  0.00000000000E+00  0.32198704454E+03  0.32198704458E+03  0.46700000000E-02 0.  1.
          1   -1    0    0  501    0  0.00000000000E+00 -0.00000000000E+00 -0.59699951883E+01  0.59699970148E+01  0.46700000000E-02 0. -1.
         23    2    1    2    0    0  0.00000000000E+00  0.00000000000E+00  0.31601704935E+03  0.32795704159E+03  0.87687203437E+02 0.  0.
        -13    1    3    3    0    0  0.17826655311E+02  0.36737142140E+02  0.98302647401E+02  0.10644636636E+03  0.10570000000E+00 0. -1.
         13    1    3    3    0    0 -0.17826655311E+02 -0.36737142140E+02  0.21771440195E+03  0.22151067523E+03  0.10570000000E+00 0.  1.
<mgrwt>
<rscale>  0 0.87687203E+02</rscale>
<asrwt>0</asrwt>
<pdfrwt beam="2">  1        1 0.91846081E-03 0.87687203E+02</pdfrwt>
<pdfrwt beam="1">  1       -1 0.49536476E-01 0.87687203E+02</pdfrwt>
<totfact> 0.65190019E+04</totfact>
</mgrwt>
</event>
<event>
 5    1  0.2734570E+000  0.9469618E+02  0.7818608E-02  0.1291862E+00
          1   -1    0    0  501    0  0.00000000000E+00  0.00000000000E+00  0.80257877459E+02  0.80257877595E+02  0.46700000000E-02 0. -1.
         -1   -1    0    0    0  501 -0.00000000000E+00 -0.00000000000E+00 -0.27932980326E+02  0.27932980716E+02  0.46700000000E-02 0.  1.
         23    2    1    2    0    0  0.00000000000E+00  0.00000000000E+00  0.52324897134E+02  0.10819085831E+03  0.94696182405E+02 0.  0.
        -13    1    3    3    0    0  0.11681924499E+02  0.22082463318E+02  0.72115129022E+02  0.76319758598E+02  0.10570000000E+00 0. -1.
         13    1    3    3    0    0 -0.11681924499E+02 -0.22082463318E+02 -0.19790231888E+02  0.31871099713E+02  0.10570000000E+00 0.  1.
<mgrwt>
<rscale>  0 0.94696182E+02</rscale>
<asrwt>0</asrwt>
<pdfrwt beam="1">  1        1 0.12347366E-01 0.94696182E+02</pdfrwt>
<pdfrwt beam="2">  1       -1 0.42973817E-02 0.94696182E+02</pdfrwt>
<totfact> 0.90811371E+04</totfact>
</mgrwt>
</event>
<event>
 5    1  0.2734570E+000  0.1104241E+03  0.7818608E-02  0.1259787E+00
          1   -1    0    0  501    0  0.00000000000E+00  0.00000000000E+00  0.70224076808E+02  0.70224076964E+02  0.46700000000E-02 0. -1.
         -1   -1    0    0    0  501 -0.00000000000E+00 -0.00000000000E+00 -0.43409165341E+02  0.43409165592E+02  0.46700000000E-02 0.  1.
         23    2    1    2    0    0  0.00000000000E+00  0.00000000000E+00  0.26814911468E+02  0.11363324256E+03  0.11042406593E+03 0.  0.
        -13    1    3    3    0    0 -0.18878277911E+02  0.40465418601E+02 -0.20009635933E+02  0.48930932773E+02  0.10570000000E+00 0.  1.
         13    1    3    3    0    0  0.18878277911E+02 -0.40465418601E+02  0.46824547400E+02  0.64702309782E+02  0.10570000000E+00 0. -1.
<mgrwt>
<rscale>  0 0.11042407E+03</rscale>
<asrwt>0</asrwt>
<pdfrwt beam="1">  1        1 0.10803704E-01 0.11042407E+03</pdfrwt>
<pdfrwt beam="2">  1       -1 0.66783332E-02 0.11042407E+03</pdfrwt>
<totfact> 0.57764270E+04</totfact>
</mgrwt>
</event>
<event>
 5    1  0.2734570E+000  0.8977536E+02  0.7818608E-02  0.1303397E+00
         -1   -1    0    0    0  501 -0.00000000000E+00  0.00000000000E+00  0.33615263211E+03  0.33615263214E+03  0.46700000000E-02 0.  1.
          1   -1    0    0  501    0  0.00000000000E+00 -0.00000000000E+00 -0.59940133149E+01  0.59940151341E+01  0.46700000000E-02 0. -1.
         23    2    1    2    0    0  0.00000000000E+00  0.00000000000E+00  0.33015861879E+03  0.34214664727E+03  0.89775356740E+02 0.  0.
        -13    1    3    3    0    0 -0.32374879900E+02 -0.28448449208E+02  0.21290047067E+03  0.21721894184E+03  0.10570000000E+00 0.  1.
         13    1    3    3    0    0  0.32374879900E+02  0.28448449208E+02  0.11725814812E+03  0.12492770543E+03  0.10570000000E+00 0. -1.
<mgrwt>
<rscale>  0 0.89775357E+02</rscale>
<asrwt>0</asrwt>
<pdfrwt beam="2">  1        1 0.92215569E-03 0.89775357E+02</pdfrwt>
<pdfrwt beam="1">  1       -1 0.51715809E-01 0.89775357E+02</pdfrwt>
<totfact> 0.60194907E+04</totfact>
</mgrwt>
</event>
<event>
 5    1  0.2734570E+000  0.9230987E+02  0.7818608E-02  0.1297352E+00
          1   -1    0    0  501    0  0.00000000000E+00  0.00000000000E+00  0.22458140876E+03  0.22458140881E+03  0.46700000000E-02 0. -1.
         -1   -1    0    0    0  501 -0.00000000000E+00 -0.00000000000E+00 -0.94855489917E+01  0.94855501413E+01  0.46700000000E-02 0.  1.
         23    2    1    2    0    0  0.00000000000E+00  0.00000000000E+00  0.21509585977E+03  0.23406695895E+03  0.92309871533E+02 0.  0.
        -13    1    3    3    0    0  0.33304832920E+02 -0.30128763354E+02  0.13453968697E+03  0.14183755786E+03  0.10570000000E+00 0. -1.
         13    1    3    3    0    0 -0.33304832920E+02  0.30128763354E+02  0.80556172795E+02  0.92229401087E+02  0.10570000000E+00 0.  1.
<mgrwt>
<rscale>  0 0.92309872E+02</rscale>
<asrwt>0</asrwt>
<pdfrwt beam="1">  1        1 0.34550985E-01 0.92309872E+02</pdfrwt>
<pdfrwt beam="2">  1       -1 0.14593154E-02 0.92309872E+02</pdfrwt>
<totfact> 0.11716649E+05</totfact>
</mgrwt>
</event>
<event>
 5    1  0.2734570E+000  0.9189602E+02  0.7818608E-02  0.1298324E+00
          1   -1    0    0  501    0  0.00000000000E+00  0.00000000000E+00  0.10556396294E+03  0.10556396305E+03  0.46700000000E-02 0. -1.
         -1   -1    0    0    0  501 -0.00000000000E+00 -0.00000000000E+00 -0.19999436792E+02  0.19999437337E+02  0.46700000000E-02 0.  1.
         23    2    1    2    0    0  0.00000000000E+00  0.00000000000E+00  0.85564526153E+02  0.12556340038E+03  0.91896024835E+02 0.  0.
        -13    1    3    3    0    0 -0.53344994256E+01  0.39736404555E+02  0.73450052200E+02  0.83680105591E+02  0.10570000000E+00 0. -1.
         13    1    3    3    0    0  0.53344994256E+01 -0.39736404555E+02  0.12114473953E+02  0.41883294793E+02  0.10570000000E+00 0.  1.
<mgrwt>
<rscale>  0 0.91896025E+02</rscale>
<asrwt>0</asrwt>
<pdfrwt beam="1">  1        1 0.16240609E-01 0.91896025E+02</pdfrwt>
<pdfrwt beam="2">  1       -1 0.30768365E-02 0.91896025E+02</pdfrwt>
<totfact> 0.10316926E+05</totfact>
</mgrwt>
</event>
<event>
 5    1  0.2734570E+000  0.8567373E+02  0.7818608E-02  0.1313680E+00
          1   -1    0    0  501    0  0.00000000000E+00  0.00000000000E+00  0.55149699497E+02  0.55149699695E+02  0.46700000000E-02 0. -1.
         -1   -1    0    0    0  501 -0.00000000000E+00 -0.00000000000E+00 -0.33273019458E+02  0.33273019786E+02  0.46700000000E-02 0.  1.
         23    2    1    2    0    0  0.00000000000E+00  0.00000000000E+00  0.21876680039E+02  0.88422719481E+02  0.85673731043E+02 0.  0.
        -13    1    3    3    0    0  0.16151506618E+02 -0.62984404615E+01  0.51367224584E+02  0.54213876934E+02  0.10570000000E+00 0. -1.
         13    1    3    3    0    0 -0.16151506618E+02  0.62984404615E+01 -0.29490544545E+02  0.34208842546E+02  0.10570000000E+00 0.  1.
<mgrwt>
<rscale>  0 0.85673731E+02</rscale>
<asrwt>0</asrwt>
<pdfrwt beam="1">  1        1 0.84845691E-02 0.85673731E+02</pdfrwt>
<pdfrwt beam="2">  1       -1 0.51189261E-02 0.85673731E+02</pdfrwt>
<totfact> 0.11304714E+05</totfact>
</mgrwt>
</event>
<event>
 5    1  0.2734570E+000  0.9145565E+02  0.7818608E-02  0.1299364E+00
         -1   -1    0    0    0  501 -0.00000000000E+00  0.00000000000E+00  0.26987326320E+02  0.26987326724E+02  0.46700000000E-02 0.  1.
          1   -1    0    0  501    0  0.00000000000E+00 -0.00000000000E+00 -0.77482075468E+02  0.77482075608E+02  0.46700000000E-02 0. -1.
         23    2    1    2    0    0  0.00000000000E+00  0.00000000000E+00 -0.50494749148E+02  0.10446940233E+03  0.91455652270E+02 0.  0.
        -13    1    3    3    0    0  0.75730931392E-01 -0.22650434534E+02 -0.70623626100E+02  0.74167079326E+02  0.10570000000E+00 0. -1.
         13    1    3    3    0    0 -0.75730931392E-01  0.22650434534E+02  0.20128876952E+02  0.30302323006E+02  0.10570000000E+00 0.  1.
<mgrwt>
<rscale>  0 0.91455652E+02</rscale>
<asrwt>0</asrwt>
<pdfrwt beam="2">  1        1 0.11920319E-01 0.91455652E+02</pdfrwt>
<pdfrwt beam="1">  1       -1 0.41518964E-02 0.91455652E+02</pdfrwt>
<totfact> 0.99400089E+04</totfact>
</mgrwt>
</event>
<event>
 5    1  0.2734570E+000  0.9092529E+02  0.7818608E-02  0.1300626E+00
         -1   -1    0    0    0  501 -0.00000000000E+00  0.00000000000E+00  0.58352598277E+01  0.58352616964E+01  0.46700000000E-02 0.  1.
          1   -1    0    0  501    0  0.00000000000E+00 -0.00000000000E+00 -0.35420046481E+03  0.35420046484E+03  0.46700000000E-02 0. -1.
         23    2    1    2    0    0  0.00000000000E+00  0.00000000000E+00 -0.34836520498E+03  0.36003572654E+03  0.90925289886E+02 0.  0.
        -13    1    3    3    0    0 -0.43699974550E+02  0.96189097269E+01 -0.20601556198E+03  0.21081896060E+03  0.10570000000E+00 0. -1.
         13    1    3    3    0    0  0.43699974550E+02 -0.96189097269E+01 -0.14234964301E+03  0.14921676594E+03  0.10570000000E+00 0.  1.
<mgrwt>
<rscale>  0 0.90925290E+02</rscale>
<asrwt>0</asrwt>
<pdfrwt beam="2">  1        1 0.54492362E-01 0.90925290E+02</pdfrwt>
<pdfrwt beam="1">  1       -1 0.89773271E-03 0.90925290E+02</pdfrwt>
<totfact> 0.13308664E+05</totfact>
</mgrwt>
</event>
<event>
 5    1  0.2734570E+000  0.9449168E+02  0.7818608E-02  0.1292325E+00
          1   -1    0    0  501    0  0.00000000000E+00  0.00000000000E+00  0.29537259092E+03  0.29537259095E+03  0.46700000000E-02 0. -1.
         -1   -1    0    0    0  501 -0.00000000000E+00 -0.00000000000E+00 -0.75571309175E+01  0.75571323604E+01  0.46700000000E-02 0.  1.
         23    2    1    2    0    0  0.00000000000E+00  0.00000000000E+00  0.28781546000E+03  0.30292972331E+03  0.94491683510E+02 0.  0.
        -13    1    3    3    0    0  0.40181785387E+02 -0.13850998641E+02  0.77759743705E+02  0.88617238468E+02  0.10570000000E+00 0.  1.
         13    1    3    3    0    0 -0.40181785387E+02  0.13850998641E+02  0.21005571629E+03  0.21431248485E+03  0.10570000000E+00 0. -1.
<mgrwt>
<rscale>  0 0.94491684E+02</rscale>
<asrwt>0</asrwt>
<pdfrwt beam="1">  1        1 0.45441938E-01 0.94491684E+02</pdfrwt>
<pdfrwt beam="2">  1       -1 0.11626356E-02 0.94491684E+02</pdfrwt>
<totfact> 0.11611822E+05</totfact>
</mgrwt>
</event>
<event>
 5    1  0.2734570E+000  0.9161189E+02  0.7818608E-02  0.1298995E+00
         -1   -1    0    0    0  501 -0.00000000000E+00  0.00000000000E+00  0.49999961528E+02  0.49999961746E+02  0.46700000000E-02 0.  1.
          1   -1    0    0  501    0  0.00000000000E+00 -0.00000000000E+00 -0.41963728110E+02  0.41963728370E+02  0.46700000000E-02 0. -1.
         23    2    1    2    0    0  0.00000000000E+00  0.00000000000E+00  0.80362334176E+01  0.91963690116E+02  0.91611894710E+02 0.  0.
        -13    1    3    3    0    0 -0.44002779758E+02 -0.76332662239E+01 -0.62024472985E+01  0.45088722589E+02  0.10570000000E+00 0. -1.
         13    1    3    3    0    0  0.44002779758E+02  0.76332662239E+01  0.14238680716E+02  0.46874967528E+02  0.10570000000E+00 0.  1.
<mgrwt>
<rscale>  0 0.91611895E+02</rscale>
<asrwt>0</asrwt>
<pdfrwt beam="2">  1        1 0.64559582E-02 0.91611895E+02</pdfrwt>
<pdfrwt beam="1">  1       -1 0.76923018E-02 0.91611895E+02</pdfrwt>
<totfact> 0.90106106E+04</totfact>
</mgrwt>
</event>
<event>
 5    1  0.2734570E+000  0.9092852E+02  0.7818608E-02  0.1300619E+00
          1   -1    0    0  501    0  0.00000000000E+00  0.00000000000E+00  0.33753705478E+03  0.33753705482E+03  0.46700000000E-02 0. -1.
         -1   -1    0    0    0  501 -0.00000000000E+00 -0.00000000000E+00 -0.61237680254E+01  0.61237698061E+01  0.46700000000E-02 0.  1.
         23    2    1    2    0    0  0.00000000000E+00  0.00000000000E+00  0.33141328676E+03  0.34366082462E+03  0.90928519949E+02 0.  0.
        -13    1    3    3    0    0  0.27391613182E+02  0.33471091736E+02  0.11274381941E+03  0.12075510110E+03  0.10570000000E+00 0.  1.
         13    1    3    3    0    0 -0.27391613182E+02 -0.33471091736E+02  0.21866946735E+03  0.22290572352E+03  0.10570000000E+00 0. -1.
<mgrwt>
<rscale>  0 0.90928520E+02</rscale>
<asrwt>0</asrwt>
<pdfrwt beam="1">  1        1 0.51928806E-01 0.90928520E+02</pdfrwt>
<pdfrwt beam="2">  1       -1 0.94211778E-03 0.90928520E+02</pdfrwt>
<totfact> 0.13192704E+05</totfact>
</mgrwt>
</event>
<event>
 5    1  0.2734570E+000  0.9074603E+02  0.7818608E-02  0.1301055E+00
         -1   -1    0    0    0  501 -0.00000000000E+00  0.00000000000E+00  0.11904584531E+03  0.11904584540E+03  0.46700000000E-02 0.  1.
          1   -1    0    0  501    0  0.00000000000E+00 -0.00000000000E+00 -0.17293426427E+02  0.17293427057E+02  0.46700000000E-02 0. -1.
         23    2    1    2    0    0  0.00000000000E+00  0.00000000000E+00  0.10175241889E+03  0.13633927246E+03  0.90746032785E+02 0.  0.
        -13    1    3    3    0    0  0.33920994590E+02 -0.20491627747E+02  0.84071300862E+02  0.92943722127E+02  0.10570000000E+00 0.  1.
         13    1    3    3    0    0 -0.33920994590E+02  0.20491627747E+02  0.17681118023E+02  0.43395550334E+02  0.10570000000E+00 0. -1.
<mgrwt>
<rscale>  0 0.90746033E+02</rscale>
<asrwt>0</asrwt>
<pdfrwt beam="2">  1        1 0.26605273E-02 0.90746033E+02</pdfrwt>
<pdfrwt beam="1">  1       -1 0.18314745E-01 0.90746033E+02</pdfrwt>
<totfact> 0.79627136E+04</totfact>
</mgrwt>
</event>
<event>
 5    1  0.2734570E+000  0.9157611E+02  0.7818608E-02  0.1299079E+00
         -1   -1    0    0    0  501 -0.00000000000E+00  0.00000000000E+00  0.98692509412E+01  0.98692520461E+01  0.46700000000E-02 0. -1.
          1   -1    0    0  501    0  0.00000000000E+00 -0.00000000000E+00 -0.21243209606E+03  0.21243209611E+03  0.46700000000E-02 0.  1.
         23    2    1    2    0    0  0.00000000000E+00  0.00000000000E+00 -0.20256284512E+03  0.22230134816E+03  0.91576105890E+02 0.  0.
        -13    1    3    3    0    0 -0.35335428362E+02 -0.14689345526E+02 -0.40246944612E+02  0.55535548009E+02  0.10570000000E+00 0. -1.
         13    1    3    3    0    0  0.35335428362E+02  0.14689345526E+02 -0.16231590051E+03  0.16676580015E+03  0.10570000000E+00 0.  1.
<mgrwt>
<rscale>  0 0.91576106E+02</rscale>
<asrwt>0</asrwt>
<pdfrwt beam="2">  1        1 0.32681858E-01 0.91576106E+02</pdfrwt>
<pdfrwt beam="1">  1       -1 0.15183465E-02 0.91576106E+02</pdfrwt>
<totfact> 0.11840697E+05</totfact>
</mgrwt>
</event>
<event>
 5    1  0.2734570E+000  0.8966100E+02  0.7818608E-02  0.1303675E+00
          1   -1    0    0  501    0  0.00000000000E+00  0.00000000000E+00  0.17202770986E+03  0.17202770992E+03  0.46700000000E-02 0. -1.
         -1   -1    0    0    0  501 -0.00000000000E+00 -0.00000000000E+00 -0.11682847945E+02  0.11682848878E+02  0.46700000000E-02 0.  1.
         23    2    1    2    0    0  0.00000000000E+00  0.00000000000E+00  0.16034486191E+03  0.18371055880E+03  0.89660998615E+02 0.  0.
        -13    1    3    3    0    0  0.23423079466E+02 -0.29633789852E+02  0.30701503472E+02  0.48676438249E+02  0.10570000000E+00 0.  1.
         13    1    3    3    0    0 -0.23423079466E+02  0.29633789852E+02  0.12964335844E+03  0.13503412055E+03  0.10570000000E+00 0. -1.
<mgrwt>
<rscale>  0 0.89660999E+02</rscale>
<asrwt>0</asrwt>
<pdfrwt beam="1">  1        1 0.26465801E-01 0.89660999E+02</pdfrwt>
<pdfrwt beam="2">  1       -1 0.17973613E-02 0.89660999E+02</pdfrwt>
<totfact> 0.12032920E+05</totfact>
</mgrwt>
</event>
<event>
 5    1  0.2734570E+000  0.9185084E+02  0.7818608E-02  0.1298431E+00
          1   -1    0    0  501    0  0.00000000000E+00  0.00000000000E+00  0.37572222022E+02  0.37572222312E+02  0.46700000000E-02 0. -1.
         -1   -1    0    0    0  501 -0.00000000000E+00 -0.00000000000E+00 -0.56135728156E+02  0.56135728350E+02  0.46700000000E-02 0.  1.
         23    2    1    2    0    0  0.00000000000E+00  0.00000000000E+00 -0.18563506134E+02  0.93707950663E+02  0.91850836999E+02 0.  0.
        -13    1    3    3    0    0  0.48264056467E+01  0.12260126526E+02  0.35602401674E+02  0.37962442906E+02  0.10570000000E+00 0. -1.
         13    1    3    3    0    0 -0.48264056467E+01 -0.12260126526E+02 -0.54165907808E+02  0.55745507757E+02  0.10570000000E+00 0.  1.
<mgrwt>
<rscale>  0 0.91850837E+02</rscale>
<asrwt>0</asrwt>
<pdfrwt beam="1">  1        1 0.57803419E-02 0.91850837E+02</pdfrwt>
<pdfrwt beam="2">  1       -1 0.86362659E-02 0.91850837E+02</pdfrwt>
<totfact> 0.87943433E+04</totfact>
</mgrwt>
</event>
<event>
 5    1  0.2734570E+000  0.8832764E+02  0.7818608E-02  0.1306953E+00
          1   -1    0    0  501    0  0.00000000000E+00  0.00000000000E+00  0.19330613199E+02  0.19330613763E+02  0.46700000000E-02 0.  1.
         -1   -1    0    0    0  501 -0.00000000000E+00 -0.00000000000E+00 -0.10089918497E+03  0.10089918507E+03  0.46700000000E-02 0. -1.
         23    2    1    2    0    0  0.00000000000E+00  0.00000000000E+00 -0.81568571768E+02  0.12022979884E+03  0.88327643624E+02 0.  0.
        -13    1    3    3    0    0 -0.24289274956E+02 -0.84579013007E+01  0.80842849828E+01  0.26960560241E+02  0.10570000000E+00 0.  1.
         13    1    3    3    0    0  0.24289274956E+02  0.84579013007E+01 -0.89652856751E+02  0.93269238597E+02  0.10570000000E+00 0. -1.
<mgrwt>
<rscale>  0 0.88327644E+02</rscale>
<asrwt>0</asrwt>
<pdfrwt beam="1">  1        1 0.29739406E-02 0.88327644E+02</pdfrwt>
<pdfrwt beam="2">  1       -1 0.15522951E-01 0.88327644E+02</pdfrwt>
<totfact> 0.88146786E+04</totfact>
</mgrwt>
</event>
<event>
 5    1  0.2734570E+000  0.9364179E+02  0.7818608E-02  0.1294265E+00
          1   -1    0    0  501    0  0.00000000000E+00  0.00000000000E+00  0.46075017300E+02  0.46075017537E+02  0.46700000000E-02 0. -1.
         -1   -1    0    0    0  501 -0.00000000000E+00 -0.00000000000E+00 -0.47578850549E+02  0.47578850778E+02  0.46700000000E-02 0.  1.
         23    2    1    2    0    0  0.00000000000E+00  0.00000000000E+00 -0.15038332494E+01  0.93653868315E+02  0.93641793746E+02 0.  0.
        -13    1    3    3    0    0 -0.21511370632E+02  0.29359185991E+02  0.28704968336E+02  0.46353934549E+02  0.10570000000E+00 0.  1.
         13    1    3    3    0    0  0.21511370632E+02 -0.29359185991E+02 -0.30208801586E+02  0.47299933766E+02  0.10570000000E+00 0. -1.
<mgrwt>
<rscale>  0 0.93641794E+02</rscale>
<asrwt>0</asrwt>
<pdfrwt beam="1">  1        1 0.70884642E-02 0.93641794E+02</pdfrwt>
<pdfrwt beam="2">  1       -1 0.73198232E-02 0.93641794E+02</pdfrwt>
<totfact> 0.85921257E+04</totfact>
</mgrwt>
</event>
<event>
 5    1  0.2734570E+000  0.8973018E+02  0.7818608E-02  0.1303506E+00
          1   -1    0    0  501    0  0.00000000000E+00  0.00000000000E+00  0.11307270987E+03  0.11307270997E+03  0.46700000000E-02 0. -1.
         -1   -1    0    0    0  501 -0.00000000000E+00 -0.00000000000E+00 -0.17801609916E+02  0.17801610528E+02  0.46700000000E-02 0.  1.
         23    2    1    2    0    0  0.00000000000E+00  0.00000000000E+00  0.95271099954E+02  0.13087432049E+03  0.89730180422E+02 0.  0.
        -13    1    3    3    0    0  0.14676843015E+02 -0.32084829529E+02  0.88056072236E+02  0.94861631005E+02  0.10570000000E+00 0. -1.
         13    1    3    3    0    0 -0.14676843015E+02  0.32084829529E+02  0.72150277174E+01  0.36012689489E+02  0.10570000000E+00 0.  1.
<mgrwt>
<rscale>  0 0.89730180E+02</rscale>
<asrwt>0</asrwt>
<pdfrwt beam="1">  1        1 0.17395802E-01 0.89730180E+02</pdfrwt>
<pdfrwt beam="2">  1       -1 0.27387093E-02 0.89730180E+02</pdfrwt>
<totfact> 0.11136627E+05</totfact>
</mgrwt>
</event>
<event>
 5    1  0.2734570E+000  0.9759529E+02  0.7818608E-02  0.1285436E+00
         -1   -1    0    0    0  501 -0.00000000000E+00  0.00000000000E+00  0.20096757339E+02  0.20096757882E+02  0.46700000000E-02 0.  1.
          1   -1    0    0  501    0  0.00000000000E+00 -0.00000000000E+00 -0.11848727992E+03  0.11848728002E+03  0.46700000000E-02 0. -1.
         23    2    1    2    0    0  0.00000000000E+00  0.00000000000E+00 -0.98390522586E+02  0.13858403790E+03  0.97595289976E+02 0.  0.
        -13    1    3    3    0    0  0.44056858922E+02 -0.63330477323E+01 -0.20792516666E+02  0.49126919641E+02  0.10570000000E+00 0.  1.
         13    1    3    3    0    0 -0.44056858922E+02  0.63330477323E+01 -0.77598005920E+02  0.89457118257E+02  0.10570000000E+00 0. -1.
<mgrwt>
<rscale>  0 0.97595290E+02</rscale>
<asrwt>0</asrwt>
<pdfrwt beam="2">  1        1 0.18228812E-01 0.97595290E+02</pdfrwt>
<pdfrwt beam="1">  1       -1 0.30918089E-02 0.97595290E+02</pdfrwt>
<totfact> 0.89301214E+04</totfact>
</mgrwt>
</event>
<event>
 5    1  0.2734570E+000  0.9021004E+02  0.7818608E-02  0.1302344E+00
          1   -1    0    0  501    0  0.00000000000E+00  0.00000000000E+00  0.70637943417E+02  0.70637943572E+02  0.46700000000E-02 0. -1.
         -1   -1    0    0    0  501 -0.00000000000E+00 -0.00000000000E+00 -0.28801273280E+02  0.28801273659E+02  0.46700000000E-02 0.  1.
         23    2    1    2    0    0  0.00000000000E+00  0.00000000000E+00  0.41836670137E+02  0.99439217231E+02  0.90210037996E+02 0.  0.
        -13    1    3    3    0    0 -0.28445108787E+02 -0.34404571590E+02  0.28032516941E+02  0.52712730329E+02  0.10570000000E+00 0. -1.
         13    1    3    3    0    0  0.28445108787E+02  0.34404571590E+02  0.13804153196E+02  0.46726486901E+02  0.10570000000E+00 0.  1.
<mgrwt>
<rscale>  0 0.90210038E+02</rscale>
<asrwt>0</asrwt>
<pdfrwt beam="1">  1        1 0.10867376E-01 0.90210038E+02</pdfrwt>
<pdfrwt beam="2">  1       -1 0.44309652E-02 0.90210038E+02</pdfrwt>
<totfact> 0.10174792E+05</totfact>
</mgrwt>
</event>
<event>
 5    1  0.2734570E+000  0.9131185E+02  0.7818608E-02  0.1299706E+00
         -1   -1    0    0    0  501 -0.00000000000E+00  0.00000000000E+00  0.25865112851E+03  0.25865112855E+03  0.46700000000E-02 0.  1.
          1   -1    0    0  501    0  0.00000000000E+00 -0.00000000000E+00 -0.80589764020E+01  0.80589777551E+01  0.46700000000E-02 0. -1.
         23    2    1    2    0    0  0.00000000000E+00  0.00000000000E+00  0.25059215211E+03  0.26671010631E+03  0.91311850864E+02 0.  0.
        -13    1    3    3    0    0 -0.33340721537E+02 -0.30686748710E+02  0.14160387415E+03  0.14867733050E+03  0.10570000000E+00 0.  1.
         13    1    3    3    0    0  0.33340721537E+02  0.30686748710E+02  0.10898827796E+03  0.11803277580E+03  0.10570000000E+00 0. -1.
<mgrwt>
<rscale>  0 0.91311851E+02</rscale>
<asrwt>0</asrwt>
<pdfrwt beam="2">  1        1 0.12398427E-02 0.91311851E+02</pdfrwt>
<pdfrwt beam="1">  1       -1 0.39792480E-01 0.91311851E+02</pdfrwt>
<totfact> 0.63764978E+04</totfact>
</mgrwt>
</event>
<event>
 5    1  0.2734570E+000  0.9235940E+02  0.7818608E-02  0.1297237E+00
          1   -1    0    0  501    0  0.00000000000E+00  0.00000000000E+00  0.28442769077E+02  0.28442769460E+02  0.46700000000E-02 0. -1.
         -1   -1    0    0    0  501 -0.00000000000E+00 -0.00000000000E+00 -0.74977390558E+02  0.74977390703E+02  0.46700000000E-02 0.  1.
         23    2    1    2    0    0  0.00000000000E+00  0.00000000000E+00 -0.46534621481E+02  0.10342016016E+03  0.92359398720E+02 0.  0.
        -13    1    3    3    0    0 -0.21616041487E+02 -0.90651520210E+01  0.21286152654E+02  0.31662938872E+02  0.10570000000E+00 0. -1.
         13    1    3    3    0    0  0.21616041487E+02  0.90651520210E+01 -0.67820774135E+02  0.71757221291E+02  0.10570000000E+00 0.  1.
<mgrwt>
<rscale>  0 0.92359399E+02</rscale>
<asrwt>0</asrwt>
<pdfrwt beam="1">  1        1 0.43758107E-02 0.92359399E+02</pdfrwt>
<pdfrwt beam="2">  1       -1 0.11534983E-01 0.92359399E+02</pdfrwt>
<totfact> 0.82798319E+04</totfact>
</mgrwt>
</event>
<event>
 4    1  0.2734570E+000  0.1314994E+03  0.7818608E-02  0.1225248E+00
         -1   -1    0    0    0  501 -0.00000000000E+00  0.00000000000E+00  0.13761696676E+03  0.13761696684E+03  0.46700000000E-02 0.  1.
          1   -1    0    0  501    0  0.00000000000E+00 -0.00000000000E+00 -0.31413457672E+02  0.31413458019E+02  0.46700000000E-02 0. -1.
        -13    1    1    2    0    0  0.17212460338E+02  0.31202538633E+02  0.12412734290E+03  0.12914130105E+03  0.10570000000E+00 0.  1.
         13    1    1    2    0    0 -0.17212460338E+02 -0.31202538633E+02 -0.17923833808E+02  0.39889123817E+02  0.10570000000E+00 0. -1.
<mgrwt>
<rscale>  0 0.13149943E+03</rscale>
<asrwt>0</asrwt>
<pdfrwt beam="2">  1        1 0.48328396E-02 0.13149943E+03</pdfrwt>
<pdfrwt beam="1">  1       -1 0.21171841E-01 0.13149943E+03</pdfrwt>
<totfact> 0.29338377E+04</totfact>
</mgrwt>
</event>
<event>
 5    1  0.2734570E+000  0.9012746E+02  0.7818608E-02  0.1302543E+00
          1   -1    0    0  501    0  0.00000000000E+00  0.00000000000E+00  0.21095789818E+03  0.21095789823E+03  0.46700000000E-02 0. -1.
         -1   -1    0    0    0  501 -0.00000000000E+00 -0.00000000000E+00 -0.96262793478E+01  0.96262804806E+01  0.46700000000E-02 0.  1.
         23    2    1    2    0    0  0.00000000000E+00  0.00000000000E+00  0.20133161883E+03  0.22058417871E+03  0.90127460613E+02 0.  0.
        -13    1    3    3    0    0  0.40087026934E+02  0.12297160470E+02  0.14107045866E+03  0.14717022580E+03  0.10570000000E+00 0. -1.
         13    1    3    3    0    0 -0.40087026934E+02 -0.12297160470E+02  0.60261160178E+02  0.73413952914E+02  0.10570000000E+00 0.  1.
<mgrwt>
<rscale>  0 0.90127461E+02</rscale>
<asrwt>0</asrwt>
<pdfrwt beam="1">  1        1 0.32455058E-01 0.90127461E+02</pdfrwt>
<pdfrwt beam="2">  1       -1 0.14809663E-02 0.90127461E+02</pdfrwt>
<totfact> 0.12340445E+05</totfact>
</mgrwt>
</event>
<event>
 5    1  0.2734570E+000  0.9159717E+02  0.7818608E-02  0.1299029E+00
          1   -1    0    0  501    0  0.00000000000E+00  0.00000000000E+00  0.29079880733E+02  0.29079881108E+02  0.46700000000E-02 0. -1.
         -1   -1    0    0    0  501 -0.00000000000E+00 -0.00000000000E+00 -0.72129267920E+02  0.72129268071E+02  0.46700000000E-02 0.  1.
         23    2    1    2    0    0  0.00000000000E+00  0.00000000000E+00 -0.43049387187E+02  0.10120914918E+03  0.91597173212E+02 0.  0.
        -13    1    3    3    0    0  0.12915689400E+02 -0.32355642282E+02 -0.54373069434E+02  0.64576655785E+02  0.10570000000E+00 0.  1.
         13    1    3    3    0    0 -0.12915689400E+02  0.32355642282E+02  0.11323682247E+02  0.36632493394E+02  0.10570000000E+00 0. -1.
<mgrwt>
<rscale>  0 0.91597173E+02</rscale>
<asrwt>0</asrwt>
<pdfrwt beam="1">  1        1 0.44738279E-02 0.91597173E+02</pdfrwt>
<pdfrwt beam="2">  1       -1 0.11096810E-01 0.91597173E+02</pdfrwt>
<totfact> 0.85112985E+04</totfact>
</mgrwt>
</event>
<event>
 5    1  0.2734570E+000  0.9282798E+02  0.7818608E-02  0.1296144E+00
          1   -1    0    0  501    0  0.00000000000E+00  0.00000000000E+00  0.72163973875E+01  0.72163988986E+01  0.46700000000E-02 0. -1.
         -1   -1    0    0    0  501 -0.00000000000E+00 -0.00000000000E+00 -0.29852267377E+03  0.29852267381E+03  0.46700000000E-02 0.  1.
         23    2    1    2    0    0  0.00000000000E+00  0.00000000000E+00 -0.29130627639E+03  0.30573907271E+03  0.92827980259E+02 0.  0.
        -13    1    3    3    0    0 -0.17047055056E+02  0.42545888774E+02 -0.16974213827E+03  0.17582138497E+03  0.10570000000E+00 0. -1.
         13    1    3    3    0    0  0.17047055056E+02 -0.42545888774E+02 -0.12156413812E+03  0.12991768774E+03  0.10570000000E+00 0.  1.
<mgrwt>
<rscale>  0 0.92827980E+02</rscale>
<asrwt>0</asrwt>
<pdfrwt beam="1">  1        1 0.11102153E-02 0.92827980E+02</pdfrwt>
<pdfrwt beam="2">  1       -1 0.45926556E-01 0.92827980E+02</pdfrwt>
<totfact> 0.57917278E+04</totfact>
</mgrwt>
</event>
<event>
 5    1  0.2734570E+000  0.9042366E+02  0.7818608E-02  0.1301829E+00
         -1   -1    0    0    0  501 -0.00000000000E+00  0.00000000000E+00  0.12865464846E+03  0.12865464854E+03  0.46700000000E-02 0.  1.
          1   -1    0    0  501    0  0.00000000000E+00 -0.00000000000E+00 -0.15888346398E+02  0.15888347084E+02  0.46700000000E-02 0. -1.
         23    2    1    2    0    0  0.00000000000E+00  0.00000000000E+00  0.11276630206E+03  0.14454299563E+03  0.90423662305E+02 0.  0.
        -13    1    3    3    0    0  0.19993248965E+02 -0.23016959396E+02  0.10975007308E+03  0.11390610228E+03  0.10570000000E+00 0.  1.
         13    1    3    3    0    0 -0.19993248965E+02  0.23016959396E+02  0.30162289804E+01  0.30636893344E+02  0.10570000000E+00 0. -1.
<mgrwt>
<rscale>  0 0.90423662E+02</rscale>
<asrwt>0</asrwt>
<pdfrwt beam="2">  1        1 0.24443611E-02 0.90423662E+02</pdfrwt>
<pdfrwt beam="1">  1       -1 0.19793023E-01 0.90423662E+02</pdfrwt>
<totfact> 0.79075279E+04</totfact>
</mgrwt>
</event>
<event>
 5    1  0.2734570E+000  0.1020159E+03  0.7818608E-02  0.1276113E+00
         -1   -1    0    0    0  501 -0.00000000000E+00  0.00000000000E+00  0.42855854493E+02  0.42855854748E+02  0.46700000000E-02 0.  1.
          1   -1    0    0  501    0  0.00000000000E+00 -0.00000000000E+00 -0.60710770769E+02  0.60710770949E+02  0.46700000000E-02 0. -1.
         23    2    1    2    0    0  0.00000000000E+00  0.00000000000E+00 -0.17854916276E+02  0.10356662570E+03  0.10201591995E+03 0.  0.
        -13    1    3    3    0    0 -0.25022073034E+02  0.21778746518E+02  0.30409212966E+02  0.45001659353E+02  0.10570000000E+00 0.  1.
         13    1    3    3    0    0  0.25022073034E+02 -0.21778746518E+02 -0.48264129242E+02  0.58564966343E+02  0.10570000000E+00 0. -1.
<mgrwt>
<rscale>  0 0.10201592E+03</rscale>
<asrwt>0</asrwt>
<pdfrwt beam="2">  1        1 0.93401187E-02 0.10201592E+03</pdfrwt>
<pdfrwt beam="1">  1       -1 0.65932084E-02 0.10201592E+03</pdfrwt>
<totfact> 0.70504786E+04</totfact>
</mgrwt>
</event>
<event>
 5    1  0.2734570E+000  0.9324298E+02  0.7818608E-02  0.1295183E+00
         -1   -1    0    0    0  501 -0.00000000000E+00  0.00000000000E+00  0.87636353644E+01  0.87636366086E+01  0.46700000000E-02 0.  1.
          1   -1    0    0  501    0  0.00000000000E+00 -0.00000000000E+00 -0.24802070479E+03  0.24802070483E+03  0.46700000000E-02 0. -1.
         23    2    1    2    0    0  0.00000000000E+00  0.00000000000E+00 -0.23925706942E+03  0.25678434144E+03  0.93242976893E+02 0.  0.
        -13    1    3    3    0    0  0.38844988913E+02 -0.10291211599E+01 -0.48688331704E+02  0.62294117464E+02  0.10570000000E+00 0.  1.
         13    1    3    3    0    0 -0.38844988913E+02  0.10291211599E+01 -0.19056873772E+03  0.19449022398E+03  0.10570000000E+00 0. -1.
<mgrwt>
<rscale>  0 0.93242977E+02</rscale>
<asrwt>0</asrwt>
<pdfrwt beam="2">  1        1 0.38157026E-01 0.93242977E+02</pdfrwt>
<pdfrwt beam="1">  1       -1 0.13482519E-02 0.93242977E+02</pdfrwt>
<totfact> 0.11629003E+05</totfact>
</mgrwt>
</event>
<event>
 5    1  0.2734570E+000  0.9150058E+02  0.7818608E-02  0.1299258E+00
         -1   -1    0    0    0  501 -0.00000000000E+00  0.00000000000E+00  0.17544063605E+02  0.17544064226E+02  0.46700000000E-02 0.  1.
          1   -1    0    0  501    0  0.00000000000E+00 -0.00000000000E+00 -0.11930469285E+03  0.11930469294E+03  0.46700000000E-02 0. -1.
         23    2    1    2    0    0  0.00000000000E+00  0.00000000000E+00 -0.10176062924E+03  0.13684875717E+03  0.91500582916E+02 0.  0.
        -13    1    3    3    0    0 -0.23477436675E+02  0.14955793725E+02  0.34209144512E+01  0.28046026937E+02  0.10570000000E+00 0.  1.
         13    1    3    3    0    0  0.23477436675E+02 -0.14955793725E+02 -0.10518154369E+03  0.10880273023E+03  0.10570000000E+00 0. -1.
<mgrwt>
<rscale>  0 0.91500583E+02</rscale>
<asrwt>0</asrwt>
<pdfrwt beam="2">  1        1 0.18354568E-01 0.91500583E+02</pdfrwt>
<pdfrwt beam="1">  1       -1 0.26990868E-02 0.91500583E+02</pdfrwt>
<totfact> 0.10659911E+05</totfact>
</mgrwt>
</event>
<event>
 5    1  0.2734570E+000  0.9071789E+02  0.7818608E-02  0.1301122E+00
         -1   -1    0    0    0  501 -0.00000000000E+00  0.00000000000E+00  0.10106418912E+03  0.10106418923E+03  0.46700000000E-02 0.  1.
          1   -1    0    0  501    0  0.00000000000E+00 -0.00000000000E+00 -0.20357693143E+02  0.20357693678E+02  0.46700000000E-02 0. -1.
         23    2    1    2    0    0  0.00000000000E+00  0.00000000000E+00  0.80706495982E+02  0.12142188291E+03  0.90717887740E+02 0.  0.
        -13    1    3    3    0    0 -0.33213880464E+02 -0.29624813625E+02  0.52069987818E+02  0.68498804673E+02  0.10570000000E+00 0.  1.
         13    1    3    3    0    0  0.33213880464E+02  0.29624813625E+02  0.28636508164E+02  0.52923078238E+02  0.10570000000E+00 0. -1.
<mgrwt>
<rscale>  0 0.90717888E+02</rscale>
<asrwt>0</asrwt>
<pdfrwt beam="2">  1        1 0.31319528E-02 0.90717888E+02</pdfrwt>
<pdfrwt beam="1">  1       -1 0.15548337E-01 0.90717888E+02</pdfrwt>
<totfact> 0.82272139E+04</totfact>
</mgrwt>
</event>
<event>
 5    1  0.2734570E+000  0.9347066E+02  0.7818608E-02  0.1294658E+00
          1   -1    0    0  501    0  0.00000000000E+00  0.00000000000E+00  0.82411332109E+02  0.82411332241E+02  0.46700000000E-02 0. -1.
         -1   -1    0    0    0  501 -0.00000000000E+00 -0.00000000000E+00 -0.26503528321E+02  0.26503528733E+02  0.46700000000E-02 0.  1.
         23    2    1    2    0    0  0.00000000000E+00  0.00000000000E+00  0.55907803788E+02  0.10891486097E+03  0.93470660726E+02 0.  0.
        -13    1    3    3    0    0 -0.18766031856E+02  0.34034607170E+02 -0.22896427889E+01  0.38932917608E+02  0.10570000000E+00 0.  1.
         13    1    3    3    0    0  0.18766031856E+02 -0.34034607170E+02  0.58197446577E+02  0.69981943367E+02  0.10570000000E+00 0. -1.
<mgrwt>
<rscale>  0 0.93470661E+02</rscale>
<asrwt>0</asrwt>
<pdfrwt beam="1">  1        1 0.12678666E-01 0.93470661E+02</pdfrwt>
<pdfrwt beam="2">  1       -1 0.40774660E-02 0.93470661E+02</pdfrwt>
<totfact> 0.94535473E+04</totfact>
</mgrwt>
</event>
<event>
 5    1  0.2734570E+000  0.9239786E+02  0.7818608E-02  0.1297147E+00
         -1   -1    0    0    0  501 -0.00000000000E+00  0.00000000000E+00  0.26579987128E+02  0.26579987538E+02  0.46700000000E-02 0.  1.
          1   -1    0    0  501    0  0.00000000000E+00 -0.00000000000E+00 -0.80298801141E+02  0.80298801277E+02  0.46700000000E-02 0. -1.
         23    2    1    2    0    0  0.00000000000E+00  0.00000000000E+00 -0.53718814013E+02  0.10687878881E+03  0.92397859930E+02 0.  0.
        -13    1    3    3    0    0 -0.21656934686E+02 -0.26754927818E+02 -0.62502283414E+02  0.71354015913E+02  0.10570000000E+00 0. -1.
         13    1    3    3    0    0  0.21656934686E+02  0.26754927818E+02  0.87834694011E+01  0.35524772902E+02  0.10570000000E+00 0.  1.
<mgrwt>
<rscale>  0 0.92397860E+02</rscale>
<asrwt>0</asrwt>
<pdfrwt beam="2">  1        1 0.12353662E-01 0.92397860E+02</pdfrwt>
<pdfrwt beam="1">  1       -1 0.40892289E-02 0.92397860E+02</pdfrwt>
<totfact> 0.97182990E+04</totfact>
</mgrwt>
</event>
<event>
 5    1  0.2734570E+000  0.9135398E+02  0.7818608E-02  0.1299606E+00
         -1   -1    0    0    0  501 -0.00000000000E+00  0.00000000000E+00  0.60540767279E+01  0.60540785291E+01  0.46700000000E-02 0.  1.
          1   -1    0    0  501    0  0.00000000000E+00 -0.00000000000E+00 -0.34462513898E+03  0.34462513901E+03  0.46700000000E-02 0. -1.
         23    2    1    2    0    0  0.00000000000E+00  0.00000000000E+00 -0.33857106225E+03  0.35067921754E+03  0.91353978679E+02 0.  0.
        -13    1    3    3    0    0 -0.39142282932E+02 -0.19144965045E+02 -0.11669018707E+03  0.12456026225E+03  0.10570000000E+00 0.  1.
         13    1    3    3    0    0  0.39142282932E+02  0.19144965045E+02 -0.22188087518E+03  0.22611895529E+03  0.10570000000E+00 0. -1.
<mgrwt>
<rscale>  0 0.91353979E+02</rscale>
<asrwt>0</asrwt>
<pdfrwt beam="2">  1        1 0.53019237E-01 0.91353979E+02</pdfrwt>
<pdfrwt beam="1">  1       -1 0.93139683E-03 0.91353979E+02</pdfrwt>
<totfact> 0.13078975E+05</totfact>
</mgrwt>
</event>
<event>
 5    1  0.2734570E+000  0.9010006E+02  0.7818608E-02  0.1302610E+00
          1   -1    0    0  501    0  0.00000000000E+00  0.00000000000E+00  0.17949089463E+02  0.17949090070E+02  0.46700000000E-02 0. -1.
         -1   -1    0    0    0  501 -0.00000000000E+00 -0.00000000000E+00 -0.11307009523E+03  0.11307009532E+03  0.46700000000E-02 0.  1.
         23    2    1    2    0    0  0.00000000000E+00  0.00000000000E+00 -0.95121005762E+02  0.13101918539E+03  0.90100062173E+02 0.  0.
        -13    1    3    3    0    0 -0.18635642918E+02 -0.15765691774E+02  0.74988825167E+01  0.25536026229E+02  0.10570000000E+00 0. -1.
         13    1    3    3    0    0  0.18635642918E+02  0.15765691774E+02 -0.10261988828E+03  0.10548315916E+03  0.10570000000E+00 0.  1.
<mgrwt>
<rscale>  0 0.90100062E+02</rscale>
<asrwt>0</asrwt>
<pdfrwt beam="1">  1        1 0.27613985E-02 0.90100062E+02</pdfrwt>
<pdfrwt beam="2">  1       -1 0.17395399E-01 0.90100062E+02</pdfrwt>
<totfact> 0.81949384E+04</totfact>
</mgrwt>
</event>
<event>
 5    1  0.2734570E+000  0.9161488E+02  0.7818608E-02  0.1298987E+00
         -1   -1    0    0    0  501 -0.00000000000E+00  0.00000000000E+00  0.81489890473E+01  0.81489903855E+01  0.46700000000E-02 0.  1.
          1   -1    0    0  501    0  0.00000000000E+00 -0.00000000000E+00 -0.25749467581E+03  0.25749467585E+03  0.46700000000E-02 0. -1.
         23    2    1    2    0    0  0.00000000000E+00  0.00000000000E+00 -0.24934568676E+03  0.26564366623E+03  0.91614878186E+02 0.  0.
        -13    1    3    3    0    0 -0.16438415390E+02  0.38463836303E+02 -0.17881192873E+03  0.18363933465E+03  0.10570000000E+00 0. -1.
         13    1    3    3    0    0  0.16438415390E+02 -0.38463836303E+02 -0.70533758029E+02  0.82004331579E+02  0.10570000000E+00 0.  1.
<mgrwt>
<rscale>  0 0.91614878E+02</rscale>
<asrwt>0</asrwt>
<pdfrwt beam="2">  1        1 0.39614559E-01 0.91614878E+02</pdfrwt>
<pdfrwt beam="1">  1       -1 0.12536909E-02 0.91614878E+02</pdfrwt>
<totfact> 0.12280032E+05</totfact>
</mgrwt>
</event>
<event>
 5    1  0.2734570E+000  0.9315969E+02  0.7818608E-02  0.1295376E+00
         -1   -1    0    0    0  501 -0.00000000000E+00  0.00000000000E+00  0.25583932694E+02  0.25583933120E+02  0.46700000000E-02 0.  1.
          1   -1    0    0  501    0  0.00000000000E+00 -0.00000000000E+00 -0.84806425793E+02  0.84806425922E+02  0.46700000000E-02 0. -1.
         23    2    1    2    0    0  0.00000000000E+00  0.00000000000E+00 -0.59222493100E+02  0.11039035904E+03  0.93159689139E+02 0.  0.
        -13    1    3    3    0    0 -0.32903854802E+02 -0.24112190713E+02 -0.56255935931E+02  0.69489588441E+02  0.10570000000E+00 0. -1.
         13    1    3    3    0    0  0.32903854802E+02  0.24112190713E+02 -0.29665571684E+01  0.40900770600E+02  0.10570000000E+00 0.  1.
<mgrwt>
<rscale>  0 0.93159689E+02</rscale>
<asrwt>0</asrwt>
<pdfrwt beam="2">  1        1 0.13047142E-01 0.93159689E+02</pdfrwt>
<pdfrwt beam="1">  1       -1 0.39359897E-02 0.93159689E+02</pdfrwt>
<totfact> 0.95848696E+04</totfact>
</mgrwt>
</event>
<event>
 5    1  0.2734570E+000  0.9372713E+02  0.7818608E-02  0.1294069E+00
         -1   -1    0    0    0  501 -0.00000000000E+00  0.00000000000E+00  0.55513810176E+01  0.55513829819E+01  0.46700000000E-02 0.  1.
          1   -1    0    0  501    0  0.00000000000E+00 -0.00000000000E+00 -0.39561203538E+03  0.39561203541E+03  0.46700000000E-02 0. -1.
         23    2    1    2    0    0  0.00000000000E+00  0.00000000000E+00 -0.39006065436E+03  0.40116341839E+03  0.93727126128E+02 0.  0.
        -13    1    3    3    0    0  0.45411558944E+02 -0.11425091685E+02 -0.20296872804E+03  0.20830040361E+03  0.10570000000E+00 0.  1.
         13    1    3    3    0    0 -0.45411558944E+02  0.11425091685E+02 -0.18709192632E+03  0.19286301478E+03  0.10570000000E+00 0. -1.
<mgrwt>
<rscale>  0 0.93727126E+02</rscale>
<asrwt>0</asrwt>
<pdfrwt beam="2">  1        1 0.60863368E-01 0.93727126E+02</pdfrwt>
<pdfrwt beam="1">  1       -1 0.85405908E-03 0.93727126E+02</pdfrwt>
<totfact> 0.12511841E+05</totfact>
</mgrwt>
</event>
<event>
 5    1  0.2734570E+000  0.9088888E+02  0.7818608E-02  0.1300713E+00
          1   -1    0    0  501    0  0.00000000000E+00  0.00000000000E+00  0.13674857865E+03  0.13674857873E+03  0.46700000000E-02 0. -1.
         -1   -1    0    0    0  501 -0.00000000000E+00 -0.00000000000E+00 -0.15102147873E+02  0.15102148595E+02  0.46700000000E-02 0.  1.
         23    2    1    2    0    0  0.00000000000E+00  0.00000000000E+00  0.12164643078E+03  0.15185072732E+03  0.90888884184E+02 0.  0.
        -13    1    3    3    0    0 -0.34524246464E+02  0.27373408407E+02  0.79424598901E+02  0.90826786603E+02  0.10570000000E+00 0. -1.
         13    1    3    3    0    0  0.34524246464E+02 -0.27373408407E+02  0.42221831876E+02  0.61023940721E+02  0.10570000000E+00 0.  1.
<mgrwt>
<rscale>  0 0.90888884E+02</rscale>
<asrwt>0</asrwt>
<pdfrwt beam="1">  1        1 0.21038244E-01 0.90888884E+02</pdfrwt>
<pdfrwt beam="2">  1       -1 0.23234073E-02 0.90888884E+02</pdfrwt>
<totfact> 0.11120805E+05</totfact>
</mgrwt>
</event>
<event>
 5    1  0.2734570E+000  0.9023076E+02  0.7818608E-02  0.1302294E+00
         -1   -1    0    0    0  501 -0.00000000000E+00  0.00000000000E+00  0.11996207503E+03  0.11996207512E+03  0.46700000000E-02 0.  1.
          1   -1    0    0  501    0  0.00000000000E+00 -0.00000000000E+00 -0.16967007361E+02  0.16967008004E+02  0.46700000000E-02 0. -1.
         23    2    1    2    0    0  0.00000000000E+00  0.00000000000E+00  0.10299506767E+03  0.13692908312E+03  0.90230758842E+02 0.  0.
        -13    1    3    3    0    0  0.83804747765E+01 -0.38195923405E+02  0.85641427220E+02  0.94146832931E+02  0.10570000000E+00 0.  1.
         13    1    3    3    0    0 -0.83804747765E+01  0.38195923405E+02  0.17353640447E+02  0.42782250192E+02  0.10570000000E+00 0. -1.
<mgrwt>
<rscale>  0 0.90230759E+02</rscale>
<asrwt>0</asrwt>
<pdfrwt beam="2">  1        1 0.26103088E-02 0.90230759E+02</pdfrwt>
<pdfrwt beam="1">  1       -1 0.18455705E-01 0.90230759E+02</pdfrwt>
<totfact> 0.80680263E+04</totfact>
</mgrwt>
</event>
<event>
 5    1  0.2734570E+000  0.9072695E+02  0.7818608E-02  0.1301101E+00
         -1   -1    0    0    0  501 -0.00000000000E+00  0.00000000000E+00  0.10124016323E+03  0.10124016334E+03  0.46700000000E-02 0.  1.
          1   -1    0    0  501    0  0.00000000000E+00 -0.00000000000E+00 -0.20326366743E+02  0.20326367280E+02  0.46700000000E-02 0. -1.
         23    2    1    2    0    0  0.00000000000E+00  0.00000000000E+00  0.80913796484E+02  0.12156653061E+03  0.90726946957E+02 0.  0.
        -13    1    3    3    0    0  0.83192868081E+01 -0.44196766795E+02  0.48414335523E+02  0.66079677547E+02  0.10570000000E+00 0. -1.
         13    1    3    3    0    0 -0.83192868081E+01  0.44196766795E+02  0.32499460961E+02  0.55486853067E+02  0.10570000000E+00 0.  1.
<mgrwt>
<rscale>  0 0.90726947E+02</rscale>
<asrwt>0</asrwt>
<pdfrwt beam="2">  1        1 0.31271334E-02 0.90726947E+02</pdfrwt>
<pdfrwt beam="1">  1       -1 0.15575410E-01 0.90726947E+02</pdfrwt>
<totfact> 0.82224297E+04</totfact>
</mgrwt>
</event>
<event>
 5    1  0.2734570E+000  0.8582282E+02  0.7818608E-02  0.1313295E+00
          1   -1    0    0  501    0  0.00000000000E+00  0.00000000000E+00  0.22962405214E+02  0.22962405689E+02  0.46700000000E-02 0. -1.
         -1   -1    0    0    0  501 -0.00000000000E+00 -0.00000000000E+00 -0.80191468130E+02  0.80191468266E+02  0.46700000000E-02 0.  1.
         23    2    1    2    0    0  0.00000000000E+00  0.00000000000E+00 -0.57229062916E+02  0.10315387395E+03  0.85822817884E+02 0.  0.
        -13    1    3    3    0    0 -0.24288099295E+02  0.17001499354E+02 -0.65902093260E+02  0.72263820936E+02  0.10570000000E+00 0.  1.
         13    1    3    3    0    0  0.24288099295E+02 -0.17001499354E+02  0.86730303446E+01  0.30890053018E+02  0.10570000000E+00 0. -1.
<mgrwt>
<rscale>  0 0.85822818E+02</rscale>
<asrwt>0</asrwt>
<pdfrwt beam="1">  1        1 0.35326778E-02 0.85822818E+02</pdfrwt>
<pdfrwt beam="2">  1       -1 0.12337149E-01 0.85822818E+02</pdfrwt>
<totfact> 0.98771433E+04</totfact>
</mgrwt>
</event>
<event>
 5    1  0.2734570E+000  0.9189921E+02  0.7818608E-02  0.1298317E+00
          1   -1    0    0  501    0  0.00000000000E+00  0.00000000000E+00  0.47248143273E+02  0.47248143504E+02  0.46700000000E-02 0. -1.
         -1   -1    0    0    0  501 -0.00000000000E+00 -0.00000000000E+00 -0.44686751133E+02  0.44686751377E+02  0.46700000000E-02 0.  1.
         23    2    1    2    0    0  0.00000000000E+00  0.00000000000E+00  0.25613921395E+01  0.91934894881E+02  0.91899206564E+02 0.  0.
        -13    1    3    3    0    0  0.36003252986E+01 -0.13608354140E+02 -0.42476491555E+02  0.44748331276E+02  0.10570000000E+00 0.  1.
         13    1    3    3    0    0 -0.36003252986E+01  0.13608354140E+02  0.45037883695E+02  0.47186563605E+02  0.10570000000E+00 0. -1.
<mgrwt>
<rscale>  0 0.91899207E+02</rscale>
<asrwt>0</asrwt>
<pdfrwt beam="1">  1        1 0.72689451E-02 0.91899207E+02</pdfrwt>
<pdfrwt beam="2">  1       -1 0.68748849E-02 0.91899207E+02</pdfrwt>
<totfact> 0.90933792E+04</totfact>
</mgrwt>
</event>
<event>
 5    1  0.2734570E+000  0.9187212E+02  0.7818608E-02  0.1298380E+00
          1   -1    0    0  501    0  0.00000000000E+00  0.00000000000E+00  0.20550722880E+03  0.20550722885E+03  0.46700000000E-02 0. -1.
         -1   -1    0    0    0  501 -0.00000000000E+00 -0.00000000000E+00 -0.10267869044E+02  0.10267870106E+02  0.46700000000E-02 0.  1.
         23    2    1    2    0    0  0.00000000000E+00  0.00000000000E+00  0.19523935975E+03  0.21577509895E+03  0.91872116189E+02 0.  0.
        -13    1    3    3    0    0  0.40204952419E+02  0.81045897276E+01  0.49031207859E+02  0.63923337602E+02  0.10570000000E+00 0.  1.
         13    1    3    3    0    0 -0.40204952419E+02 -0.81045897276E+01  0.14620815189E+03  0.15185176135E+03  0.10570000000E+00 0. -1.
<mgrwt>
<rscale>  0 0.91872116E+02</rscale>
<asrwt>0</asrwt>
<pdfrwt beam="1">  1        1 0.31616493E-01 0.91872116E+02</pdfrwt>
<pdfrwt beam="2">  1       -1 0.15796724E-02 0.91872116E+02</pdfrwt>
<totfact> 0.11663004E+05</totfact>
</mgrwt>
</event>
<event>
 5    1  0.2734570E+000  0.9412650E+02  0.7818608E-02  0.1293156E+00
          1   -1    0    0  501    0  0.00000000000E+00  0.00000000000E+00  0.25711290687E+03  0.25711290691E+03  0.46700000000E-02 0. -1.
         -1   -1    0    0    0  501 -0.00000000000E+00 -0.00000000000E+00 -0.86146947087E+01  0.86146959745E+01  0.46700000000E-02 0.  1.
         23    2    1    2    0    0  0.00000000000E+00  0.00000000000E+00  0.24849821216E+03  0.26572760288E+03  0.94126497271E+02 0.  0.
        -13    1    3    3    0    0  0.20674079021E+02 -0.36986154181E+02  0.18207389759E+03  0.18693931770E+03  0.10570000000E+00 0. -1.
         13    1    3    3    0    0 -0.20674079021E+02  0.36986154181E+02  0.66424314566E+02  0.78788285186E+02  0.10570000000E+00 0.  1.
<mgrwt>
<rscale>  0 0.94126497E+02</rscale>
<asrwt>0</asrwt>
<pdfrwt beam="1">  1        1 0.39555830E-01 0.94126497E+02</pdfrwt>
<pdfrwt beam="2">  1       -1 0.13253378E-02 0.94126497E+02</pdfrwt>
<totfact> 0.11418978E+05</totfact>
</mgrwt>
</event>
<event>
 5    1  0.2734570E+000  0.9154733E+02  0.7818608E-02  0.1299147E+00
         -1   -1    0    0    0  501 -0.00000000000E+00  0.00000000000E+00  0.17308179726E+03  0.17308179732E+03  0.46700000000E-02 0.  1.
          1   -1    0    0  501    0  0.00000000000E+00 -0.00000000000E+00 -0.12105421928E+02  0.12105422829E+02  0.46700000000E-02 0. -1.
         23    2    1    2    0    0  0.00000000000E+00  0.00000000000E+00  0.16097637533E+03  0.18518722015E+03  0.91547327064E+02 0.  0.
        -13    1    3    3    0    0  0.30870967664E+02  0.11389466711E+02  0.14485450746E+03  0.14854486225E+03  0.10570000000E+00 0.  1.
         13    1    3    3    0    0 -0.30870967664E+02 -0.11389466711E+02  0.16121867869E+02  0.36642357901E+02  0.10570000000E+00 0. -1.
<mgrwt>
<rscale>  0 0.91547327E+02</rscale>
<asrwt>0</asrwt>
<pdfrwt beam="2">  1        1 0.18623727E-02 0.91547327E+02</pdfrwt>
<pdfrwt beam="1">  1       -1 0.26627968E-01 0.91547327E+02</pdfrwt>
<totfact> 0.71447172E+04</totfact>
</mgrwt>
</event>
<event>
 5    1  0.2734570E+000  0.9157524E+02  0.7818608E-02  0.1299081E+00
         -1   -1    0    0    0  501 -0.00000000000E+00  0.00000000000E+00  0.52790789534E+01  0.52790810190E+01  0.46700000000E-02 0.  1.
          1   -1    0    0  501    0  0.00000000000E+00 -0.00000000000E+00 -0.39713477343E+03  0.39713477345E+03  0.46700000000E-02 0. -1.
         23    2    1    2    0    0  0.00000000000E+00  0.00000000000E+00 -0.39185569447E+03  0.40241385447E+03  0.91575242182E+02 0.  0.
        -13    1    3    3    0    0  0.42773686686E+02 -0.13291078113E+02 -0.23767512680E+03  0.24185888055E+03  0.10570000000E+00 0. -1.
         13    1    3    3    0    0 -0.42773686686E+02  0.13291078113E+02 -0.15418056768E+03  0.16055497392E+03  0.10570000000E+00 0.  1.
<mgrwt>
<rscale>  0 0.91575242E+02</rscale>
<asrwt>0</asrwt>
<pdfrwt beam="2">  1        1 0.61097634E-01 0.91575242E+02</pdfrwt>
<pdfrwt beam="1">  1       -1 0.81216647E-03 0.91575242E+02</pdfrwt>
<totfact> 0.13318024E+05</totfact>
</mgrwt>
</event>
<event>
 5    1  0.2734570E+000  0.9097652E+02  0.7818608E-02  0.1300504E+00
          1   -1    0    0  501    0  0.00000000000E+00  0.00000000000E+00  0.91294217303E+02  0.91294217423E+02  0.46700000000E-02 0. -1.
         -1   -1    0    0    0  501 -0.00000000000E+00 -0.00000000000E+00 -0.22664980126E+02  0.22664980607E+02  0.46700000000E-02 0.  1.
         23    2    1    2    0    0  0.00000000000E+00  0.00000000000E+00  0.68629237177E+02  0.11395919803E+03  0.90976516861E+02 0.  0.
        -13    1    3    3    0    0 -0.35126315306E+02 -0.20967242719E+02  0.59231637013E+02  0.71985285232E+02  0.10570000000E+00 0. -1.
         13    1    3    3    0    0  0.35126315306E+02  0.20967242719E+02  0.93976001644E+01  0.41973912798E+02  0.10570000000E+00 0.  1.
<mgrwt>
<rscale>  0 0.90976517E+02</rscale>
<asrwt>0</asrwt>
<pdfrwt beam="1">  1        1 0.14045264E-01 0.90976517E+02</pdfrwt>
<pdfrwt beam="2">  1       -1 0.34869201E-02 0.90976517E+02</pdfrwt>
<totfact> 0.10351944E+05</totfact>
</mgrwt>
</event>
<event>
 5    1  0.2734570E+000  0.9249992E+02  0.7818608E-02  0.1296908E+00
          1   -1    0    0  501    0  0.00000000000E+00  0.00000000000E+00  0.50278770116E+02  0.50278770333E+02  0.46700000000E-02 0. -1.
         -1   -1    0    0    0  501 -0.00000000000E+00 -0.00000000000E+00 -0.42543979882E+02  0.42543980138E+02  0.46700000000E-02 0.  1.
         23    2    1    2    0    0  0.00000000000E+00  0.00000000000E+00  0.77347902339E+01  0.92822750471E+02  0.92499924459E+02 0.  0.
        -13    1    3    3    0    0 -0.14031610141E+02 -0.37971993179E+02 -0.18577818462E+02  0.44541046917E+02  0.10570000000E+00 0.  1.
         13    1    3    3    0    0  0.14031610141E+02  0.37971993179E+02  0.26312608696E+02  0.48281703554E+02  0.10570000000E+00 0. -1.
<mgrwt>
<rscale>  0 0.92499924E+02</rscale>
<asrwt>0</asrwt>
<pdfrwt beam="1">  1        1 0.77351955E-02 0.92499924E+02</pdfrwt>
<pdfrwt beam="2">  1       -1 0.65452277E-02 0.92499924E+02</pdfrwt>
<totfact> 0.90131373E+04</totfact>
</mgrwt>
</event>
<event>
 5    1  0.2734570E+000  0.9138113E+02  0.7818608E-02  0.1299541E+00
          1   -1    0    0  501    0  0.00000000000E+00  0.00000000000E+00  0.17115696120E+03  0.17115696126E+03  0.46700000000E-02 0. -1.
         -1   -1    0    0    0  501 -0.00000000000E+00 -0.00000000000E+00 -0.12197152133E+02  0.12197153027E+02  0.46700000000E-02 0.  1.
         23    2    1    2    0    0  0.00000000000E+00  0.00000000000E+00  0.15895980906E+03  0.18335411429E+03  0.91381126764E+02 0.  0.
        -13    1    3    3    0    0 -0.28201800257E+02  0.10620192826E+02  0.10570163907E+02  0.31935396833E+02  0.10570000000E+00 0.  1.
         13    1    3    3    0    0  0.28201800257E+02 -0.10620192826E+02  0.14838964516E+03  0.15141871745E+03  0.10570000000E+00 0. -1.
<mgrwt>
<rscale>  0 0.91381127E+02</rscale>
<asrwt>0</asrwt>
<pdfrwt beam="1">  1        1 0.26331839E-01 0.91381127E+02</pdfrwt>
<pdfrwt beam="2">  1       -1 0.18764851E-02 0.91381127E+02</pdfrwt>
<totfact> 0.11423185E+05</totfact>
</mgrwt>
</event>
<event>
 5    1  0.2734570E+000  0.9276234E+02  0.7818608E-02  0.1296297E+00
          1   -1    0    0  501    0  0.00000000000E+00  0.00000000000E+00  0.10777275987E+03  0.10777275997E+03  0.46700000000E-02 0. -1.
         -1   -1    0    0    0  501 -0.00000000000E+00 -0.00000000000E+00 -0.19960635890E+02  0.19960636437E+02  0.46700000000E-02 0.  1.
         23    2    1    2    0    0  0.00000000000E+00  0.00000000000E+00  0.87812123982E+02  0.12773339641E+03  0.92762338480E+02 0.  0.
        -13    1    3    3    0    0  0.37798717546E+02  0.13569491102E+02  0.75854974143E+02  0.85830428238E+02  0.10570000000E+00 0. -1.
         13    1    3    3    0    0 -0.37798717546E+02 -0.13569491102E+02  0.11957149839E+02  0.41902968172E+02  0.10570000000E+00 0.  1.
<mgrwt>
<rscale>  0 0.92762338E+02</rscale>
<asrwt>0</asrwt>
<pdfrwt beam="1">  1        1 0.16580425E-01 0.92762338E+02</pdfrwt>
<pdfrwt beam="2">  1       -1 0.30708670E-02 0.92762338E+02</pdfrwt>
<totfact> 0.10091648E+05</totfact>
</mgrwt>
</event>
<event>
 5    1  0.2734570E+000  0.9194849E+02  0.7818608E-02  0.1298201E+00
         -1   -1    0    0    0  501 -0.00000000000E+00  0.00000000000E+00  0.15696411802E+02  0.15696412497E+02  0.46700000000E-02 0.  1.
          1   -1    0    0  501    0  0.00000000000E+00 -0.00000000000E+00 -0.13465697764E+03  0.13465697772E+03  0.46700000000E-02 0. -1.
         23    2    1    2    0    0  0.00000000000E+00  0.00000000000E+00 -0.11896056584E+03  0.15035339022E+03  0.91948494960E+02 0.  0.
        -13    1    3    3    0    0  0.35204271870E+02  0.23726781642E+02 -0.30628567061E+02  0.52349032634E+02  0.10570000000E+00 0.  1.
         13    1    3    3    0    0 -0.35204271870E+02 -0.23726781642E+02 -0.88331998778E+02  0.98004357584E+02  0.10570000000E+00 0. -1.
<mgrwt>
<rscale>  0 0.91948495E+02</rscale>
<asrwt>0</asrwt>
<pdfrwt beam="2">  1        1 0.20716457E-01 0.91948495E+02</pdfrwt>
<pdfrwt beam="1">  1       -1 0.24148327E-02 0.91948495E+02</pdfrwt>
<totfact> 0.10747504E+05</totfact>
</mgrwt>
</event>
<event>
 5    1  0.2734570E+000  0.9191472E+02  0.7818608E-02  0.1298280E+00
          1   -1    0    0  501    0  0.00000000000E+00  0.00000000000E+00  0.11244064912E+02  0.11244065881E+02  0.46700000000E-02 0. -1.
         -1   -1    0    0    0  501 -0.00000000000E+00 -0.00000000000E+00 -0.18783942604E+03  0.18783942610E+03  0.46700000000E-02 0.  1.
         23    2    1    2    0    0  0.00000000000E+00  0.00000000000E+00 -0.17659536113E+03  0.19908349198E+03  0.91914717031E+02 0.  0.
        -13    1    3    3    0    0  0.26227508931E+02 -0.34727891894E+02 -0.56306026737E+02  0.71163814678E+02  0.10570000000E+00 0. -1.
         13    1    3    3    0    0 -0.26227508931E+02  0.34727891894E+02 -0.12028933440E+03  0.12791967731E+03  0.10570000000E+00 0.  1.
<mgrwt>
<rscale>  0 0.91914717E+02</rscale>
<asrwt>0</asrwt>
<pdfrwt beam="1">  1        1 0.17298564E-02 0.91914717E+02</pdfrwt>
<pdfrwt beam="2">  1       -1 0.28898371E-01 0.91914717E+02</pdfrwt>
<totfact> 0.69184593E+04</totfact>
</mgrwt>
</event>
<event>
 5    1  0.2734570E+000  0.9240409E+02  0.7818608E-02  0.1297132E+00
         -1   -1    0    0    0  501 -0.00000000000E+00  0.00000000000E+00  0.18851597088E+03  0.18851597094E+03  0.46700000000E-02 0.  1.
          1   -1    0    0  501    0  0.00000000000E+00 -0.00000000000E+00 -0.11323330979E+02  0.11323331942E+02  0.46700000000E-02 0. -1.
         23    2    1    2    0    0  0.00000000000E+00  0.00000000000E+00  0.17719263990E+03  0.19983930288E+03  0.92404087250E+02 0.  0.
        -13    1    3    3    0    0 -0.41490144364E+02 -0.31413918823E+01  0.45163990994E+02  0.61409263774E+02  0.10570000000E+00 0. -1.
         13    1    3    3    0    0  0.41490144364E+02  0.31413918823E+01  0.13202864891E+03  0.13843003910E+03  0.10570000000E+00 0.  1.
<mgrwt>
<rscale>  0 0.92404087E+02</rscale>
<asrwt>0</asrwt>
<pdfrwt beam="2">  1        1 0.17420512E-02 0.92404087E+02</pdfrwt>
<pdfrwt beam="1">  1       -1 0.29002453E-01 0.92404087E+02</pdfrwt>
<totfact> 0.68166154E+04</totfact>
</mgrwt>
</event>
<event>
 5    1  0.2734570E+000  0.9210969E+02  0.7818608E-02  0.1297822E+00
          1   -1    0    0  501    0  0.00000000000E+00  0.00000000000E+00  0.19741204249E+03  0.19741204254E+03  0.46700000000E-02 0. -1.
         -1   -1    0    0    0  501 -0.00000000000E+00 -0.00000000000E+00 -0.10744272030E+02  0.10744273045E+02  0.46700000000E-02 0.  1.
         23    2    1    2    0    0  0.00000000000E+00  0.00000000000E+00  0.18666777046E+03  0.20815631559E+03  0.92109691081E+02 0.  0.
        -13    1    3    3    0    0  0.38014947512E+02 -0.20703863120E+02  0.57799100911E+02  0.72211726340E+02  0.10570000000E+00 0.  1.
         13    1    3    3    0    0 -0.38014947512E+02  0.20703863120E+02  0.12886866954E+03  0.13594458925E+03  0.10570000000E+00 0. -1.
<mgrwt>
<rscale>  0 0.92109691E+02</rscale>
<asrwt>0</asrwt>
<pdfrwt beam="1">  1        1 0.30371079E-01 0.92109691E+02</pdfrwt>
<pdfrwt beam="2">  1       -1 0.16529652E-02 0.92109691E+02</pdfrwt>
<totfact> 0.11492193E+05</totfact>
</mgrwt>
</event>
<event>
 5    1  0.2734570E+000  0.7388037E+02  0.7818608E-02  0.1347374E+00
         -1   -1    0    0    0  501 -0.00000000000E+00  0.00000000000E+00  0.15463022704E+02  0.15463023409E+02  0.46700000000E-02 0.  1.
          1   -1    0    0  501    0  0.00000000000E+00 -0.00000000000E+00 -0.88247762020E+02  0.88247762144E+02  0.46700000000E-02 0. -1.
         23    2    1    2    0    0  0.00000000000E+00  0.00000000000E+00 -0.72784739316E+02  0.10371078555E+03  0.73880367910E+02 0.  0.
        -13    1    3    3    0    0 -0.26903292730E+01  0.36065727239E+02 -0.46952525902E+02  0.59266562359E+02  0.10570000000E+00 0. -1.
         13    1    3    3    0    0  0.26903292730E+01 -0.36065727239E+02 -0.25832213415E+02  0.44444223193E+02  0.10570000000E+00 0.  1.
<mgrwt>
<rscale>  0 0.73880368E+02</rscale>
<asrwt>0</asrwt>
<pdfrwt beam="2">  1        1 0.13576578E-01 0.73880368E+02</pdfrwt>
<pdfrwt beam="1">  1       -1 0.23789267E-02 0.73880368E+02</pdfrwt>
<totfact> 0.18047821E+05</totfact>
</mgrwt>
</event>
<event>
 5    1  0.2734570E+000  0.9382104E+02  0.7818608E-02  0.1293854E+00
         -1   -1    0    0    0  501 -0.00000000000E+00  0.00000000000E+00  0.24373906884E+02  0.24373907331E+02  0.46700000000E-02 0.  1.
          1   -1    0    0  501    0  0.00000000000E+00 -0.00000000000E+00 -0.90284938484E+02  0.90284938605E+02  0.46700000000E-02 0. -1.
         23    2    1    2    0    0  0.00000000000E+00  0.00000000000E+00 -0.65911031600E+02  0.11465884594E+03  0.93821036366E+02 0.  0.
        -13    1    3    3    0    0  0.53972448789E+01 -0.45501988810E+02 -0.20672068195E+02  0.50268348032E+02  0.10570000000E+00 0.  1.
         13    1    3    3    0    0 -0.53972448789E+01  0.45501988810E+02 -0.45238963405E+02  0.64390497904E+02  0.10570000000E+00 0. -1.
<mgrwt>
<rscale>  0 0.93821036E+02</rscale>
<asrwt>0</asrwt>
<pdfrwt beam="2">  1        1 0.13889990E-01 0.93821036E+02</pdfrwt>
<pdfrwt beam="1">  1       -1 0.37498319E-02 0.93821036E+02</pdfrwt>
<totfact> 0.94969118E+04</totfact>
</mgrwt>
</event>
<event>
 5    1  0.2734570E+000  0.9021826E+02  0.7818608E-02  0.1302324E+00
          1   -1    0    0  501    0  0.00000000000E+00  0.00000000000E+00  0.34642217250E+02  0.34642217565E+02  0.46700000000E-02 0. -1.
         -1   -1    0    0    0  501 -0.00000000000E+00 -0.00000000000E+00 -0.58738545778E+02  0.58738545964E+02  0.46700000000E-02 0.  1.
         23    2    1    2    0    0  0.00000000000E+00  0.00000000000E+00 -0.24096328528E+02  0.93380763529E+02  0.90218257292E+02 0.  0.
        -13    1    3    3    0    0 -0.10571583498E+02 -0.29348591530E+02  0.21678145700E+02  0.37987516054E+02  0.10570000000E+00 0. -1.
         13    1    3    3    0    0  0.10571583498E+02  0.29348591530E+02 -0.45774474228E+02  0.55393247475E+02  0.10570000000E+00 0.  1.
<mgrwt>
<rscale>  0 0.90218257E+02</rscale>
<asrwt>0</asrwt>
<pdfrwt beam="1">  1        1 0.53295719E-02 0.90218257E+02</pdfrwt>
<pdfrwt beam="2">  1       -1 0.90366994E-02 0.90218257E+02</pdfrwt>
<totfact> 0.91386362E+04</totfact>
</mgrwt>
</event>
<event>
 5    1  0.2734570E+000  0.8858125E+02  0.7818608E-02  0.1306324E+00
         -1   -1    0    0    0  501 -0.00000000000E+00  0.00000000000E+00  0.20759805890E+02  0.20759806416E+02  0.46700000000E-02 0.  1.
          1   -1    0    0  501    0  0.00000000000E+00 -0.00000000000E+00 -0.94493156828E+02  0.94493156943E+02  0.46700000000E-02 0. -1.
         23    2    1    2    0    0  0.00000000000E+00  0.00000000000E+00 -0.73733350938E+02  0.11525296336E+03  0.88581253787E+02 0.  0.
        -13    1    3    3    0    0  0.38051859769E+02  0.20936254777E+02 -0.25570495326E+02  0.50399724202E+02  0.10570000000E+00 0.  1.
         13    1    3    3    0    0 -0.38051859769E+02 -0.20936254777E+02 -0.48162855612E+02  0.64853239157E+02  0.10570000000E+00 0. -1.
<mgrwt>
<rscale>  0 0.88581254E+02</rscale>
<asrwt>0</asrwt>
<pdfrwt beam="2">  1        1 0.14537409E-01 0.88581254E+02</pdfrwt>
<pdfrwt beam="1">  1       -1 0.31938164E-02 0.88581254E+02</pdfrwt>
<totfact> 0.11194628E+05</totfact>
</mgrwt>
</event>
<event>
 5    1  0.2734570E+000  0.9067110E+02  0.7818608E-02  0.1301235E+00
         -1   -1    0    0    0  501 -0.00000000000E+00  0.00000000000E+00  0.10610844823E+02  0.10610845851E+02  0.46700000000E-02 0.  1.
          1   -1    0    0  501    0  0.00000000000E+00 -0.00000000000E+00 -0.19369919747E+03  0.19369919752E+03  0.46700000000E-02 0. -1.
         23    2    1    2    0    0  0.00000000000E+00  0.00000000000E+00 -0.18308835265E+03  0.20431004338E+03  0.90671103167E+02 0.  0.
        -13    1    3    3    0    0  0.19993483670E+02  0.24551232908E+02 -0.18431366693E+02  0.36636441928E+02  0.10570000000E+00 0.  1.
         13    1    3    3    0    0 -0.19993483670E+02 -0.24551232908E+02 -0.16465698595E+03  0.16767360145E+03  0.10570000000E+00 0. -1.
<mgrwt>
<rscale>  0 0.90671103E+02</rscale>
<asrwt>0</asrwt>
<pdfrwt beam="2">  1        1 0.29799874E-01 0.90671103E+02</pdfrwt>
<pdfrwt beam="1">  1       -1 0.16324379E-02 0.90671103E+02</pdfrwt>
<totfact> 0.11944284E+05</totfact>
</mgrwt>
</event>
<event>
 5    1  0.2734570E+000  0.9107534E+02  0.7818608E-02  0.1300268E+00
         -1   -1    0    0    0  501 -0.00000000000E+00  0.00000000000E+00  0.12163179786E+02  0.12163180683E+02  0.46700000000E-02 0.  1.
          1   -1    0    0  501    0  0.00000000000E+00 -0.00000000000E+00 -0.17048826868E+03  0.17048826874E+03  0.46700000000E-02 0. -1.
         23    2    1    2    0    0  0.00000000000E+00  0.00000000000E+00 -0.15832508889E+03  0.18265144942E+03  0.91075343560E+02 0.  0.
        -13    1    3    3    0    0 -0.12175978368E+02  0.29234300001E+02 -0.14478769726E+03  0.14821061769E+03  0.10570000000E+00 0. -1.
         13    1    3    3    0    0  0.12175978368E+02 -0.29234300001E+02 -0.13537391629E+02  0.34440831732E+02  0.10570000000E+00 0.  1.
<mgrwt>
<rscale>  0 0.91075344E+02</rscale>
<asrwt>0</asrwt>
<pdfrwt beam="2">  1        1 0.26228963E-01 0.91075344E+02</pdfrwt>
<pdfrwt beam="1">  1       -1 0.18712586E-02 0.91075344E+02</pdfrwt>
<totfact> 0.11518239E+05</totfact>
</mgrwt>
</event>
<event>
 5    1  0.2734570E+000  0.9408254E+02  0.7818608E-02  0.1293256E+00
          1   -1    0    0  501    0  0.00000000000E+00  0.00000000000E+00  0.91476445054E+01  0.91476456975E+01  0.46700000000E-02 0. -1.
         -1   -1    0    0    0  501 -0.00000000000E+00 -0.00000000000E+00 -0.24190717763E+03  0.24190717767E+03  0.46700000000E-02 0.  1.
         23    2    1    2    0    0  0.00000000000E+00  0.00000000000E+00 -0.23275953312E+03  0.25105482337E+03  0.94082538646E+02 0.  0.
        -13    1    3    3    0    0 -0.44001513933E+02 -0.10866553815E+02 -0.14999111322E+03  0.15668937564E+03  0.10570000000E+00 0.  1.
         13    1    3    3    0    0  0.44001513933E+02  0.10866553815E+02 -0.82768419904E+02  0.94365447734E+02  0.10570000000E+00 0. -1.
<mgrwt>
<rscale>  0 0.94082539E+02</rscale>
<asrwt>0</asrwt>
<pdfrwt beam="1">  1        1 0.14073302E-02 0.94082539E+02</pdfrwt>
<pdfrwt beam="2">  1       -1 0.37216484E-01 0.94082539E+02</pdfrwt>
<totfact> 0.60324644E+04</totfact>
</mgrwt>
</event>
<event>
 5    1  0.2734570E+000  0.8817458E+02  0.7818608E-02  0.1307333E+00
          1   -1    0    0  501    0  0.00000000000E+00  0.00000000000E+00  0.68406628458E+02  0.68406628617E+02  0.46700000000E-02 0. -1.
         -1   -1    0    0    0  501 -0.00000000000E+00 -0.00000000000E+00 -0.28413753430E+02  0.28413753814E+02  0.46700000000E-02 0.  1.
         23    2    1    2    0    0  0.00000000000E+00  0.00000000000E+00  0.39992875027E+02  0.96820382431E+02  0.88174579110E+02 0.  0.
        -13    1    3    3    0    0 -0.38657890324E+02 -0.96042542840E+01 -0.75077632855E+00  0.39840293953E+02  0.10570000000E+00 0.  1.
         13    1    3    3    0    0  0.38657890324E+02  0.96042542840E+01  0.40743651356E+02  0.56980088478E+02  0.10570000000E+00 0. -1.
<mgrwt>
<rscale>  0 0.88174579E+02</rscale>
<asrwt>0</asrwt>
<pdfrwt beam="1">  1        1 0.10524097E-01 0.88174579E+02</pdfrwt>
<pdfrwt beam="2">  1       -1 0.43713468E-02 0.88174579E+02</pdfrwt>
<totfact> 0.10780447E+05</totfact>
</mgrwt>
</event>
<event>
 5    1  0.2734570E+000  0.9142139E+02  0.7818608E-02  0.1299446E+00
          1   -1    0    0  501    0  0.00000000000E+00  0.00000000000E+00  0.62826681831E+02  0.62826682005E+02  0.46700000000E-02 0. -1.
         -1   -1    0    0    0  501 -0.00000000000E+00 -0.00000000000E+00 -0.33257649235E+02  0.33257649563E+02  0.46700000000E-02 0.  1.
         23    2    1    2    0    0  0.00000000000E+00  0.00000000000E+00  0.29569032596E+02  0.96084331568E+02  0.91421392924E+02 0.  0.
        -13    1    3    3    0    0  0.26421780575E+02  0.34935330727E+02  0.28522914322E+02  0.52270026168E+02  0.10570000000E+00 0.  1.
         13    1    3    3    0    0 -0.26421780575E+02 -0.34935330727E+02  0.10461182742E+01  0.43814305400E+02  0.10570000000E+00 0. -1.
<mgrwt>
<rscale>  0 0.91421393E+02</rscale>
<asrwt>0</asrwt>
<pdfrwt beam="1">  1        1 0.96656434E-02 0.91421393E+02</pdfrwt>
<pdfrwt beam="2">  1       -1 0.51165615E-02 0.91421393E+02</pdfrwt>
<totfact> 0.96328679E+04</totfact>
</mgrwt>
</event>
<event>
 5    1  0.2734570E+000  0.9047589E+02  0.7818608E-02  0.1301703E+00
          1   -1    0    0  501    0  0.00000000000E+00  0.00000000000E+00  0.99168228655E+02  0.99168228765E+02  0.46700000000E-02 0. -1.
         -1   -1    0    0    0  501 -0.00000000000E+00 -0.00000000000E+00 -0.20636364475E+02  0.20636365003E+02  0.46700000000E-02 0.  1.
         23    2    1    2    0    0  0.00000000000E+00  0.00000000000E+00  0.78531864181E+02  0.11980459377E+03  0.90475891796E+02 0.  0.
        -13    1    3    3    0    0 -0.33931717703E+02  0.18687073300E+02  0.83277975968E+01  0.39622361870E+02  0.10570000000E+00 0.  1.
         13    1    3    3    0    0  0.33931717703E+02 -0.18687073300E+02  0.70204066584E+02  0.80182231899E+02  0.10570000000E+00 0. -1.
<mgrwt>
<rscale>  0 0.90475892E+02</rscale>
<asrwt>0</asrwt>
<pdfrwt beam="1">  1        1 0.15256650E-01 0.90475892E+02</pdfrwt>
<pdfrwt beam="2">  1       -1 0.31748254E-02 0.90475892E+02</pdfrwt>
<totfact> 0.10652275E+05</totfact>
</mgrwt>
</event>
<event>
 5    1  0.2734570E+000  0.8640492E+02  0.7818608E-02  0.1311799E+00
          1   -1    0    0  501    0  0.00000000000E+00  0.00000000000E+00  0.71652563602E+02  0.71652563754E+02  0.46700000000E-02 0. -1.
         -1   -1    0    0    0  501 -0.00000000000E+00 -0.00000000000E+00 -0.26048649627E+02  0.26048650045E+02  0.46700000000E-02 0.  1.
         23    2    1    2    0    0  0.00000000000E+00  0.00000000000E+00  0.45603913976E+02  0.97701213800E+02  0.86404920045E+02 0.  0.
        -13    1    3    3    0    0 -0.84642992533E+01 -0.35843677954E+02 -0.27343680444E+01  0.36931037790E+02  0.10570000000E+00 0.  1.
         13    1    3    3    0    0  0.84642992533E+01  0.35843677954E+02  0.48338282020E+02  0.60770176010E+02  0.10570000000E+00 0. -1.
<mgrwt>
<rscale>  0 0.86404920E+02</rscale>
<asrwt>0</asrwt>
<pdfrwt beam="1">  1        1 0.11023471E-01 0.86404920E+02</pdfrwt>
<pdfrwt beam="2">  1       -1 0.40074846E-02 0.86404920E+02</pdfrwt>
<totfact> 0.11475442E+05</totfact>
</mgrwt>
</event>
<event>
 5    1  0.2734570E+000  0.8556413E+02  0.7818608E-02  0.1313964E+00
          1   -1    0    0  501    0  0.00000000000E+00  0.00000000000E+00  0.12478833577E+03  0.12478833586E+03  0.46700000000E-02 0. -1.
         -1   -1    0    0    0  501 -0.00000000000E+00 -0.00000000000E+00 -0.14667276865E+02  0.14667277609E+02  0.46700000000E-02 0.  1.
         23    2    1    2    0    0  0.00000000000E+00  0.00000000000E+00  0.11012105891E+03  0.13945561347E+03  0.85564130996E+02 0.  0.
        -13    1    3    3    0    0  0.70932603097E+01  0.42020516774E+02  0.61214278892E+02  0.74587112054E+02  0.10570000000E+00 0. -1.
         13    1    3    3    0    0 -0.70932603097E+01 -0.42020516774E+02  0.48906780016E+02  0.64868501415E+02  0.10570000000E+00 0.  1.
<mgrwt>
<rscale>  0 0.85564131E+02</rscale>
<asrwt>0</asrwt>
<pdfrwt beam="1">  1        1 0.19198206E-01 0.85564131E+02</pdfrwt>
<pdfrwt beam="2">  1       -1 0.22565042E-02 0.85564131E+02</pdfrwt>
<totfact> 0.12875537E+05</totfact>
</mgrwt>
</event>
<event>
 5    1  0.2734570E+000  0.9083008E+02  0.7818608E-02  0.1300854E+00
          1   -1    0    0  501    0  0.00000000000E+00  0.00000000000E+00  0.25184232202E+03  0.25184232206E+03  0.46700000000E-02 0. -1.
         -1   -1    0    0    0  501 -0.00000000000E+00 -0.00000000000E+00 -0.81897492933E+01  0.81897506247E+01  0.46700000000E-02 0.  1.
         23    2    1    2    0    0  0.00000000000E+00  0.00000000000E+00  0.24365257273E+03  0.26003207269E+03  0.90830075581E+02 0.  0.
        -13    1    3    3    0    0  0.11738543770E+02  0.34410486805E+02  0.43914947172E+02  0.57012356289E+02  0.10570000000E+00 0.  1.
         13    1    3    3    0    0 -0.11738543770E+02 -0.34410486805E+02  0.19973762556E+03  0.20301971640E+03  0.10570000000E+00 0. -1.
<mgrwt>
<rscale>  0 0.90830076E+02</rscale>
<asrwt>0</asrwt>
<pdfrwt beam="1">  1        1 0.38744966E-01 0.90830076E+02</pdfrwt>
<pdfrwt beam="2">  1       -1 0.12599618E-02 0.90830076E+02</pdfrwt>
<totfact> 0.12511348E+05</totfact>
</mgrwt>
</event>
<event>
 5    1  0.2734570E+000  0.8950851E+02  0.7818608E-02  0.1304046E+00
         -1   -1    0    0    0  501 -0.00000000000E+00  0.00000000000E+00  0.11827774301E+03  0.11827774310E+03  0.46700000000E-02 0.  1.
          1   -1    0    0  501    0  0.00000000000E+00 -0.00000000000E+00 -0.16934237349E+02  0.16934237992E+02  0.46700000000E-02 0. -1.
         23    2    1    2    0    0  0.00000000000E+00  0.00000000000E+00  0.10134350566E+03  0.13521198109E+03  0.89508511838E+02 0.  0.
        -13    1    3    3    0    0  0.77707962930E+01 -0.37245042531E+02  0.15072924323E+02  0.40924108889E+02  0.10570000000E+00 0. -1.
         13    1    3    3    0    0 -0.77707962930E+01  0.37245042531E+02  0.86270581334E+02  0.94287872202E+02  0.10570000000E+00 0.  1.
<mgrwt>
<rscale>  0 0.89508512E+02</rscale>
<asrwt>0</asrwt>
<pdfrwt beam="2">  1        1 0.26052674E-02 0.89508512E+02</pdfrwt>
<pdfrwt beam="1">  1       -1 0.18196576E-01 0.89508512E+02</pdfrwt>
<totfact> 0.82607789E+04</totfact>
</mgrwt>
</event>
<event>
 5    1  0.2734570E+000  0.9220552E+02  0.7818608E-02  0.1297597E+00
          1   -1    0    0  501    0  0.00000000000E+00  0.00000000000E+00  0.81660073898E+01  0.81660087251E+01  0.46700000000E-02 0. -1.
         -1   -1    0    0    0  501 -0.00000000000E+00 -0.00000000000E+00 -0.26028191811E+03  0.26028191816E+03  0.46700000000E-02 0.  1.
         23    2    1    2    0    0  0.00000000000E+00  0.00000000000E+00 -0.25211591072E+03  0.26844792688E+03  0.92205515054E+02 0.  0.
        -13    1    3    3    0    0  0.43391963593E+02  0.77072244309E+01 -0.16546312195E+03  0.17123177191E+03  0.10570000000E+00 0. -1.
         13    1    3    3    0    0 -0.43391963593E+02 -0.77072244309E+01 -0.86652788774E+02  0.97216154973E+02  0.10570000000E+00 0.  1.
<mgrwt>
<rscale>  0 0.92205515E+02</rscale>
<asrwt>0</asrwt>
<pdfrwt beam="1">  1        1 0.12563091E-02 0.92205515E+02</pdfrwt>
<pdfrwt beam="2">  1       -1 0.40043366E-01 0.92205515E+02</pdfrwt>
<totfact> 0.62024782E+04</totfact>
</mgrwt>
</event>
<event>
 5    1  0.2734570E+000  0.9079589E+02  0.7818608E-02  0.1300936E+00
          1   -1    0    0  501    0  0.00000000000E+00  0.00000000000E+00  0.32396995634E+03  0.32396995637E+03  0.46700000000E-02 0. -1.
         -1   -1    0    0    0  501 -0.00000000000E+00 -0.00000000000E+00 -0.63616187483E+01  0.63616204624E+01  0.46700000000E-02 0.  1.
         23    2    1    2    0    0  0.00000000000E+00  0.00000000000E+00  0.31760833759E+03  0.33033157684E+03  0.90795894991E+02 0.  0.
        -13    1    3    3    0    0  0.34470462647E+02 -0.26533764050E+02  0.20605974321E+03  0.21060124020E+03  0.10570000000E+00 0. -1.
         13    1    3    3    0    0 -0.34470462647E+02  0.26533764050E+02  0.11154859438E+03  0.11973033663E+03  0.10570000000E+00 0.  1.
<mgrwt>
<rscale>  0 0.90795895E+02</rscale>
<asrwt>0</asrwt>
<pdfrwt beam="1">  1        1 0.49841525E-01 0.90795895E+02</pdfrwt>
<pdfrwt beam="2">  1       -1 0.97871085E-03 0.90795895E+02</pdfrwt>
<totfact> 0.13144545E+05</totfact>
</mgrwt>
</event>
<event>
 5    1  0.2734570E+000  0.9266697E+02  0.7818608E-02  0.1296519E+00
         -1   -1    0    0    0  501 -0.00000000000E+00  0.00000000000E+00  0.25570572665E+02  0.25570573092E+02  0.46700000000E-02 0.  1.
          1   -1    0    0  501    0  0.00000000000E+00 -0.00000000000E+00 -0.83955569157E+02  0.83955569287E+02  0.46700000000E-02 0. -1.
         23    2    1    2    0    0  0.00000000000E+00  0.00000000000E+00 -0.58384996492E+02  0.10952614238E+03  0.92666973885E+02 0.  0.
        -13    1    3    3    0    0 -0.21607354010E+01  0.20151098092E+02 -0.78438767846E+02  0.81014733262E+02  0.10570000000E+00 0. -1.
         13    1    3    3    0    0  0.21607354010E+01 -0.20151098092E+02  0.20053771354E+02  0.28511409117E+02  0.10570000000E+00 0.  1.
<mgrwt>
<rscale>  0 0.92666974E+02</rscale>
<asrwt>0</asrwt>
<pdfrwt beam="2">  1        1 0.12916241E-01 0.92666974E+02</pdfrwt>
<pdfrwt beam="1">  1       -1 0.39339343E-02 0.92666974E+02</pdfrwt>
<totfact> 0.97098166E+04</totfact>
</mgrwt>
</event>
<event>
 5    1  0.2734570E+000  0.8362908E+02  0.7818608E-02  0.1319057E+00
         -1   -1    0    0    0  501 -0.00000000000E+00  0.00000000000E+00  0.65038517406E+01  0.65038534172E+01  0.46700000000E-02 0. -1.
          1   -1    0    0  501    0  0.00000000000E+00 -0.00000000000E+00 -0.26883382879E+03  0.26883382883E+03  0.46700000000E-02 0.  1.
         23    2    1    2    0    0  0.00000000000E+00  0.00000000000E+00 -0.26232997705E+03  0.27533768224E+03  0.83629076323E+02 0.  0.
        -13    1    3    3    0    0 -0.33294609473E+02  0.24756065331E+02 -0.14828866891E+03  0.15398355201E+03  0.10570000000E+00 0.  1.
         13    1    3    3    0    0  0.33294609473E+02 -0.24756065331E+02 -0.11404130814E+03  0.12135413023E+03  0.10570000000E+00 0. -1.
<mgrwt>
<rscale>  0 0.83629076E+02</rscale>
<asrwt>0</asrwt>
<pdfrwt beam="2">  1        1 0.41359042E-01 0.83629076E+02</pdfrwt>
<pdfrwt beam="1">  1       -1 0.10005929E-02 0.83629076E+02</pdfrwt>
<totfact> 0.15778668E+05</totfact>
</mgrwt>
</event>
<event>
 5    1  0.2734570E+000  0.9093656E+02  0.7818608E-02  0.1300599E+00
          1   -1    0    0  501    0  0.00000000000E+00  0.00000000000E+00  0.92691094510E+01  0.92691106275E+01  0.46700000000E-02 0. -1.
         -1   -1    0    0    0  501 -0.00000000000E+00 -0.00000000000E+00 -0.22303807639E+03  0.22303807644E+03  0.46700000000E-02 0.  1.
         23    2    1    2    0    0  0.00000000000E+00  0.00000000000E+00 -0.21376896694E+03  0.23230718707E+03  0.90936559956E+02 0.  0.
        -13    1    3    3    0    0 -0.13807172221E+02 -0.37908563577E+02 -0.16044943098E+03  0.16544403365E+03  0.10570000000E+00 0.  1.
         13    1    3    3    0    0  0.13807172221E+02  0.37908563577E+02 -0.53319535967E+02  0.66863153421E+02  0.10570000000E+00 0. -1.
<mgrwt>
<rscale>  0 0.90936560E+02</rscale>
<asrwt>0</asrwt>
<pdfrwt beam="1">  1        1 0.14260171E-02 0.90936560E+02</pdfrwt>
<pdfrwt beam="2">  1       -1 0.34313546E-01 0.90936560E+02</pdfrwt>
<totfact> 0.67670457E+04</totfact>
</mgrwt>
</event>
<event>
 5    1  0.2734570E+000  0.9124937E+02  0.7818608E-02  0.1299854E+00
         -1   -1    0    0    0  501 -0.00000000000E+00  0.00000000000E+00  0.13528288470E+02  0.13528289276E+02  0.46700000000E-02 0.  1.
          1   -1    0    0  501    0  0.00000000000E+00 -0.00000000000E+00 -0.15387105329E+03  0.15387105336E+03  0.46700000000E-02 0. -1.
         23    2    1    2    0    0  0.00000000000E+00  0.00000000000E+00 -0.14034276482E+03  0.16739934264E+03  0.91249374123E+02 0.  0.
        -13    1    3    3    0    0  0.44273381669E+02  0.27923977591E+01 -0.50612282686E+02  0.67301888093E+02  0.10570000000E+00 0.  1.
         13    1    3    3    0    0 -0.44273381669E+02 -0.27923977591E+01 -0.89730482133E+02  0.10009745454E+03  0.10570000000E+00 0. -1.
<mgrwt>
<rscale>  0 0.91249374E+02</rscale>
<asrwt>0</asrwt>
<pdfrwt beam="2">  1        1 0.23672469E-01 0.91249374E+02</pdfrwt>
<pdfrwt beam="1">  1       -1 0.20812753E-02 0.91249374E+02</pdfrwt>
<totfact> 0.11241911E+05</totfact>
</mgrwt>
</event>
<event>
 5    1  0.2734570E+000  0.9113820E+02  0.7818608E-02  0.1300119E+00
          1   -1    0    0  501    0  0.00000000000E+00  0.00000000000E+00  0.17778925258E+02  0.17778925872E+02  0.46700000000E-02 0. -1.
         -1   -1    0    0    0  501 -0.00000000000E+00 -0.00000000000E+00 -0.11679798893E+03  0.11679798902E+03  0.46700000000E-02 0.  1.
         23    2    1    2    0    0  0.00000000000E+00  0.00000000000E+00 -0.99019063671E+02  0.13457691489E+03  0.91138197547E+02 0.  0.
        -13    1    3    3    0    0  0.29130672875E+02 -0.16076614126E+02 -0.95486370326E+02  0.10111731659E+03  0.10570000000E+00 0.  1.
         13    1    3    3    0    0 -0.29130672875E+02  0.16076614126E+02 -0.35326933445E+01  0.33459598303E+02  0.10570000000E+00 0. -1.
<mgrwt>
<rscale>  0 0.91138198E+02</rscale>
<asrwt>0</asrwt>
<pdfrwt beam="1">  1        1 0.27352194E-02 0.91138198E+02</pdfrwt>
<pdfrwt beam="2">  1       -1 0.17968921E-01 0.91138198E+02</pdfrwt>
<totfact> 0.79049604E+04</totfact>
</mgrwt>
</event>
<event>
 5    1  0.2734570E+000  0.9166167E+02  0.7818608E-02  0.1298877E+00
         -1   -1    0    0    0  501 -0.00000000000E+00  0.00000000000E+00  0.52663437712E+02  0.52663437919E+02  0.46700000000E-02 0.  1.
          1   -1    0    0  501    0  0.00000000000E+00 -0.00000000000E+00 -0.39884703123E+02  0.39884703397E+02  0.46700000000E-02 0. -1.
         23    2    1    2    0    0  0.00000000000E+00  0.00000000000E+00  0.12778734589E+02  0.92548141315E+02  0.91661673579E+02 0.  0.
        -13    1    3    3    0    0 -0.24358544817E+02  0.35851377356E+02 -0.86474273954E+01  0.44197840863E+02  0.10570000000E+00 0. -1.
         13    1    3    3    0    0  0.24358544817E+02 -0.35851377356E+02  0.21426161984E+02  0.48350300452E+02  0.10570000000E+00 0.  1.
<mgrwt>
<rscale>  0 0.91661674E+02</rscale>
<asrwt>0</asrwt>
<pdfrwt beam="2">  1        1 0.61361082E-02 0.91661674E+02</pdfrwt>
<pdfrwt beam="1">  1       -1 0.81020673E-02 0.91661674E+02</pdfrwt>
<totfact> 0.89274315E+04</totfact>
</mgrwt>
</event>
<event>
 5    1  0.2734570E+000  0.9163417E+02  0.7818608E-02  0.1298942E+00
          1   -1    0    0  501    0  0.00000000000E+00  0.00000000000E+00  0.27420780852E+02  0.27420781250E+02  0.46700000000E-02 0. -1.
         -1   -1    0    0    0  501 -0.00000000000E+00 -0.00000000000E+00 -0.76555260606E+02  0.76555260749E+02  0.46700000000E-02 0.  1.
         23    2    1    2    0    0  0.00000000000E+00  0.00000000000E+00 -0.49134479754E+02  0.10397604200E+03  0.91634165075E+02 0.  0.
        -13    1    3    3    0    0  0.10001563058E+02  0.15895837918E+02  0.22852402939E+02  0.29579594643E+02  0.10570000000E+00 0. -1.
         13    1    3    3    0    0 -0.10001563058E+02 -0.15895837918E+02 -0.71986882693E+02  0.74396447355E+02  0.10570000000E+00 0.  1.
<mgrwt>
<rscale>  0 0.91634165E+02</rscale>
<asrwt>0</asrwt>
<pdfrwt beam="1">  1        1 0.42185817E-02 0.91634165E+02</pdfrwt>
<pdfrwt beam="2">  1       -1 0.11777732E-01 0.91634165E+02</pdfrwt>
<totfact> 0.84193005E+04</totfact>
</mgrwt>
</event>
<event>
 5    1  0.2734570E+000  0.9159122E+02  0.7818608E-02  0.1299043E+00
          1   -1    0    0  501    0  0.00000000000E+00  0.00000000000E+00  0.38997190340E+02  0.38997190619E+02  0.46700000000E-02 0. -1.
         -1   -1    0    0    0  501 -0.00000000000E+00 -0.00000000000E+00 -0.53779206059E+02  0.53779206262E+02  0.46700000000E-02 0.  1.
         23    2    1    2    0    0  0.00000000000E+00  0.00000000000E+00 -0.14782015719E+02  0.92776396881E+02  0.91591221356E+02 0.  0.
        -13    1    3    3    0    0 -0.31629372495E+02 -0.33081674410E+02 -0.58177199846E+01  0.46137527291E+02  0.10570000000E+00 0.  1.
         13    1    3    3    0    0  0.31629372495E+02  0.33081674410E+02 -0.89642957347E+01  0.46638869591E+02  0.10570000000E+00 0. -1.
<mgrwt>
<rscale>  0 0.91591221E+02</rscale>
<asrwt>0</asrwt>
<pdfrwt beam="1">  1        1 0.59995678E-02 0.91591221E+02</pdfrwt>
<pdfrwt beam="2">  1       -1 0.82737241E-02 0.91591221E+02</pdfrwt>
<totfact> 0.89161409E+04</totfact>
</mgrwt>
</event>
<event>
 5    1  0.2734570E+000  0.9102480E+02  0.7818608E-02  0.1300389E+00
          1   -1    0    0  501    0  0.00000000000E+00  0.00000000000E+00  0.16985020236E+03  0.16985020243E+03  0.46700000000E-02 0. -1.
         -1   -1    0    0    0  501 -0.00000000000E+00 -0.00000000000E+00 -0.12195325836E+02  0.12195326730E+02  0.46700000000E-02 0.  1.
         23    2    1    2    0    0  0.00000000000E+00  0.00000000000E+00  0.15765487653E+03  0.18204552916E+03  0.91024802077E+02 0.  0.
        -13    1    3    3    0    0  0.33713568974E+02 -0.29908482322E+02  0.66139865396E+02  0.80035086149E+02  0.10570000000E+00 0. -1.
         13    1    3    3    0    0 -0.33713568974E+02  0.29908482322E+02  0.91515011130E+02  0.10201044301E+03  0.10570000000E+00 0.  1.
<mgrwt>
<rscale>  0 0.91024802E+02</rscale>
<asrwt>0</asrwt>
<pdfrwt beam="1">  1        1 0.26130797E-01 0.91024802E+02</pdfrwt>
<pdfrwt beam="2">  1       -1 0.18762043E-02 0.91024802E+02</pdfrwt>
<totfact> 0.11527321E+05</totfact>
</mgrwt>
</event>
<event>
 5    1  0.2734570E+000  0.8612880E+02  0.7818608E-02  0.1312507E+00
          1   -1    0    0  501    0  0.00000000000E+00  0.00000000000E+00  0.23656717494E+02  0.23656717955E+02  0.46700000000E-02 0. -1.
         -1   -1    0    0    0  501 -0.00000000000E+00 -0.00000000000E+00 -0.78393915889E+02  0.78393916028E+02  0.46700000000E-02 0.  1.
         23    2    1    2    0    0  0.00000000000E+00  0.00000000000E+00 -0.54737198395E+02  0.10205063398E+03  0.86128804753E+02 0.  0.
        -13    1    3    3    0    0 -0.16842546428E+02  0.18786278816E+01  0.19539479367E+02  0.25865093066E+02  0.10570000000E+00 0. -1.
         13    1    3    3    0    0  0.16842546428E+02 -0.18786278816E+01 -0.74276677763E+02  0.76185540917E+02  0.10570000000E+00 0.  1.
<mgrwt>
<rscale>  0 0.86128805E+02</rscale>
<asrwt>0</asrwt>
<pdfrwt beam="1">  1        1 0.36394951E-02 0.86128805E+02</pdfrwt>
<pdfrwt beam="2">  1       -1 0.12060602E-01 0.86128805E+02</pdfrwt>
<totfact> 0.98242965E+04</totfact>
</mgrwt>
</event>
<event>
 5    1  0.2734570E+000  0.9190257E+02  0.7818608E-02  0.1298309E+00
         -1   -1    0    0    0  501 -0.00000000000E+00  0.00000000000E+00  0.93986251717E+01  0.93986263319E+01  0.46700000000E-02 0.  1.
          1   -1    0    0  501    0  0.00000000000E+00 -0.00000000000E+00 -0.22466268041E+03  0.22466268046E+03  0.46700000000E-02 0. -1.
         23    2    1    2    0    0  0.00000000000E+00  0.00000000000E+00 -0.21526405524E+03  0.23406130679E+03  0.91902567206E+02 0.  0.
        -13    1    3    3    0    0  0.25538574796E+01  0.37942462430E+02 -0.17332656110E+03  0.17744931839E+03  0.10570000000E+00 0.  1.
         13    1    3    3    0    0 -0.25538574796E+01 -0.37942462430E+02 -0.41937494144E+02  0.56611988402E+02  0.10570000000E+00 0. -1.
<mgrwt>
<rscale>  0 0.91902567E+02</rscale>
<asrwt>0</asrwt>
<pdfrwt beam="2">  1        1 0.34563485E-01 0.91902567E+02</pdfrwt>
<pdfrwt beam="1">  1       -1 0.14459426E-02 0.91902567E+02</pdfrwt>
<totfact> 0.11857238E+05</totfact>
</mgrwt>
</event>
<event>
 4    1  0.2734570E+000  0.3130436E+03  0.7818608E-02  0.1078896E+00
          1   -1    0    0  501    0  0.00000000000E+00  0.00000000000E+00  0.79607178231E+02  0.79607178368E+02  0.46700000000E-02 0. -1.
         -1   -1    0    0    0  501 -0.00000000000E+00 -0.00000000000E+00 -0.30774957889E+03  0.30774957892E+03  0.46700000000E-02 0.  1.
        -13    1    1    2    0    0  0.11210249708E+03  0.69493537334E+02 -0.21835559816E+03  0.25509900040E+03  0.10570000000E+00 0.  1.
         13    1    1    2    0    0 -0.11210249708E+03 -0.69493537334E+02 -0.97868024949E+01  0.13225775689E+03  0.10570000000E+00 0. -1.
<mgrwt>
<rscale>  0 0.31304361E+03</rscale>
<asrwt>0</asrwt>
<pdfrwt beam="1">  1        1 0.12247258E-01 0.31304361E+03</pdfrwt>
<pdfrwt beam="2">  1       -1 0.47346088E-01 0.31304361E+03</pdfrwt>
<totfact> 0.22211764E+03</totfact>
</mgrwt>
</event>
<event>
 5    1  0.2734570E+000  0.9084566E+02  0.7818608E-02  0.1300817E+00
         -1   -1    0    0    0  501 -0.00000000000E+00  0.00000000000E+00  0.53403618880E+02  0.53403619084E+02  0.46700000000E-02 0.  1.
          1   -1    0    0  501    0  0.00000000000E+00 -0.00000000000E+00 -0.38634710307E+02  0.38634710589E+02  0.46700000000E-02 0. -1.
         23    2    1    2    0    0  0.00000000000E+00  0.00000000000E+00  0.14768908573E+02  0.92038329673E+02  0.90845657400E+02 0.  0.
        -13    1    3    3    0    0  0.42153686827E+02 -0.14398095883E+02  0.16388409766E+02  0.47463982400E+02  0.10570000000E+00 0. -1.
         13    1    3    3    0    0 -0.42153686827E+02  0.14398095883E+02 -0.16195011934E+01  0.44574347272E+02  0.10570000000E+00 0.  1.
<mgrwt>
<rscale>  0 0.90845657E+02</rscale>
<asrwt>0</asrwt>
<pdfrwt beam="2">  1        1 0.59438016E-02 0.90845657E+02</pdfrwt>
<pdfrwt beam="1">  1       -1 0.82159414E-02 0.90845657E+02</pdfrwt>
<totfact> 0.91118370E+04</totfact>
</mgrwt>
</event>
<event>
 5    1  0.2734570E+000  0.9023999E+02  0.7818608E-02  0.1302272E+00
          1   -1    0    0  501    0  0.00000000000E+00  0.00000000000E+00  0.32327854046E+03  0.32327854049E+03  0.46700000000E-02 0. -1.
         -1   -1    0    0    0  501 -0.00000000000E+00 -0.00000000000E+00 -0.62973985918E+01  0.62974003234E+01  0.46700000000E-02 0.  1.
         23    2    1    2    0    0  0.00000000000E+00  0.00000000000E+00  0.31698114187E+03  0.32957594082E+03  0.90239993713E+02 0.  0.
        -13    1    3    3    0    0 -0.39087387283E+02  0.19387524877E+02  0.11651344031E+03  0.12441500275E+03  0.10570000000E+00 0. -1.
         13    1    3    3    0    0  0.39087387283E+02 -0.19387524877E+02  0.20046770156E+03  0.20516093806E+03  0.10570000000E+00 0.  1.
<mgrwt>
<rscale>  0 0.90239994E+02</rscale>
<asrwt>0</asrwt>
<pdfrwt beam="1">  1        1 0.49735167E-01 0.90239994E+02</pdfrwt>
<pdfrwt beam="2">  1       -1 0.96883056E-03 0.90239994E+02</pdfrwt>
<totfact> 0.13355609E+05</totfact>
</mgrwt>
</event>
<event>
 5    1  0.2734570E+000  0.9148147E+02  0.7818608E-02  0.1299303E+00
          1   -1    0    0  501    0  0.00000000000E+00  0.00000000000E+00  0.43327691014E+02  0.43327691265E+02  0.46700000000E-02 0. -1.
         -1   -1    0    0    0  501 -0.00000000000E+00 -0.00000000000E+00 -0.48288171516E+02  0.48288171742E+02  0.46700000000E-02 0.  1.
         23    2    1    2    0    0  0.00000000000E+00  0.00000000000E+00 -0.49604805025E+01  0.91615863007E+02  0.91481473467E+02 0.  0.
        -13    1    3    3    0    0 -0.34348036939E+02  0.57767659750E+01  0.27212010455E+02  0.44200264164E+02  0.10570000000E+00 0. -1.
         13    1    3    3    0    0  0.34348036939E+02 -0.57767659750E+01 -0.32172490958E+02  0.47415598843E+02  0.10570000000E+00 0.  1.
<mgrwt>
<rscale>  0 0.91481473E+02</rscale>
<asrwt>0</asrwt>
<pdfrwt beam="1">  1        1 0.66657986E-02 0.91481473E+02</pdfrwt>
<pdfrwt beam="2">  1       -1 0.74289495E-02 0.91481473E+02</pdfrwt>
<totfact> 0.90908521E+04</totfact>
</mgrwt>
</event>
<event>
 5    1  0.2734570E+000  0.9318965E+02  0.7818608E-02  0.1295306E+00
          1   -1    0    0  501    0  0.00000000000E+00  0.00000000000E+00  0.10182737428E+02  0.10182738499E+02  0.46700000000E-02 0. -1.
         -1   -1    0    0    0  501 -0.00000000000E+00 -0.00000000000E+00 -0.21321157882E+03  0.21321157887E+03  0.46700000000E-02 0.  1.
         23    2    1    2    0    0  0.00000000000E+00  0.00000000000E+00 -0.20302884139E+03  0.22339431737E+03  0.93189648546E+02 0.  0.
        -13    1    3    3    0    0  0.22341463284E+01  0.43133690574E+02 -0.14341813877E+03  0.14978077438E+03  0.10570000000E+00 0.  1.
         13    1    3    3    0    0 -0.22341463284E+01 -0.43133690574E+02 -0.59610702624E+02  0.73613542994E+02  0.10570000000E+00 0. -1.
<mgrwt>
<rscale>  0 0.93189649E+02</rscale>
<asrwt>0</asrwt>
<pdfrwt beam="1">  1        1 0.15665752E-02 0.93189649E+02</pdfrwt>
<pdfrwt beam="2">  1       -1 0.32801778E-01 0.93189649E+02</pdfrwt>
<totfact> 0.64359976E+04</totfact>
</mgrwt>
</event>
<event>
 5    1  0.2734570E+000  0.6969068E+02  0.7818608E-02  0.1361148E+00
         -1   -1    0    0    0  501 -0.00000000000E+00  0.00000000000E+00  0.55359881008E+01  0.55359900705E+01  0.46700000000E-02 0. -1.
          1   -1    0    0  501    0  0.00000000000E+00 -0.00000000000E+00 -0.21932804566E+03  0.21932804571E+03  0.46700000000E-02 0.  1.
         23    2    1    2    0    0  0.00000000000E+00  0.00000000000E+00 -0.21379205756E+03  0.22486403578E+03  0.69690678802E+02 0.  0.
        -13    1    3    3    0    0  0.15210728044E+01 -0.31238269837E+02 -0.15646856999E+03  0.15956367924E+03  0.10570000000E+00 0.  1.
         13    1    3    3    0    0 -0.15210728044E+01  0.31238269837E+02 -0.57323487566E+02  0.65300356539E+02  0.10570000000E+00 0. -1.
<mgrwt>
<rscale>  0 0.69690679E+02</rscale>
<asrwt>0</asrwt>
<pdfrwt beam="2">  1        1 0.33742770E-01 0.69690679E+02</pdfrwt>
<pdfrwt beam="1">  1       -1 0.85169080E-03 0.69690679E+02</pdfrwt>
<totfact> 0.24489832E+05</totfact>
</mgrwt>
</event>
<event>
 5    1  0.2734570E+000  0.9067351E+02  0.7818608E-02  0.1301229E+00
          1   -1    0    0  501    0  0.00000000000E+00  0.00000000000E+00  0.18036101296E+03  0.18036101302E+03  0.46700000000E-02 0. -1.
         -1   -1    0    0    0  501 -0.00000000000E+00 -0.00000000000E+00 -0.11396151072E+02  0.11396152029E+02  0.46700000000E-02 0.  1.
         23    2    1    2    0    0  0.00000000000E+00  0.00000000000E+00  0.16896486189E+03  0.19175716505E+03  0.90673512090E+02 0.  0.
        -13    1    3    3    0    0  0.27463254040E+02 -0.35766599535E+02  0.74578820200E+02  0.87152117356E+02  0.10570000000E+00 0.  1.
         13    1    3    3    0    0 -0.27463254040E+02  0.35766599535E+02  0.94386041691E+02  0.10460504770E+03  0.10570000000E+00 0. -1.
<mgrwt>
<rscale>  0 0.90673512E+02</rscale>
<asrwt>0</asrwt>
<pdfrwt beam="1">  1        1 0.27747846E-01 0.90673512E+02</pdfrwt>
<pdfrwt beam="2">  1       -1 0.17532542E-02 0.90673512E+02</pdfrwt>
<totfact> 0.11780887E+05</totfact>
</mgrwt>
</event>
<event>
 5    1  0.2734570E+000  0.9124754E+02  0.7818608E-02  0.1299858E+00
         -1   -1    0    0    0  501 -0.00000000000E+00  0.00000000000E+00  0.13349635643E+02  0.13349636460E+02  0.46700000000E-02 0.  1.
          1   -1    0    0  501    0  0.00000000000E+00 -0.00000000000E+00 -0.15592397156E+03  0.15592397163E+03  0.46700000000E-02 0. -1.
         23    2    1    2    0    0  0.00000000000E+00  0.00000000000E+00 -0.14257433592E+03  0.16927360809E+03  0.91247537687E+02 0.  0.
        -13    1    3    3    0    0 -0.21671711392E+02 -0.40113263278E+02 -0.74380324201E+02  0.87242081396E+02  0.10570000000E+00 0. -1.
         13    1    3    3    0    0  0.21671711392E+02  0.40113263278E+02 -0.68194011717E+02  0.82031526696E+02  0.10570000000E+00 0.  1.
<mgrwt>
<rscale>  0 0.91247538E+02</rscale>
<asrwt>0</asrwt>
<pdfrwt beam="2">  1        1 0.23988302E-01 0.91247538E+02</pdfrwt>
<pdfrwt beam="1">  1       -1 0.20537903E-02 0.91247538E+02</pdfrwt>
<totfact> 0.11270142E+05</totfact>
</mgrwt>
</event>
<event>
 5    1  0.2734570E+000  0.9310610E+02  0.7818608E-02  0.1295499E+00
         -1   -1    0    0    0  501 -0.00000000000E+00  0.00000000000E+00  0.21326770432E+02  0.21326770944E+02  0.46700000000E-02 0.  1.
          1   -1    0    0  501    0  0.00000000000E+00 -0.00000000000E+00 -0.10161812377E+03  0.10161812388E+03  0.46700000000E-02 0. -1.
         23    2    1    2    0    0  0.00000000000E+00  0.00000000000E+00 -0.80291353337E+02  0.12294489482E+03  0.93106099379E+02 0.  0.
        -13    1    3    3    0    0 -0.44667672346E+02 -0.13041136288E+02 -0.41967307026E+02  0.62662095560E+02  0.10570000000E+00 0. -1.
         13    1    3    3    0    0  0.44667672346E+02  0.13041136288E+02 -0.38324046311E+02  0.60282799260E+02  0.10570000000E+00 0.  1.
<mgrwt>
<rscale>  0 0.93106099E+02</rscale>
<asrwt>0</asrwt>
<pdfrwt beam="2">  1        1 0.15633557E-01 0.93106099E+02</pdfrwt>
<pdfrwt beam="1">  1       -1 0.32810417E-02 0.93106099E+02</pdfrwt>
<totfact> 0.98910590E+04</totfact>
</mgrwt>
</event>
<event>
 5    1  0.2734570E+000  0.9314569E+02  0.7818608E-02  0.1295408E+00
         -1   -1    0    0    0  501 -0.00000000000E+00  0.00000000000E+00  0.76487654560E+01  0.76487668817E+01  0.46700000000E-02 0.  1.
          1   -1    0    0  501    0  0.00000000000E+00 -0.00000000000E+00 -0.28357906314E+03  0.28357906318E+03  0.46700000000E-02 0. -1.
         23    2    1    2    0    0  0.00000000000E+00  0.00000000000E+00 -0.27593029769E+03  0.29122783006E+03  0.93145691375E+02 0.  0.
        -13    1    3    3    0    0 -0.16197475645E+02 -0.35835070753E+02 -0.59956516061E+02  0.71702897457E+02  0.10570000000E+00 0.  1.
         13    1    3    3    0    0  0.16197475645E+02  0.35835070753E+02 -0.21597378163E+03  0.21952493261E+03  0.10570000000E+00 0. -1.
<mgrwt>
<rscale>  0 0.93145691E+02</rscale>
<asrwt>0</asrwt>
<pdfrwt beam="2">  1        1 0.43627540E-01 0.93145691E+02</pdfrwt>
<pdfrwt beam="1">  1       -1 0.11767335E-02 0.93145691E+02</pdfrwt>
<totfact> 0.11971386E+05</totfact>
</mgrwt>
</event>
<event>
 5    1  0.2734570E+000  0.8897969E+02  0.7818608E-02  0.1305342E+00
          1   -1    0    0  501    0  0.00000000000E+00  0.00000000000E+00  0.95980481110E+02  0.95980481224E+02  0.46700000000E-02 0. -1.
         -1   -1    0    0    0  501 -0.00000000000E+00 -0.00000000000E+00 -0.20622381137E+02  0.20622381666E+02  0.46700000000E-02 0.  1.
         23    2    1    2    0    0  0.00000000000E+00  0.00000000000E+00  0.75358099973E+02  0.11660286289E+03  0.88979685336E+02 0.  0.
        -13    1    3    3    0    0 -0.23167187692E+02  0.31490287385E+02  0.98501464792E+01  0.40316167270E+02  0.10570000000E+00 0.  1.
         13    1    3    3    0    0  0.23167187692E+02 -0.31490287385E+02  0.65507953494E+02  0.76286695620E+02  0.10570000000E+00 0. -1.
<mgrwt>
<rscale>  0 0.88979685E+02</rscale>
<asrwt>0</asrwt>
<pdfrwt beam="1">  1        1 0.14766228E-01 0.88979685E+02</pdfrwt>
<pdfrwt beam="2">  1       -1 0.31726741E-02 0.88979685E+02</pdfrwt>
<totfact> 0.11086952E+05</totfact>
</mgrwt>
</event>
<event>
 4    1  0.2734570E+000  0.4039230E+02  0.7818608E-02  0.1505344E+00
         -1   -1    0    0    0  501 -0.00000000000E+00  0.00000000000E+00  0.85940734173E+01  0.85940746862E+01  0.46700000000E-02 0.  1.
          1   -1    0    0  501    0  0.00000000000E+00 -0.00000000000E+00 -0.47461118458E+02  0.47461118688E+02  0.46700000000E-02 0. -1.
        -13    1    1    2    0    0  0.13980096935E+02 -0.14234197711E+02 -0.23781852067E+02  0.31042602258E+02  0.10570000000E+00 0. -1.
         13    1    1    2    0    0 -0.13980096935E+02  0.14234197711E+02 -0.15085192974E+02  0.25012591116E+02  0.10570000000E+00 0.  1.
<mgrwt>
<rscale>  0 0.40392295E+02</rscale>
<asrwt>0</asrwt>
<pdfrwt beam="2">  1        1 0.73017105E-02 0.40392295E+02</pdfrwt>
<pdfrwt beam="1">  1       -1 0.13221653E-02 0.40392295E+02</pdfrwt>
<totfact> 0.79392143E+05</totfact>
</mgrwt>
</event>
<event>
 5    1  0.2734570E+000  0.9770000E+02  0.7818608E-02  0.1285208E+00
          1   -1    0    0  501    0  0.00000000000E+00  0.00000000000E+00  0.12157173902E+02  0.12157174799E+02  0.46700000000E-02 0. -1.
         -1   -1    0    0    0  501 -0.00000000000E+00 -0.00000000000E+00 -0.19628922425E+03  0.19628922430E+03  0.46700000000E-02 0.  1.
         23    2    1    2    0    0  0.00000000000E+00  0.00000000000E+00 -0.18413205035E+03  0.20844639910E+03  0.97699996592E+02 0.  0.
        -13    1    3    3    0    0 -0.19357120665E+02  0.44125616160E+02 -0.10920656730E+03  0.11936437339E+03  0.10570000000E+00 0.  1.
         13    1    3    3    0    0  0.19357120665E+02 -0.44125616160E+02 -0.74925483047E+02  0.89082025708E+02  0.10570000000E+00 0. -1.
<mgrwt>
<rscale>  0 0.97699997E+02</rscale>
<asrwt>0</asrwt>
<pdfrwt beam="1">  1        1 0.18703347E-02 0.97699997E+02</pdfrwt>
<pdfrwt beam="2">  1       -1 0.30198340E-01 0.97699997E+02</pdfrwt>
<totfact> 0.58270824E+04</totfact>
</mgrwt>
</event>
<event>
 5    1  0.2734570E+000  0.9090847E+02  0.7818608E-02  0.1300666E+00
          1   -1    0    0  501    0  0.00000000000E+00  0.00000000000E+00  0.15607203907E+02  0.15607204606E+02  0.46700000000E-02 0. -1.
         -1   -1    0    0    0  501 -0.00000000000E+00 -0.00000000000E+00 -0.13238037440E+03  0.13238037449E+03  0.46700000000E-02 0.  1.
         23    2    1    2    0    0  0.00000000000E+00  0.00000000000E+00 -0.11677317050E+03  0.14798757909E+03  0.90908471650E+02 0.  0.
        -13    1    3    3    0    0  0.43300858007E+02 -0.13063181536E+02 -0.65750871591E+02  0.79804757399E+02  0.10570000000E+00 0.  1.
         13    1    3    3    0    0 -0.43300858007E+02  0.13063181536E+02 -0.51022298904E+02  0.68182821693E+02  0.10570000000E+00 0. -1.
<mgrwt>
<rscale>  0 0.90908472E+02</rscale>
<asrwt>0</asrwt>
<pdfrwt beam="1">  1        1 0.24011084E-02 0.90908472E+02</pdfrwt>
<pdfrwt beam="2">  1       -1 0.20366211E-01 0.90908472E+02</pdfrwt>
<totfact> 0.77512818E+04</totfact>
</mgrwt>
</event>
<event>
 5    1  0.2734570E+000  0.9456305E+02  0.7818608E-02  0.1292163E+00
         -1   -1    0    0    0  501 -0.00000000000E+00  0.00000000000E+00  0.82304740440E+01  0.82304753689E+01  0.46700000000E-02 0.  1.
          1   -1    0    0  501    0  0.00000000000E+00 -0.00000000000E+00 -0.27161769521E+03  0.27161769525E+03  0.46700000000E-02 0. -1.
         23    2    1    2    0    0  0.00000000000E+00  0.00000000000E+00 -0.26338722116E+03  0.27984817062E+03  0.94563049470E+02 0.  0.
        -13    1    3    3    0    0 -0.34462697619E+02  0.31697175187E+02 -0.15113180880E+03  0.15821890925E+03  0.10570000000E+00 0.  1.
         13    1    3    3    0    0  0.34462697619E+02 -0.31697175187E+02 -0.11225541237E+03  0.12162926136E+03  0.10570000000E+00 0. -1.
<mgrwt>
<rscale>  0 0.94563049E+02</rscale>
<asrwt>0</asrwt>
<pdfrwt beam="2">  1        1 0.41787331E-01 0.94563049E+02</pdfrwt>
<pdfrwt beam="1">  1       -1 0.12662271E-02 0.94563049E+02</pdfrwt>
<totfact> 0.11400750E+05</totfact>
</mgrwt>
</event>
<event>
 5    1  0.2734570E+000  0.9161504E+02  0.7818608E-02  0.1298987E+00
         -1   -1    0    0    0  501 -0.00000000000E+00  0.00000000000E+00  0.13588472450E+03  0.13588472458E+03  0.46700000000E-02 0.  1.
          1   -1    0    0  501    0  0.00000000000E+00 -0.00000000000E+00 -0.15441977395E+02  0.15441978101E+02  0.46700000000E-02 0. -1.
         23    2    1    2    0    0  0.00000000000E+00  0.00000000000E+00  0.12044274711E+03  0.15132670268E+03  0.91615040328E+02 0.  0.
        -13    1    3    3    0    0 -0.41889518074E+02  0.12840707086E+02  0.38140624595E+02  0.58089017033E+02  0.10570000000E+00 0. -1.
         13    1    3    3    0    0  0.41889518074E+02 -0.12840707086E+02  0.82302122512E+02  0.93237685650E+02  0.10570000000E+00 0.  1.
<mgrwt>
<rscale>  0 0.91615040E+02</rscale>
<asrwt>0</asrwt>
<pdfrwt beam="2">  1        1 0.23756889E-02 0.91615040E+02</pdfrwt>
<pdfrwt beam="1">  1       -1 0.20905342E-01 0.91615040E+02</pdfrwt>
<totfact> 0.75540080E+04</totfact>
</mgrwt>
</event>
<event>
 5    1  0.2734570E+000  0.9181605E+02  0.7818608E-02  0.1298513E+00
          1   -1    0    0  501    0  0.00000000000E+00  0.00000000000E+00  0.29776052246E+02  0.29776052613E+02  0.46700000000E-02 0. -1.
         -1   -1    0    0    0  501 -0.00000000000E+00 -0.00000000000E+00 -0.70779931456E+02  0.70779931610E+02  0.46700000000E-02 0.  1.
         23    2    1    2    0    0  0.00000000000E+00  0.00000000000E+00 -0.41003879210E+02  0.10055598422E+03  0.91816054439E+02 0.  0.
        -13    1    3    3    0    0 -0.14775643905E+02 -0.24009209677E+02  0.19179212821E+02  0.34097143268E+02  0.10570000000E+00 0. -1.
         13    1    3    3    0    0  0.14775643905E+02  0.24009209677E+02 -0.60183092031E+02  0.66458840954E+02  0.10570000000E+00 0.  1.
<mgrwt>
<rscale>  0 0.91816054E+02</rscale>
<asrwt>0</asrwt>
<pdfrwt beam="1">  1        1 0.45809312E-02 0.91816054E+02</pdfrwt>
<pdfrwt beam="2">  1       -1 0.10889220E-01 0.91816054E+02</pdfrwt>
<totfact> 0.84856899E+04</totfact>
</mgrwt>
</event>
<event>
 5    1  0.2734570E+000  0.8893688E+02  0.7818608E-02  0.1305447E+00
          1   -1    0    0  501    0  0.00000000000E+00  0.00000000000E+00  0.88326920331E+02  0.88326920454E+02  0.46700000000E-02 0. -1.
         -1   -1    0    0    0  501 -0.00000000000E+00 -0.00000000000E+00 -0.22387762435E+02  0.22387762922E+02  0.46700000000E-02 0.  1.
         23    2    1    2    0    0  0.00000000000E+00  0.00000000000E+00  0.65939157895E+02  0.11071468338E+03  0.88936879702E+02 0.  0.
        -13    1    3    3    0    0 -0.33608147540E+02 -0.86804043640E+01 -0.16317970324E+01  0.34749545824E+02  0.10570000000E+00 0.  1.
         13    1    3    3    0    0  0.33608147540E+02  0.86804043640E+01  0.67570954928E+02  0.75965137552E+02  0.10570000000E+00 0. -1.
<mgrwt>
<rscale>  0 0.88936880E+02</rscale>
<asrwt>0</asrwt>
<pdfrwt beam="1">  1        1 0.13588757E-01 0.88936880E+02</pdfrwt>
<pdfrwt beam="2">  1       -1 0.34442713E-02 0.88936880E+02</pdfrwt>
<totfact> 0.10953897E+05</totfact>
</mgrwt>
</event>
<event>
 5    1  0.2734570E+000  0.9057038E+02  0.7818608E-02  0.1301476E+00
         -1   -1    0    0    0  501 -0.00000000000E+00  0.00000000000E+00  0.94531947525E+01  0.94531959060E+01  0.46700000000E-02 0. -1.
          1   -1    0    0  501    0  0.00000000000E+00 -0.00000000000E+00 -0.21693708288E+03  0.21693708293E+03  0.46700000000E-02 0.  1.
         23    2    1    2    0    0  0.00000000000E+00  0.00000000000E+00 -0.20748388813E+03  0.22639027884E+03  0.90570384338E+02 0.  0.
        -13    1    3    3    0    0  0.34379732541E+02  0.28294039868E+02 -0.83096536520E+02  0.94273878968E+02  0.10570000000E+00 0. -1.
         13    1    3    3    0    0 -0.34379732541E+02 -0.28294039868E+02 -0.12438735161E+03  0.13211639987E+03  0.10570000000E+00 0.  1.
<mgrwt>
<rscale>  0 0.90570384E+02</rscale>
<asrwt>0</asrwt>
<pdfrwt beam="2">  1        1 0.33374932E-01 0.90570384E+02</pdfrwt>
<pdfrwt beam="1">  1       -1 0.14543379E-02 0.90570384E+02</pdfrwt>
<totfact> 0.12246129E+05</totfact>
</mgrwt>
</event>
<event>
 5    1  0.2734570E+000  0.8912048E+02  0.7818608E-02  0.1304996E+00
          1   -1    0    0  501    0  0.00000000000E+00  0.00000000000E+00  0.25626040089E+03  0.25626040093E+03  0.46700000000E-02 0. -1.
         -1   -1    0    0    0  501 -0.00000000000E+00 -0.00000000000E+00 -0.77484269017E+01  0.77484283090E+01  0.46700000000E-02 0.  1.
         23    2    1    2    0    0  0.00000000000E+00  0.00000000000E+00  0.24851197399E+03  0.26400882924E+03  0.89120484188E+02 0.  0.
        -13    1    3    3    0    0 -0.24623867927E+02 -0.31528894613E+02  0.18239703951E+03  0.18673268932E+03  0.10570000000E+00 0. -1.
         13    1    3    3    0    0  0.24623867927E+02  0.31528894613E+02  0.66114934476E+02  0.77276139916E+02  0.10570000000E+00 0.  1.
<mgrwt>
<rscale>  0 0.89120484E+02</rscale>
<asrwt>0</asrwt>
<pdfrwt beam="1">  1        1 0.39424668E-01 0.89120484E+02</pdfrwt>
<pdfrwt beam="2">  1       -1 0.11920661E-02 0.89120484E+02</pdfrwt>
<totfact> 0.13205763E+05</totfact>
</mgrwt>
</event>
<event>
 5    1  0.2734570E+000  0.9163377E+02  0.7818608E-02  0.1298943E+00
          1   -1    0    0  501    0  0.00000000000E+00  0.00000000000E+00  0.51331219032E+02  0.51331219244E+02  0.46700000000E-02 0. -1.
         -1   -1    0    0    0  501 -0.00000000000E+00 -0.00000000000E+00 -0.40894936864E+02  0.40894937130E+02  0.46700000000E-02 0.  1.
         23    2    1    2    0    0  0.00000000000E+00  0.00000000000E+00  0.10436282168E+02  0.92226156375E+02  0.91633770708E+02 0.  0.
        -13    1    3    3    0    0  0.36975734067E+02 -0.57874435449E+01  0.31817699030E+02  0.49123075602E+02  0.10570000000E+00 0.  1.
         13    1    3    3    0    0 -0.36975734067E+02  0.57874435449E+01 -0.21381416862E+02  0.43103080772E+02  0.10570000000E+00 0. -1.
<mgrwt>
<rscale>  0 0.91633771E+02</rscale>
<asrwt>0</asrwt>
<pdfrwt beam="1">  1        1 0.78971106E-02 0.91633771E+02</pdfrwt>
<pdfrwt beam="2">  1       -1 0.62915288E-02 0.91633771E+02</pdfrwt>
<totfact> 0.92827905E+04</totfact>
</mgrwt>
</event>
<event>
 5    1  0.2734570E+000  0.9042391E+02  0.7818608E-02  0.1301828E+00
         -1   -1    0    0    0  501 -0.00000000000E+00  0.00000000000E+00  0.12134010259E+02  0.12134011158E+02  0.46700000000E-02 0.  1.
          1   -1    0    0  501    0  0.00000000000E+00 -0.00000000000E+00 -0.16846209460E+03  0.16846209466E+03  0.46700000000E-02 0. -1.
         23    2    1    2    0    0  0.00000000000E+00  0.00000000000E+00 -0.15632808434E+03  0.18059610582E+03  0.90423909916E+02 0.  0.
        -13    1    3    3    0    0 -0.26909978221E+02  0.36589971855E+01 -0.15035656023E+03  0.15278953356E+03  0.10570000000E+00 0. -1.
         13    1    3    3    0    0  0.26909978221E+02 -0.36589971855E+01 -0.59715241078E+01  0.27806572261E+02  0.10570000000E+00 0.  1.
<mgrwt>
<rscale>  0 0.90423910E+02</rscale>
<asrwt>0</asrwt>
<pdfrwt beam="2">  1        1 0.25917244E-01 0.90423910E+02</pdfrwt>
<pdfrwt beam="1">  1       -1 0.18667710E-02 0.90423910E+02</pdfrwt>
<totfact> 0.11716207E+05</totfact>
</mgrwt>
</event>
<event>
 5    1  0.2734570E+000  0.9234618E+02  0.7818608E-02  0.1297268E+00
          1   -1    0    0  501    0  0.00000000000E+00  0.00000000000E+00  0.48308911308E+02  0.48308911533E+02  0.46700000000E-02 0. -1.
         -1   -1    0    0    0  501 -0.00000000000E+00 -0.00000000000E+00 -0.44131693140E+02  0.44131693388E+02  0.46700000000E-02 0.  1.
         23    2    1    2    0    0  0.00000000000E+00  0.00000000000E+00  0.41772181672E+01  0.92440604921E+02  0.92346176350E+02 0.  0.
        -13    1    3    3    0    0 -0.39991224546E+01  0.45990633027E+02  0.29904145844E+01  0.46261053366E+02  0.10570000000E+00 0.  1.
         13    1    3    3    0    0  0.39991224546E+01 -0.45990633027E+02  0.11868035828E+01  0.46179551555E+02  0.10570000000E+00 0. -1.
<mgrwt>
<rscale>  0 0.92346176E+02</rscale>
<asrwt>0</asrwt>
<pdfrwt beam="1">  1        1 0.74321402E-02 0.92346176E+02</pdfrwt>
<pdfrwt beam="2">  1       -1 0.67894913E-02 0.92346176E+02</pdfrwt>
<totfact> 0.90005343E+04</totfact>
</mgrwt>
</event>
<event>
 5    1  0.2734570E+000  0.8377107E+02  0.7818608E-02  0.1318678E+00
         -1   -1    0    0    0  501 -0.00000000000E+00  0.00000000000E+00  0.23448540420E+03  0.23448540425E+03  0.46700000000E-02 0.  1.
          1   -1    0    0  501    0  0.00000000000E+00 -0.00000000000E+00 -0.74819073306E+01  0.74819087880E+01  0.46700000000E-02 0. -1.
         23    2    1    2    0    0  0.00000000000E+00  0.00000000000E+00  0.22700349687E+03  0.24196731304E+03  0.83771074878E+02 0.  0.
        -13    1    3    3    0    0  0.40827125232E+02 -0.93531409319E+01  0.11284515142E+03  0.12036766497E+03  0.10570000000E+00 0. -1.
         13    1    3    3    0    0 -0.40827125232E+02  0.93531409319E+01  0.11415834545E+03  0.12159964806E+03  0.10570000000E+00 0.  1.
<mgrwt>
<rscale>  0 0.83771075E+02</rscale>
<asrwt>0</asrwt>
<pdfrwt beam="2">  1        1 0.11510627E-02 0.83771075E+02</pdfrwt>
<pdfrwt beam="1">  1       -1 0.36074681E-01 0.83771075E+02</pdfrwt>
<totfact> 0.82457749E+04</totfact>
</mgrwt>
</event>
<event>
 5    1  0.2734570E+000  0.9185858E+02  0.7818608E-02  0.1298412E+00
          1   -1    0    0  501    0  0.00000000000E+00  0.00000000000E+00  0.44182874448E+03  0.44182874451E+03  0.46700000000E-02 0. -1.
         -1   -1    0    0    0  501 -0.00000000000E+00 -0.00000000000E+00 -0.47744721273E+01  0.47744744112E+01  0.46700000000E-02 0.  1.
         23    2    1    2    0    0  0.00000000000E+00  0.00000000000E+00  0.43705427235E+03  0.44660321892E+03  0.91858576978E+02 0.  0.
        -13    1    3    3    0    0 -0.41569649999E+02  0.17372102798E+02  0.26192110838E+03  0.26576776318E+03  0.10570000000E+00 0. -1.
         13    1    3    3    0    0  0.41569649999E+02 -0.17372102798E+02  0.17513316397E+03  0.18083545574E+03  0.10570000000E+00 0.  1.
<mgrwt>
<rscale>  0 0.91858577E+02</rscale>
<asrwt>0</asrwt>
<pdfrwt beam="1">  1        1 0.67973638E-01 0.91858577E+02</pdfrwt>
<pdfrwt beam="2">  1       -1 0.73453451E-03 0.91858577E+02</pdfrwt>
<totfact> 0.13431104E+05</totfact>
</mgrwt>
</event>
<event>
 5    1  0.2734570E+000  0.9063361E+02  0.7818608E-02  0.1301325E+00
         -1   -1    0    0    0  501 -0.00000000000E+00  0.00000000000E+00  0.29510490581E+03  0.29510490585E+03  0.46700000000E-02 0.  1.
          1   -1    0    0  501    0  0.00000000000E+00 -0.00000000000E+00 -0.69589242550E+01  0.69589258220E+01  0.46700000000E-02 0. -1.
         23    2    1    2    0    0  0.00000000000E+00  0.00000000000E+00  0.28814598155E+03  0.30206383167E+03  0.90633612507E+02 0.  0.
        -13    1    3    3    0    0 -0.32510972706E+02  0.28147698872E+02  0.96430777217E+02  0.10558485813E+03  0.10570000000E+00 0. -1.
         13    1    3    3    0    0  0.32510972706E+02 -0.28147698872E+02  0.19171520434E+03  0.19647897354E+03  0.10570000000E+00 0.  1.
<mgrwt>
<rscale>  0 0.90633613E+02</rscale>
<asrwt>0</asrwt>
<pdfrwt beam="2">  1        1 0.10706034E-02 0.90633613E+02</pdfrwt>
<pdfrwt beam="1">  1       -1 0.45400772E-01 0.90633613E+02</pdfrwt>
<totfact> 0.61937187E+04</totfact>
</mgrwt>
</event>
<event>
 5    1  0.2734570E+000  0.8893969E+02  0.7818608E-02  0.1305440E+00
         -1   -1    0    0    0  501 -0.00000000000E+00  0.00000000000E+00  0.10878362395E+03  0.10878362405E+03  0.46700000000E-02 0.  1.
          1   -1    0    0  501    0  0.00000000000E+00 -0.00000000000E+00 -0.18178902546E+02  0.18178903146E+02  0.46700000000E-02 0. -1.
         23    2    1    2    0    0  0.00000000000E+00  0.00000000000E+00  0.90604721408E+02  0.12696252720E+03  0.88939686146E+02 0.  0.
        -13    1    3    3    0    0  0.29185000995E+02  0.33290220981E+02  0.51283055141E+02  0.67749287916E+02  0.10570000000E+00 0.  1.
         13    1    3    3    0    0 -0.29185000995E+02 -0.33290220981E+02  0.39321666267E+02  0.59213239285E+02  0.10570000000E+00 0. -1.
<mgrwt>
<rscale>  0 0.88939686E+02</rscale>
<asrwt>0</asrwt>
<pdfrwt beam="2">  1        1 0.27967543E-02 0.88939686E+02</pdfrwt>
<pdfrwt beam="1">  1       -1 0.16735942E-01 0.88939686E+02</pdfrwt>
<totfact> 0.85373620E+04</totfact>
</mgrwt>
</event>
<event>
 5    1  0.2734570E+000  0.9060927E+02  0.7818608E-02  0.1301383E+00
         -1   -1    0    0    0  501 -0.00000000000E+00  0.00000000000E+00  0.39493954785E+02  0.39493955061E+02  0.46700000000E-02 0.  1.
          1   -1    0    0  501    0  0.00000000000E+00 -0.00000000000E+00 -0.51970227724E+02  0.51970227934E+02  0.46700000000E-02 0. -1.
         23    2    1    2    0    0  0.00000000000E+00  0.00000000000E+00 -0.12476272939E+02  0.91464182995E+02  0.90609267652E+02 0.  0.
        -13    1    3    3    0    0 -0.38456801134E+02 -0.22059624295E+02  0.31743308773E+01  0.44448173489E+02  0.10570000000E+00 0.  1.
         13    1    3    3    0    0  0.38456801134E+02  0.22059624295E+02 -0.15650603816E+02  0.47016009506E+02  0.10570000000E+00 0. -1.
<mgrwt>
<rscale>  0 0.90609268E+02</rscale>
<asrwt>0</asrwt>
<pdfrwt beam="2">  1        1 0.79954197E-02 0.90609268E+02</pdfrwt>
<pdfrwt beam="1">  1       -1 0.60759931E-02 0.90609268E+02</pdfrwt>
<totfact> 0.95965391E+04</totfact>
</mgrwt>
</event>
<event>
 5    1  0.2734570E+000  0.9003726E+02  0.7818608E-02  0.1302762E+00
          1   -1    0    0  501    0  0.00000000000E+00  0.00000000000E+00  0.20128758222E+02  0.20128758763E+02  0.46700000000E-02 0. -1.
         -1   -1    0    0    0  501 -0.00000000000E+00 -0.00000000000E+00 -0.10068563521E+03  0.10068563532E+03  0.46700000000E-02 0.  1.
         23    2    1    2    0    0  0.00000000000E+00  0.00000000000E+00 -0.80556876992E+02  0.12081439409E+03  0.90037255553E+02 0.  0.
        -13    1    3    3    0    0  0.14477767164E+02  0.42409921264E+02 -0.46043378078E+02  0.64251155640E+02  0.10570000000E+00 0. -1.
         13    1    3    3    0    0 -0.14477767164E+02 -0.42409921264E+02 -0.34513498914E+02  0.56563238446E+02  0.10570000000E+00 0.  1.
<mgrwt>
<rscale>  0 0.90037256E+02</rscale>
<asrwt>0</asrwt>
<pdfrwt beam="1">  1        1 0.30967322E-02 0.90037256E+02</pdfrwt>
<pdfrwt beam="2">  1       -1 0.15490097E-01 0.90037256E+02</pdfrwt>
<totfact> 0.83940076E+04</totfact>
</mgrwt>
</event>
<event>
 5    1  0.2734570E+000  0.1119032E+03  0.7818608E-02  0.1257086E+00
          1   -1    0    0  501    0  0.00000000000E+00  0.00000000000E+00  0.63726413826E+02  0.63726413997E+02  0.46700000000E-02 0. -1.
         -1   -1    0    0    0  501 -0.00000000000E+00 -0.00000000000E+00 -0.49125318048E+02  0.49125318270E+02  0.46700000000E-02 0.  1.
         23    2    1    2    0    0  0.00000000000E+00  0.00000000000E+00  0.14601095778E+02  0.11285173227E+03  0.11190317903E+03 0.  0.
        -13    1    3    3    0    0 -0.30417352120E+02 -0.20511262571E+01  0.54614617672E+02  0.62547502467E+02  0.10570000000E+00 0. -1.
         13    1    3    3    0    0  0.30417352120E+02  0.20511262571E+01 -0.40013521894E+02  0.50304229800E+02  0.10570000000E+00 0.  1.
<mgrwt>
<rscale>  0 0.11190318E+03</rscale>
<asrwt>0</asrwt>
<pdfrwt beam="1">  1        1 0.98040637E-02 0.11190318E+03</pdfrwt>
<pdfrwt beam="2">  1       -1 0.75577413E-02 0.11190318E+03</pdfrwt>
<totfact> 0.54668358E+04</totfact>
</mgrwt>
</event>
<event>
 5    1  0.2734570E+000  0.1032235E+03  0.7818608E-02  0.1273660E+00
         -1   -1    0    0    0  501 -0.00000000000E+00  0.00000000000E+00  0.28525429856E+02  0.28525430238E+02  0.46700000000E-02 0. -1.
          1   -1    0    0  501    0  0.00000000000E+00 -0.00000000000E+00 -0.93382371338E+02  0.93382371454E+02  0.46700000000E-02 0.  1.
         23    2    1    2    0    0  0.00000000000E+00  0.00000000000E+00 -0.64856941482E+02  0.12190780169E+03  0.10322349178E+03 0.  0.
        -13    1    3    3    0    0  0.39922947094E+02  0.46325928510E+01  0.58124711435E+01  0.40609095218E+02  0.10570000000E+00 0. -1.
         13    1    3    3    0    0 -0.39922947094E+02 -0.46325928510E+01 -0.70669412625E+02  0.81298706474E+02  0.10570000000E+00 0.  1.
<mgrwt>
<rscale>  0 0.10322349E+03</rscale>
<asrwt>0</asrwt>
<pdfrwt beam="2">  1        1 0.14366519E-01 0.10322349E+03</pdfrwt>
<pdfrwt beam="1">  1       -1 0.43885277E-02 0.10322349E+03</pdfrwt>
<totfact> 0.73364303E+04</totfact>
</mgrwt>
</event>
<event>
 5    1  0.2734570E+000  0.9295512E+02  0.7818608E-02  0.1295849E+00
         -1   -1    0    0    0  501 -0.00000000000E+00  0.00000000000E+00  0.78693263958E+01  0.78693277815E+01  0.46700000000E-02 0.  1.
          1   -1    0    0  501    0  0.00000000000E+00 -0.00000000000E+00 -0.27450424344E+03  0.27450424348E+03  0.46700000000E-02 0. -1.
         23    2    1    2    0    0  0.00000000000E+00  0.00000000000E+00 -0.26663491705E+03  0.28237357126E+03  0.92955122289E+02 0.  0.
        -13    1    3    3    0    0  0.21174458457E+02  0.41002498344E+02 -0.11651626453E+03  0.12532203970E+03  0.10570000000E+00 0.  1.
         13    1    3    3    0    0 -0.21174458457E+02 -0.41002498344E+02 -0.15011865252E+03  0.15705153157E+03  0.10570000000E+00 0. -1.
<mgrwt>
<rscale>  0 0.92955122E+02</rscale>
<asrwt>0</asrwt>
<pdfrwt beam="2">  1        1 0.42231415E-01 0.92955122E+02</pdfrwt>
<pdfrwt beam="1">  1       -1 0.12106659E-02 0.92955122E+02</pdfrwt>
<totfact> 0.11961147E+05</totfact>
</mgrwt>
</event>
<event>
 5    1  0.2734570E+000  0.9311340E+02  0.7818608E-02  0.1295483E+00
         -1   -1    0    0    0  501 -0.00000000000E+00  0.00000000000E+00  0.12432530298E+02  0.12432531175E+02  0.46700000000E-02 0.  1.
          1   -1    0    0  501    0  0.00000000000E+00 -0.00000000000E+00 -0.17434312090E+03  0.17434312096E+03  0.46700000000E-02 0. -1.
         23    2    1    2    0    0  0.00000000000E+00  0.00000000000E+00 -0.16191059060E+03  0.18677565213E+03  0.93113397974E+02 0.  0.
        -13    1    3    3    0    0  0.35727366253E+02  0.28034534882E+02 -0.10152282646E+03  0.11121724376E+03  0.10570000000E+00 0.  1.
         13    1    3    3    0    0 -0.35727366253E+02 -0.28034534882E+02 -0.60387764139E+02  0.75558408371E+02  0.10570000000E+00 0. -1.
<mgrwt>
<rscale>  0 0.93113398E+02</rscale>
<asrwt>0</asrwt>
<pdfrwt beam="2">  1        1 0.26822017E-01 0.93113398E+02</pdfrwt>
<pdfrwt beam="1">  1       -1 0.19126972E-02 0.93113398E+02</pdfrwt>
<totfact> 0.10897464E+05</totfact>
</mgrwt>
</event>
<event>
 5    1  0.2734570E+000  0.8525133E+02  0.7818608E-02  0.1314777E+00
         -1   -1    0    0    0  501 -0.00000000000E+00  0.00000000000E+00  0.53225632205E+02  0.53225632410E+02  0.46700000000E-02 0.  1.
          1   -1    0    0  501    0  0.00000000000E+00 -0.00000000000E+00 -0.34136699190E+02  0.34136699509E+02  0.46700000000E-02 0. -1.
         23    2    1    2    0    0  0.00000000000E+00  0.00000000000E+00  0.19088933015E+02  0.87362331919E+02  0.85251332392E+02 0.  0.
        -13    1    3    3    0    0 -0.41216146808E+02 -0.10211822614E+02  0.57260529619E+01  0.42846831083E+02  0.10570000000E+00 0.  1.
         13    1    3    3    0    0  0.41216146808E+02  0.10211822614E+02  0.13362880053E+02  0.44515500836E+02  0.10570000000E+00 0. -1.
<mgrwt>
<rscale>  0 0.85251332E+02</rscale>
<asrwt>0</asrwt>
<pdfrwt beam="2">  1        1 0.52517999E-02 0.85251332E+02</pdfrwt>
<pdfrwt beam="1">  1       -1 0.81885588E-02 0.85251332E+02</pdfrwt>
<totfact> 0.10700737E+05</totfact>
</mgrwt>
</event>
<event>
 5    1  0.2734570E+000  0.1058542E+03  0.7818608E-02  0.1268446E+00
          1   -1    0    0  501    0  0.00000000000E+00  0.00000000000E+00  0.21974321391E+03  0.21974321396E+03  0.46700000000E-02 0. -1.
         -1   -1    0    0    0  501 -0.00000000000E+00 -0.00000000000E+00 -0.12747949845E+02  0.12747950700E+02  0.46700000000E-02 0.  1.
         23    2    1    2    0    0  0.00000000000E+00  0.00000000000E+00  0.20699526407E+03  0.23249116466E+03  0.10585415580E+03 0.  0.
        -13    1    3    3    0    0 -0.11914695752E+02  0.49760890862E+02  0.73773328618E+02  0.89780963584E+02  0.10570000000E+00 0.  1.
         13    1    3    3    0    0  0.11914695752E+02 -0.49760890862E+02  0.13322193545E+03  0.14271020108E+03  0.10570000000E+00 0. -1.
<mgrwt>
<rscale>  0 0.10585416E+03</rscale>
<asrwt>0</asrwt>
<pdfrwt beam="1">  1        1 0.33806645E-01 0.10585416E+03</pdfrwt>
<pdfrwt beam="2">  1       -1 0.19612233E-02 0.10585416E+03</pdfrwt>
<totfact> 0.80591541E+04</totfact>
</mgrwt>
</event>
<event>
 5    1  0.2734570E+000  0.1094014E+03  0.7818608E-02  0.1261682E+00
         -1   -1    0    0    0  501 -0.00000000000E+00  0.00000000000E+00  0.45932131609E+02  0.45932131846E+02  0.46700000000E-02 0.  1.
          1   -1    0    0  501    0  0.00000000000E+00 -0.00000000000E+00 -0.65143195473E+02  0.65143195641E+02  0.46700000000E-02 0. -1.
         23    2    1    2    0    0  0.00000000000E+00  0.00000000000E+00 -0.19211063864E+02  0.11107532749E+03  0.10940138665E+03 0.  0.
        -13    1    3    3    0    0 -0.33727608580E+02  0.36732192825E+02  0.13218403354E+02  0.51590143729E+02  0.10570000000E+00 0.  1.
         13    1    3    3    0    0  0.33727608580E+02 -0.36732192825E+02 -0.32429467218E+02  0.59485183758E+02  0.10570000000E+00 0. -1.
<mgrwt>
<rscale>  0 0.10940139E+03</rscale>
<asrwt>0</asrwt>
<pdfrwt beam="2">  1        1 0.10022030E-01 0.10940139E+03</pdfrwt>
<pdfrwt beam="1">  1       -1 0.70664818E-02 0.10940139E+03</pdfrwt>
<totfact> 0.58537560E+04</totfact>
</mgrwt>
</event>
<event>
 5    1  0.2734570E+000  0.1238758E+03  0.7818608E-02  0.1236837E+00
          1   -1    0    0  501    0  0.00000000000E+00  0.00000000000E+00  0.17091310446E+03  0.17091310453E+03  0.46700000000E-02 0. -1.
         -1   -1    0    0    0  501 -0.00000000000E+00 -0.00000000000E+00 -0.22445921102E+02  0.22445921587E+02  0.46700000000E-02 0.  1.
         23    2    1    2    0    0  0.00000000000E+00  0.00000000000E+00  0.14846718336E+03  0.19335902611E+03  0.12387577828E+03 0.  0.
        -13    1    3    3    0    0  0.60412429584E+02 -0.80111412093E+01  0.56960938340E+02  0.83417022848E+02  0.10570000000E+00 0.  1.
         13    1    3    3    0    0 -0.60412429584E+02  0.80111412093E+01  0.91506245022E+02  0.10994200327E+03  0.10570000000E+00 0. -1.
<mgrwt>
<rscale>  0 0.12387578E+03</rscale>
<asrwt>0</asrwt>
<pdfrwt beam="1">  1        1 0.26294324E-01 0.12387578E+03</pdfrwt>
<pdfrwt beam="2">  1       -1 0.34532187E-02 0.12387578E+03</pdfrwt>
<totfact> 0.49601443E+04</totfact>
</mgrwt>
</event>
<event>
 5    1  0.2734570E+000  0.9186665E+02  0.7818608E-02  0.1298393E+00
         -1   -1    0    0    0  501 -0.00000000000E+00  0.00000000000E+00  0.13306515828E+03  0.13306515836E+03  0.46700000000E-02 0.  1.
          1   -1    0    0  501    0  0.00000000000E+00 -0.00000000000E+00 -0.15855917450E+02  0.15855918138E+02  0.46700000000E-02 0. -1.
         23    2    1    2    0    0  0.00000000000E+00  0.00000000000E+00  0.11720924083E+03  0.14892107650E+03  0.91866647321E+02 0.  0.
        -13    1    3    3    0    0  0.26691359031E+02  0.13084827934E+02  0.18394315867E+01  0.29783150438E+02  0.10570000000E+00 0. -1.
         13    1    3    3    0    0 -0.26691359031E+02 -0.13084827934E+02  0.11536980925E+03  0.11913792606E+03  0.10570000000E+00 0.  1.
<mgrwt>
<rscale>  0 0.91866647E+02</rscale>
<asrwt>0</asrwt>
<pdfrwt beam="2">  1        1 0.24393719E-02 0.91866647E+02</pdfrwt>
<pdfrwt beam="1">  1       -1 0.20471564E-01 0.91866647E+02</pdfrwt>
<totfact> 0.75349942E+04</totfact>
</mgrwt>
</event>
<event>
 5    1  0.2734570E+000  0.8841327E+02  0.7818608E-02  0.1306740E+00
         -1   -1    0    0    0  501 -0.00000000000E+00  0.00000000000E+00  0.18019745640E+02  0.18019746245E+02  0.46700000000E-02 0.  1.
          1   -1    0    0  501    0  0.00000000000E+00 -0.00000000000E+00 -0.10844917524E+03  0.10844917534E+03  0.46700000000E-02 0. -1.
         23    2    1    2    0    0  0.00000000000E+00  0.00000000000E+00 -0.90429429603E+02  0.12646892159E+03  0.88413270438E+02 0.  0.
        -13    1    3    3    0    0  0.28701289582E+02 -0.25739371585E+02 -0.76157518294E+02  0.85359580824E+02  0.10570000000E+00 0. -1.
         13    1    3    3    0    0 -0.28701289582E+02  0.25739371585E+02 -0.14271911309E+02  0.41109340765E+02  0.10570000000E+00 0.  1.
<mgrwt>
<rscale>  0 0.88413270E+02</rscale>
<asrwt>0</asrwt>
<pdfrwt beam="2">  1        1 0.16684488E-01 0.88413270E+02</pdfrwt>
<pdfrwt beam="1">  1       -1 0.27722687E-02 0.88413270E+02</pdfrwt>
<totfact> 0.11510196E+05</totfact>
</mgrwt>
</event>
<event>
 5    1  0.2734570E+000  0.5894119E+02  0.7818608E-02  0.1402330E+00
         -1   -1    0    0    0  501 -0.00000000000E+00  0.00000000000E+00  0.21970308902E+02  0.21970309398E+02  0.46700000000E-02 0. -1.
          1   -1    0    0  501    0  0.00000000000E+00 -0.00000000000E+00 -0.39531345359E+02  0.39531345635E+02  0.46700000000E-02 0.  1.
         23    2    1    2    0    0  0.00000000000E+00  0.00000000000E+00 -0.17561036457E+02  0.61501655033E+02  0.58941187385E+02 0.  0.
        -13    1    3    3    0    0 -0.28539706925E+02 -0.69326506804E+01 -0.11321078289E+02  0.31476253000E+02  0.10570000000E+00 0. -1.
         13    1    3    3    0    0  0.28539706925E+02  0.69326506804E+01 -0.62399581681E+01  0.30025402033E+02  0.10570000000E+00 0.  1.
<mgrwt>
<rscale>  0 0.58941187E+02</rscale>
<asrwt>0</asrwt>
<pdfrwt beam="2">  1        1 0.60817455E-02 0.58941187E+02</pdfrwt>
<pdfrwt beam="1">  1       -1 0.33800476E-02 0.58941187E+02</pdfrwt>
<totfact> 0.29721465E+05</totfact>
</mgrwt>
</event>
<event>
 5    1  0.2734570E+000  0.9535134E+02  0.7818608E-02  0.1290387E+00
          1   -1    0    0  501    0  0.00000000000E+00  0.00000000000E+00  0.20882729786E+02  0.20882730309E+02  0.46700000000E-02 0. -1.
         -1   -1    0    0    0  501 -0.00000000000E+00 -0.00000000000E+00 -0.10884445433E+03  0.10884445443E+03  0.46700000000E-02 0.  1.
         23    2    1    2    0    0  0.00000000000E+00  0.00000000000E+00 -0.87961724542E+02  0.12972718474E+03  0.95351337041E+02 0.  0.
        -13    1    3    3    0    0  0.20060750247E+02  0.36843868723E+02 -0.13164194621E+02  0.43968301712E+02  0.10570000000E+00 0. -1.
         13    1    3    3    0    0 -0.20060750247E+02 -0.36843868723E+02 -0.74797529922E+02  0.85758883026E+02  0.10570000000E+00 0.  1.
<mgrwt>
<rscale>  0 0.95351337E+02</rscale>
<asrwt>0</asrwt>
<pdfrwt beam="1">  1        1 0.32127278E-02 0.95351337E+02</pdfrwt>
<pdfrwt beam="2">  1       -1 0.16745300E-01 0.95351337E+02</pdfrwt>
<totfact> 0.71323462E+04</totfact>
</mgrwt>
</event>
<event>
 5    1  0.2734570E+000  0.9213914E+02  0.7818608E-02  0.1297753E+00
         -1   -1    0    0    0  501 -0.00000000000E+00  0.00000000000E+00  0.37514685934E+03  0.37514685937E+03  0.46700000000E-02 0.  1.
          1   -1    0    0  501    0  0.00000000000E+00 -0.00000000000E+00 -0.56575309143E+01  0.56575328417E+01  0.46700000000E-02 0. -1.
         23    2    1    2    0    0  0.00000000000E+00  0.00000000000E+00  0.36948932843E+03  0.38080439221E+03  0.92139141012E+02 0.  0.
        -13    1    3    3    0    0  0.41439625604E+02 -0.15502148926E+02  0.23780652266E+03  0.24188739650E+03  0.10570000000E+00 0.  1.
         13    1    3    3    0    0 -0.41439625604E+02  0.15502148926E+02  0.13168280576E+03  0.13891699571E+03  0.10570000000E+00 0. -1.
<mgrwt>
<rscale>  0 0.92139141E+02</rscale>
<asrwt>0</asrwt>
<pdfrwt beam="2">  1        1 0.87038958E-03 0.92139141E+02</pdfrwt>
<pdfrwt beam="1">  1       -1 0.57714898E-01 0.92139141E+02</pdfrwt>
<totfact> 0.53502738E+04</totfact>
</mgrwt>
</event>
<event>
 5    1  0.2734570E+000  0.9000269E+02  0.7818608E-02  0.1302845E+00
         -1   -1    0    0    0  501 -0.00000000000E+00  0.00000000000E+00  0.41298711008E+02  0.41298711272E+02  0.46700000000E-02 0.  1.
          1   -1    0    0  501    0  0.00000000000E+00 -0.00000000000E+00 -0.49035942046E+02  0.49035942268E+02  0.46700000000E-02 0. -1.
         23    2    1    2    0    0  0.00000000000E+00  0.00000000000E+00 -0.77372310376E+01  0.90334653541E+02  0.90002693772E+02 0.  0.
        -13    1    3    3    0    0 -0.42606141237E+02  0.62930035129E+01  0.92265321333E+01  0.44045717522E+02  0.10570000000E+00 0.  1.
         13    1    3    3    0    0  0.42606141237E+02 -0.62930035129E+01 -0.16963763171E+02  0.46288936019E+02  0.10570000000E+00 0. -1.
<mgrwt>
<rscale>  0 0.90002694E+02</rscale>
<asrwt>0</asrwt>
<pdfrwt beam="2">  1        1 0.75439911E-02 0.90002694E+02</pdfrwt>
<pdfrwt beam="1">  1       -1 0.63536479E-02 0.90002694E+02</pdfrwt>
<totfact> 0.96936242E+04</totfact>
</mgrwt>
</event>
<event>
 5    1  0.2734570E+000  0.8964955E+02  0.7818608E-02  0.1303703E+00
         -1   -1    0    0    0  501 -0.00000000000E+00  0.00000000000E+00  0.23953224692E+02  0.23953225148E+02  0.46700000000E-02 0.  1.
          1   -1    0    0  501    0  0.00000000000E+00 -0.00000000000E+00 -0.83882676307E+02  0.83882676437E+02  0.46700000000E-02 0. -1.
         23    2    1    2    0    0  0.00000000000E+00  0.00000000000E+00 -0.59929451614E+02  0.10783590158E+03  0.89649553818E+02 0.  0.
        -13    1    3    3    0    0  0.16642579120E+02  0.11501264005E+02 -0.78079067236E+02  0.80657339569E+02  0.10570000000E+00 0. -1.
         13    1    3    3    0    0 -0.16642579120E+02 -0.11501264005E+02  0.18149615622E+02  0.27178562015E+02  0.10570000000E+00 0.  1.
<mgrwt>
<rscale>  0 0.89649554E+02</rscale>
<asrwt>0</asrwt>
<pdfrwt beam="2">  1        1 0.12905027E-01 0.89649554E+02</pdfrwt>
<pdfrwt beam="1">  1       -1 0.36851116E-02 0.89649554E+02</pdfrwt>
<totfact> 0.10630452E+05</totfact>
</mgrwt>
</event>
<event>
 5    1  0.2734570E+000  0.9297422E+02  0.7818608E-02  0.1295805E+00
         -1   -1    0    0    0  501 -0.00000000000E+00  0.00000000000E+00  0.49651937838E+02  0.49651938058E+02  0.46700000000E-02 0.  1.
          1   -1    0    0  501    0  0.00000000000E+00 -0.00000000000E+00 -0.43524012697E+02  0.43524012948E+02  0.46700000000E-02 0. -1.
         23    2    1    2    0    0  0.00000000000E+00  0.00000000000E+00  0.61279251406E+01  0.93175951006E+02  0.92974224274E+02 0.  0.
        -13    1    3    3    0    0  0.94115403611E+01  0.35013352587E+02  0.32222252848E+02  0.48505635780E+02  0.10570000000E+00 0.  1.
         13    1    3    3    0    0 -0.94115403611E+01 -0.35013352587E+02 -0.26094327708E+02  0.44670315225E+02  0.10570000000E+00 0. -1.
<mgrwt>
<rscale>  0 0.92974224E+02</rscale>
<asrwt>0</asrwt>
<pdfrwt beam="2">  1        1 0.66960020E-02 0.92974224E+02</pdfrwt>
<pdfrwt beam="1">  1       -1 0.76387597E-02 0.92974224E+02</pdfrwt>
<totfact> 0.86910239E+04</totfact>
</mgrwt>
</event>
<event>
 5    1  0.2734570E+000  0.8952927E+02  0.7818608E-02  0.1303996E+00
         -1   -1    0    0    0  501 -0.00000000000E+00  0.00000000000E+00  0.11310641581E+02  0.11310642545E+02  0.46700000000E-02 0.  1.
          1   -1    0    0  501    0  0.00000000000E+00 -0.00000000000E+00 -0.17716702009E+03  0.17716702015E+03  0.46700000000E-02 0. -1.
         23    2    1    2    0    0  0.00000000000E+00  0.00000000000E+00 -0.16585637851E+03  0.18847766270E+03  0.89529274785E+02 0.  0.
        -13    1    3    3    0    0  0.23238515929E+02  0.23204068998E+02 -0.18886829905E+02  0.37883782243E+02  0.10570000000E+00 0.  1.
         13    1    3    3    0    0 -0.23238515929E+02 -0.23204068998E+02 -0.14696954861E+03  0.15059388046E+03  0.10570000000E+00 0. -1.
<mgrwt>
<rscale>  0 0.89529275E+02</rscale>
<asrwt>0</asrwt>
<pdfrwt beam="2">  1        1 0.27256463E-01 0.89529275E+02</pdfrwt>
<pdfrwt beam="1">  1       -1 0.17400989E-02 0.89529275E+02</pdfrwt>
<totfact> 0.12147623E+05</totfact>
</mgrwt>
</event>
<event>
 5    1  0.2734570E+000  0.9105076E+02  0.7818608E-02  0.1300327E+00
         -1   -1    0    0    0  501 -0.00000000000E+00  0.00000000000E+00  0.26741915784E+02  0.26741916191E+02  0.46700000000E-02 0. -1.
          1   -1    0    0  501    0  0.00000000000E+00 -0.00000000000E+00 -0.77502303114E+02  0.77502303255E+02  0.46700000000E-02 0.  1.
         23    2    1    2    0    0  0.00000000000E+00  0.00000000000E+00 -0.50760387331E+02  0.10424421945E+03  0.91050757086E+02 0.  0.
        -13    1    3    3    0    0  0.34999990884E+02  0.24667634725E+02 -0.43082077025E+02  0.60741815070E+02  0.10570000000E+00 0.  1.
         13    1    3    3    0    0 -0.34999990884E+02 -0.24667634725E+02 -0.76783103059E+01  0.43502404376E+02  0.10570000000E+00 0. -1.
<mgrwt>
<rscale>  0 0.91050757E+02</rscale>
<asrwt>0</asrwt>
<pdfrwt beam="2">  1        1 0.11923431E-01 0.91050757E+02</pdfrwt>
<pdfrwt beam="1">  1       -1 0.41141410E-02 0.91050757E+02</pdfrwt>
<totfact> 0.10062484E+05</totfact>
</mgrwt>
</event>
<event>
 5    1  0.2734570E+000  0.9083322E+02  0.7818608E-02  0.1300846E+00
         -1   -1    0    0    0  501 -0.00000000000E+00  0.00000000000E+00  0.65135581812E+02  0.65135581979E+02  0.46700000000E-02 0.  1.
          1   -1    0    0  501    0  0.00000000000E+00 -0.00000000000E+00 -0.31667305132E+02  0.31667305477E+02  0.46700000000E-02 0. -1.
         23    2    1    2    0    0  0.00000000000E+00  0.00000000000E+00  0.33468276680E+02  0.96802887456E+02  0.90833217910E+02 0.  0.
        -13    1    3    3    0    0 -0.42854130060E+01  0.43066457645E+02  0.31407562139E+02  0.53474579669E+02  0.10570000000E+00 0.  1.
         13    1    3    3    0    0  0.42854130060E+01 -0.43066457645E+02  0.20607145405E+01  0.43328307787E+02  0.10570000000E+00 0. -1.
<mgrwt>
<rscale>  0 0.90833218E+02</rscale>
<asrwt>0</asrwt>
<pdfrwt beam="2">  1        1 0.48718931E-02 0.90833218E+02</pdfrwt>
<pdfrwt beam="1">  1       -1 0.10020859E-01 0.90833218E+02</pdfrwt>
<totfact> 0.88387847E+04</totfact>
</mgrwt>
</event>
<event>
 5    1  0.2734570E+000  0.9278591E+02  0.7818608E-02  0.1296242E+00
          1   -1    0    0  501    0  0.00000000000E+00  0.00000000000E+00  0.63956928654E+02  0.63956928825E+02  0.46700000000E-02 0. -1.
         -1   -1    0    0    0  501 -0.00000000000E+00 -0.00000000000E+00 -0.33652432973E+02  0.33652433297E+02  0.46700000000E-02 0.  1.
         23    2    1    2    0    0  0.00000000000E+00  0.00000000000E+00  0.30304495681E+02  0.97609362121E+02  0.92785910112E+02 0.  0.
        -13    1    3    3    0    0  0.26408812090E+02  0.54046070877E+01  0.54872996073E+02  0.61136666611E+02  0.10570000000E+00 0. -1.
         13    1    3    3    0    0 -0.26408812090E+02 -0.54046070877E+01 -0.24568500392E+02  0.36472695510E+02  0.10570000000E+00 0.  1.
<mgrwt>
<rscale>  0 0.92785910E+02</rscale>
<asrwt>0</asrwt>
<pdfrwt beam="1">  1        1 0.98395274E-02 0.92785910E+02</pdfrwt>
<pdfrwt beam="2">  1       -1 0.51772975E-02 0.92785910E+02</pdfrwt>
<totfact> 0.92702162E+04</totfact>
</mgrwt>
</event>
<event>
 5    1  0.2734570E+000  0.9361081E+02  0.7818608E-02  0.1294336E+00
         -1   -1    0    0    0  501 -0.00000000000E+00  0.00000000000E+00  0.14952772580E+02  0.14952773309E+02  0.46700000000E-02 0.  1.
          1   -1    0    0  501    0  0.00000000000E+00 -0.00000000000E+00 -0.14651101962E+03  0.14651101970E+03  0.46700000000E-02 0. -1.
         23    2    1    2    0    0  0.00000000000E+00  0.00000000000E+00 -0.13155824704E+03  0.16146379301E+03  0.93610811806E+02 0.  0.
        -13    1    3    3    0    0  0.12973897946E+02  0.32326655409E+02 -0.11970352635E+03  0.12466868120E+03  0.10570000000E+00 0. -1.
         13    1    3    3    0    0 -0.12973897946E+02 -0.32326655409E+02 -0.11854720691E+02  0.36795111809E+02  0.10570000000E+00 0.  1.
<mgrwt>
<rscale>  0 0.93610812E+02</rscale>
<asrwt>0</asrwt>
<pdfrwt beam="2">  1        1 0.22540156E-01 0.93610812E+02</pdfrwt>
<pdfrwt beam="1">  1       -1 0.23004267E-02 0.93610812E+02</pdfrwt>
<totfact> 0.10396856E+05</totfact>
</mgrwt>
</event>
<event>
 5    1  0.2734570E+000  0.9049823E+02  0.7818608E-02  0.1301650E+00
         -1   -1    0    0    0  501 -0.00000000000E+00  0.00000000000E+00  0.85312431892E+02  0.85312432020E+02  0.46700000000E-02 0.  1.
          1   -1    0    0  501    0  0.00000000000E+00 -0.00000000000E+00 -0.23999812907E+02  0.23999813362E+02  0.46700000000E-02 0. -1.
         23    2    1    2    0    0  0.00000000000E+00  0.00000000000E+00  0.61312618985E+02  0.10931224538E+03  0.90498230610E+02 0.  0.
        -13    1    3    3    0    0 -0.35122353856E+02  0.17386236854E+02  0.57977420950E+02  0.69980379284E+02  0.10570000000E+00 0.  1.
         13    1    3    3    0    0  0.35122353856E+02 -0.17386236854E+02  0.33351980353E+01  0.39331866098E+02  0.10570000000E+00 0. -1.
<mgrwt>
<rscale>  0 0.90498231E+02</rscale>
<asrwt>0</asrwt>
<pdfrwt beam="2">  1        1 0.36922789E-02 0.90498231E+02</pdfrwt>
<pdfrwt beam="1">  1       -1 0.13124990E-01 0.90498231E+02</pdfrwt>
<totfact> 0.85342329E+04</totfact>
</mgrwt>
</event>
<event>
 5    1  0.2734570E+000  0.9000043E+02  0.7818608E-02  0.1302851E+00
         -1   -1    0    0    0  501 -0.00000000000E+00  0.00000000000E+00  0.18575131402E+02  0.18575131989E+02  0.46700000000E-02 0.  1.
          1   -1    0    0  501    0  0.00000000000E+00 -0.00000000000E+00 -0.10901775423E+03  0.10901775433E+03  0.46700000000E-02 0. -1.
         23    2    1    2    0    0  0.00000000000E+00  0.00000000000E+00 -0.90442622830E+02  0.12759288632E+03  0.90000425639E+02 0.  0.
        -13    1    3    3    0    0 -0.10301878856E+02 -0.26122347276E+02  0.46303174717E+01  0.28459739063E+02  0.10570000000E+00 0.  1.
         13    1    3    3    0    0  0.10301878856E+02  0.26122347276E+02 -0.95072940301E+02  0.99133147257E+02  0.10570000000E+00 0. -1.
<mgrwt>
<rscale>  0 0.90000426E+02</rscale>
<asrwt>0</asrwt>
<pdfrwt beam="2">  1        1 0.16771962E-01 0.90000426E+02</pdfrwt>
<pdfrwt beam="1">  1       -1 0.28577127E-02 0.90000426E+02</pdfrwt>
<totfact> 0.10978131E+05</totfact>
</mgrwt>
</event>
<event>
 5    1  0.2734570E+000  0.9306744E+02  0.7818608E-02  0.1295589E+00
         -1   -1    0    0    0  501 -0.00000000000E+00  0.00000000000E+00  0.84098512500E+01  0.84098525466E+01  0.46700000000E-02 0.  1.
          1   -1    0    0  501    0  0.00000000000E+00 -0.00000000000E+00 -0.25748217722E+03  0.25748217726E+03  0.46700000000E-02 0. -1.
         23    2    1    2    0    0  0.00000000000E+00  0.00000000000E+00 -0.24907232597E+03  0.26589202981E+03  0.93067437656E+02 0.  0.
        -13    1    3    3    0    0 -0.33980932356E+02  0.23286842831E+02 -0.18636821916E+03  0.19086672077E+03  0.10570000000E+00 0. -1.
         13    1    3    3    0    0  0.33980932356E+02 -0.23286842831E+02 -0.62704106812E+02  0.75025309039E+02  0.10570000000E+00 0.  1.
<mgrwt>
<rscale>  0 0.93067438E+02</rscale>
<asrwt>0</asrwt>
<pdfrwt beam="2">  1        1 0.39612637E-01 0.93067438E+02</pdfrwt>
<pdfrwt beam="1">  1       -1 0.12938236E-02 0.93067438E+02</pdfrwt>
<totfact> 0.11773792E+05</totfact>
</mgrwt>
</event>
<event>
 5    1  0.2734570E+000  0.8648068E+02  0.7818608E-02  0.1311605E+00
          1   -1    0    0  501    0  0.00000000000E+00  0.00000000000E+00  0.95326420301E+02  0.95326420415E+02  0.46700000000E-02 0. -1.
         -1   -1    0    0    0  501 -0.00000000000E+00 -0.00000000000E+00 -0.19613942151E+02  0.19613942707E+02  0.46700000000E-02 0.  1.
         23    2    1    2    0    0  0.00000000000E+00  0.00000000000E+00  0.75712478150E+02  0.11494036312E+03  0.86480678345E+02 0.  0.
        -13    1    3    3    0    0  0.15670515311E+02 -0.27658470945E+02  0.76813680350E+02  0.83131875514E+02  0.10570000000E+00 0. -1.
         13    1    3    3    0    0 -0.15670515311E+02  0.27658470945E+02 -0.11012021999E+01  0.31808487608E+02  0.10570000000E+00 0.  1.
<mgrwt>
<rscale>  0 0.86480678E+02</rscale>
<asrwt>0</asrwt>
<pdfrwt beam="1">  1        1 0.14665603E-01 0.86480678E+02</pdfrwt>
<pdfrwt beam="2">  1       -1 0.30175297E-02 0.86480678E+02</pdfrwt>
<totfact> 0.11964847E+05</totfact>
</mgrwt>
</event>
<event>
 5    1  0.2734570E+000  0.9163853E+02  0.7818608E-02  0.1298932E+00
         -1   -1    0    0    0  501 -0.00000000000E+00  0.00000000000E+00  0.14588788892E+03  0.14588788899E+03  0.46700000000E-02 0.  1.
          1   -1    0    0  501    0  0.00000000000E+00 -0.00000000000E+00 -0.14390536600E+02  0.14390537358E+02  0.46700000000E-02 0. -1.
         23    2    1    2    0    0  0.00000000000E+00  0.00000000000E+00  0.13149735232E+03  0.16027842635E+03  0.91638530579E+02 0.  0.
        -13    1    3    3    0    0 -0.24623146641E+02  0.84798981965E+01  0.13168464537E+03  0.13423511099E+03  0.10570000000E+00 0.  1.
         13    1    3    3    0    0  0.24623146641E+02 -0.84798981965E+01 -0.18729304845E+00  0.26043315363E+02  0.10570000000E+00 0. -1.
<mgrwt>
<rscale>  0 0.91638531E+02</rscale>
<asrwt>0</asrwt>
<pdfrwt beam="2">  1        1 0.22139287E-02 0.91638531E+02</pdfrwt>
<pdfrwt beam="1">  1       -1 0.22444292E-01 0.91638531E+02</pdfrwt>
<totfact> 0.74291556E+04</totfact>
</mgrwt>
</event>
<event>
 5    1  0.2734570E+000  0.8935558E+02  0.7818608E-02  0.1304420E+00
          1   -1    0    0  501    0  0.00000000000E+00  0.00000000000E+00  0.85795942036E+02  0.85795942164E+02  0.46700000000E-02 0. -1.
         -1   -1    0    0    0  501 -0.00000000000E+00 -0.00000000000E+00 -0.23265725737E+02  0.23265726206E+02  0.46700000000E-02 0.  1.
         23    2    1    2    0    0  0.00000000000E+00  0.00000000000E+00  0.62530216299E+02  0.10906166837E+03  0.89355579328E+02 0.  0.
        -13    1    3    3    0    0  0.29325949507E+02 -0.31325433018E+02  0.16079386072E+02  0.45824140987E+02  0.10570000000E+00 0.  1.
         13    1    3    3    0    0 -0.29325949507E+02  0.31325433018E+02  0.46450830227E+02  0.63237527383E+02  0.10570000000E+00 0. -1.
<mgrwt>
<rscale>  0 0.89355579E+02</rscale>
<asrwt>0</asrwt>
<pdfrwt beam="1">  1        1 0.13199376E-01 0.89355579E+02</pdfrwt>
<pdfrwt beam="2">  1       -1 0.35793424E-02 0.89355579E+02</pdfrwt>
<totfact> 0.10764608E+05</totfact>
</mgrwt>
</event>
<event>
 5    1  0.2734570E+000  0.9679780E+02  0.7818608E-02  0.1287178E+00
         -1   -1    0    0    0  501 -0.00000000000E+00  0.00000000000E+00  0.11668443301E+02  0.11668444236E+02  0.46700000000E-02 0.  1.
          1   -1    0    0  501    0  0.00000000000E+00 -0.00000000000E+00 -0.20075114044E+03  0.20075114049E+03  0.46700000000E-02 0. -1.
         23    2    1    2    0    0  0.00000000000E+00  0.00000000000E+00 -0.18908269714E+03  0.21241958473E+03  0.96797797597E+02 0.  0.
        -13    1    3    3    0    0  0.17038706433E+02  0.42701256097E+02 -0.61352803267E+02  0.76667414397E+02  0.10570000000E+00 0.  1.
         13    1    3    3    0    0 -0.17038706433E+02 -0.42701256097E+02 -0.12772989387E+03  0.13575217033E+03  0.10570000000E+00 0. -1.
<mgrwt>
<rscale>  0 0.96797798E+02</rscale>
<asrwt>0</asrwt>
<pdfrwt beam="2">  1        1 0.30884788E-01 0.96797798E+02</pdfrwt>
<pdfrwt beam="1">  1       -1 0.17951453E-02 0.96797798E+02</pdfrwt>
<totfact> 0.10086544E+05</totfact>
</mgrwt>
</event>
<event>
 5    1  0.2734570E+000  0.9152903E+02  0.7818608E-02  0.1299191E+00
         -1   -1    0    0    0  501 -0.00000000000E+00  0.00000000000E+00  0.18472320451E+02  0.18472321042E+02  0.46700000000E-02 0.  1.
          1   -1    0    0  501    0  0.00000000000E+00 -0.00000000000E+00 -0.11337995379E+03  0.11337995389E+03  0.46700000000E-02 0. -1.
         23    2    1    2    0    0  0.00000000000E+00  0.00000000000E+00 -0.94907633340E+02  0.13185227493E+03  0.91529031120E+02 0.  0.
        -13    1    3    3    0    0  0.32688828656E+02  0.93889601894E+01 -0.33421749285E+01  0.34174455344E+02  0.10570000000E+00 0.  1.
         13    1    3    3    0    0 -0.32688828656E+02 -0.93889601894E+01 -0.91565458412E+02  0.97677819586E+02  0.10570000000E+00 0. -1.
<mgrwt>
<rscale>  0 0.91529031E+02</rscale>
<asrwt>0</asrwt>
<pdfrwt beam="2">  1        1 0.17443069E-01 0.91529031E+02</pdfrwt>
<pdfrwt beam="1">  1       -1 0.28418956E-02 0.91529031E+02</pdfrwt>
<totfact> 0.10557660E+05</totfact>
</mgrwt>
</event>
<event>
 5    1  0.2734570E+000  0.9163165E+02  0.7818608E-02  0.1298948E+00
         -1   -1    0    0    0  501 -0.00000000000E+00  0.00000000000E+00  0.44989642374E+02  0.44989642617E+02  0.46700000000E-02 0.  1.
          1   -1    0    0  501    0  0.00000000000E+00 -0.00000000000E+00 -0.46657176930E+02  0.46657177164E+02  0.46700000000E-02 0. -1.
         23    2    1    2    0    0  0.00000000000E+00  0.00000000000E+00 -0.16675345555E+01  0.91646819781E+02  0.91631647941E+02 0.  0.
        -13    1    3    3    0    0  0.35252685748E+02  0.21423687471E+02 -0.20770765794E+02  0.46186168075E+02  0.10570000000E+00 0. -1.
         13    1    3    3    0    0 -0.35252685748E+02 -0.21423687471E+02  0.19103231238E+02  0.45460651706E+02  0.10570000000E+00 0.  1.
<mgrwt>
<rscale>  0 0.91631648E+02</rscale>
<asrwt>0</asrwt>
<pdfrwt beam="2">  1        1 0.71780272E-02 0.91631648E+02</pdfrwt>
<pdfrwt beam="1">  1       -1 0.69214835E-02 0.91631648E+02</pdfrwt>
<totfact> 0.91507440E+04</totfact>
</mgrwt>
</event>
<event>
 5    1  0.2734570E+000  0.9056732E+02  0.7818608E-02  0.1301484E+00
         -1   -1    0    0    0  501 -0.00000000000E+00  0.00000000000E+00  0.65496060188E+02  0.65496060354E+02  0.46700000000E-02 0.  1.
          1   -1    0    0  501    0  0.00000000000E+00 -0.00000000000E+00 -0.31308907037E+02  0.31308907385E+02  0.46700000000E-02 0. -1.
         23    2    1    2    0    0  0.00000000000E+00  0.00000000000E+00  0.34187153151E+02  0.96804967739E+02  0.90567324894E+02 0.  0.
        -13    1    3    3    0    0  0.38736695581E+02 -0.54226030729E+01  0.41483157553E+02  0.57015785022E+02  0.10570000000E+00 0. -1.
         13    1    3    3    0    0 -0.38736695581E+02  0.54226030729E+01 -0.72960044021E+01  0.39789182718E+02  0.10570000000E+00 0.  1.
<mgrwt>
<rscale>  0 0.90567325E+02</rscale>
<asrwt>0</asrwt>
<pdfrwt beam="2">  1        1 0.48167550E-02 0.90567325E+02</pdfrwt>
<pdfrwt beam="1">  1       -1 0.10076317E-01 0.90567325E+02</pdfrwt>
<totfact> 0.88970761E+04</totfact>
</mgrwt>
</event>
<event>
 5    1  0.2734570E+000  0.8883900E+02  0.7818608E-02  0.1305688E+00
          1   -1    0    0  501    0  0.00000000000E+00  0.00000000000E+00  0.40911345228E+02  0.40911345495E+02  0.46700000000E-02 0. -1.
         -1   -1    0    0    0  501 -0.00000000000E+00 -0.00000000000E+00 -0.48228479586E+02  0.48228479813E+02  0.46700000000E-02 0.  1.
         23    2    1    2    0    0  0.00000000000E+00  0.00000000000E+00 -0.73171343584E+01  0.89139825307E+02  0.88839000448E+02 0.  0.
        -13    1    3    3    0    0 -0.32633974609E+02  0.13466267799E+02  0.23391283142E+02  0.42349497833E+02  0.10570000000E+00 0. -1.
         13    1    3    3    0    0  0.32633974609E+02 -0.13466267799E+02 -0.30708417500E+02  0.46790327474E+02  0.10570000000E+00 0.  1.
<mgrwt>
<rscale>  0 0.88839000E+02</rscale>
<asrwt>0</asrwt>
<pdfrwt beam="1">  1        1 0.62940531E-02 0.88839000E+02</pdfrwt>
<pdfrwt beam="2">  1       -1 0.74197661E-02 0.88839000E+02</pdfrwt>
<totfact> 0.97870340E+04</totfact>
</mgrwt>
</event>
<event>
 5    1  0.2734570E+000  0.9126124E+02  0.7818608E-02  0.1299826E+00
         -1   -1    0    0    0  501 -0.00000000000E+00  0.00000000000E+00  0.65066376467E+01  0.65066393225E+01  0.46700000000E-02 0. -1.
          1   -1    0    0  501    0  0.00000000000E+00 -0.00000000000E+00 -0.32000451471E+03  0.32000451475E+03  0.46700000000E-02 0.  1.
         23    2    1    2    0    0  0.00000000000E+00  0.00000000000E+00 -0.31349787707E+03  0.32651115407E+03  0.91261244824E+02 0.  0.
        -13    1    3    3    0    0  0.70296538744E+01 -0.44923381296E+02 -0.17042718688E+03  0.17638867147E+03  0.10570000000E+00 0.  1.
         13    1    3    3    0    0 -0.70296538744E+01  0.44923381296E+02 -0.14307069019E+03  0.15012248260E+03  0.10570000000E+00 0. -1.
<mgrwt>
<rscale>  0 0.91261245E+02</rscale>
<asrwt>0</asrwt>
<pdfrwt beam="2">  1        1 0.49231452E-01 0.91261245E+02</pdfrwt>
<pdfrwt beam="1">  1       -1 0.10010216E-02 0.91261245E+02</pdfrwt>
<totfact> 0.12937240E+05</totfact>
</mgrwt>
</event>
<event>
 5    1  0.2734570E+000  0.9611567E+02  0.7818608E-02  0.1288683E+00
          1   -1    0    0  501    0  0.00000000000E+00  0.00000000000E+00  0.94899978719E+02  0.94899978834E+02  0.46700000000E-02 0. -1.
         -1   -1    0    0    0  501 -0.00000000000E+00 -0.00000000000E+00 -0.24336730935E+02  0.24336731383E+02  0.46700000000E-02 0.  1.
         23    2    1    2    0    0  0.00000000000E+00  0.00000000000E+00  0.70563247785E+02  0.11923671022E+03  0.96115665349E+02 0.  0.
        -13    1    3    3    0    0  0.67369159455E+01  0.30924859983E+02  0.80144624692E+02  0.86167888688E+02  0.10570000000E+00 0.  1.
         13    1    3    3    0    0 -0.67369159455E+01 -0.30924859983E+02 -0.95813769076E+01  0.33068821529E+02  0.10570000000E+00 0. -1.
<mgrwt>
<rscale>  0 0.96115665E+02</rscale>
<asrwt>0</asrwt>
<pdfrwt beam="1">  1        1 0.14599997E-01 0.96115665E+02</pdfrwt>
<pdfrwt beam="2">  1       -1 0.37441125E-02 0.96115665E+02</pdfrwt>
<totfact> 0.89607230E+04</totfact>
</mgrwt>
</event>
<event>
 5    1  0.2734570E+000  0.8915884E+02  0.7818608E-02  0.1304902E+00
         -1   -1    0    0    0  501 -0.00000000000E+00  0.00000000000E+00  0.68743697338E+02  0.68743697497E+02  0.46700000000E-02 0.  1.
          1   -1    0    0  501    0  0.00000000000E+00 -0.00000000000E+00 -0.28909193673E+02  0.28909194050E+02  0.46700000000E-02 0. -1.
         23    2    1    2    0    0  0.00000000000E+00  0.00000000000E+00  0.39834503665E+02  0.97652891547E+02  0.89158844459E+02 0.  0.
        -13    1    3    3    0    0 -0.21544478500E+02  0.37892322435E+02  0.30152071075E+02  0.53001426546E+02  0.10570000000E+00 0. -1.
         13    1    3    3    0    0  0.21544478500E+02 -0.37892322435E+02  0.96824325896E+01  0.44651465000E+02  0.10570000000E+00 0.  1.
<mgrwt>
<rscale>  0 0.89158844E+02</rscale>
<asrwt>0</asrwt>
<pdfrwt beam="2">  1        1 0.44475683E-02 0.89158844E+02</pdfrwt>
<pdfrwt beam="1">  1       -1 0.10575953E-01 0.89158844E+02</pdfrwt>
<totfact> 0.91879950E+04</totfact>
</mgrwt>
</event>
<event>
 5    1  0.2734570E+000  0.9084214E+02  0.7818608E-02  0.1300825E+00
         -1   -1    0    0    0  501 -0.00000000000E+00  0.00000000000E+00  0.37415132206E+02  0.37415132498E+02  0.46700000000E-02 0.  1.
          1   -1    0    0  501    0  0.00000000000E+00 -0.00000000000E+00 -0.55140090462E+02  0.55140090659E+02  0.46700000000E-02 0. -1.
         23    2    1    2    0    0  0.00000000000E+00  0.00000000000E+00 -0.17724958255E+02  0.92555223157E+02  0.90842144341E+02 0.  0.
        -13    1    3    3    0    0  0.23608675558E+02 -0.38744075940E+02 -0.11045224069E+02  0.46695622164E+02  0.10570000000E+00 0.  1.
         13    1    3    3    0    0 -0.23608675558E+02  0.38744075940E+02 -0.66797341860E+01  0.45859600994E+02  0.10570000000E+00 0. -1.
<mgrwt>
<rscale>  0 0.90842144E+02</rscale>
<asrwt>0</asrwt>
<pdfrwt beam="2">  1        1 0.84830909E-02 0.90842144E+02</pdfrwt>
<pdfrwt beam="1">  1       -1 0.57561742E-02 0.90842144E+02</pdfrwt>
<totfact> 0.96130064E+04</totfact>
</mgrwt>
</event>
<event>
 5    1  0.2734570E+000  0.9852174E+02  0.7818608E-02  0.1283436E+00
          1   -1    0    0  501    0  0.00000000000E+00  0.00000000000E+00  0.10211128649E+03  0.10211128660E+03  0.46700000000E-02 0. -1.
         -1   -1    0    0    0  501 -0.00000000000E+00 -0.00000000000E+00 -0.23764593192E+02  0.23764593651E+02  0.46700000000E-02 0.  1.
         23    2    1    2    0    0  0.00000000000E+00  0.00000000000E+00  0.78346693297E+02  0.12587588025E+03  0.98521738095E+02 0.  0.
        -13    1    3    3    0    0  0.26623639271E+02 -0.34634390850E+01  0.91941948667E+02  0.95781765882E+02  0.10570000000E+00 0. -1.
         13    1    3    3    0    0 -0.26623639271E+02  0.34634390850E+01 -0.13595255370E+02  0.30094114364E+02  0.10570000000E+00 0.  1.
<mgrwt>
<rscale>  0 0.98521738E+02</rscale>
<asrwt>0</asrwt>
<pdfrwt beam="1">  1        1 0.15709429E-01 0.98521738E+02</pdfrwt>
<pdfrwt beam="2">  1       -1 0.36560913E-02 0.98521738E+02</pdfrwt>
<totfact> 0.84767591E+04</totfact>
</mgrwt>
</event>
<event>
 5    1  0.2734570E+000  0.9082409E+02  0.7818608E-02  0.1300868E+00
          1   -1    0    0  501    0  0.00000000000E+00  0.00000000000E+00  0.14285180513E+03  0.14285180520E+03  0.46700000000E-02 0. -1.
         -1   -1    0    0    0  501 -0.00000000000E+00 -0.00000000000E+00 -0.14436314594E+02  0.14436315349E+02  0.46700000000E-02 0.  1.
         23    2    1    2    0    0  0.00000000000E+00  0.00000000000E+00  0.12841549053E+03  0.15728812055E+03  0.90824086333E+02 0.  0.
        -13    1    3    3    0    0 -0.25415229391E+02 -0.24114261728E+02  0.14171010207E+02  0.37792329995E+02  0.10570000000E+00 0.  1.
         13    1    3    3    0    0  0.25415229391E+02  0.24114261728E+02  0.11424448033E+03  0.11949579056E+03  0.10570000000E+00 0. -1.
<mgrwt>
<rscale>  0 0.90824086E+02</rscale>
<asrwt>0</asrwt>
<pdfrwt beam="1">  1        1 0.21977202E-01 0.90824086E+02</pdfrwt>
<pdfrwt beam="2">  1       -1 0.22209715E-02 0.90824086E+02</pdfrwt>
<totfact> 0.11230509E+05</totfact>
</mgrwt>
</event>
<event>
 5    1  0.2734570E+000  0.8875244E+02  0.7818608E-02  0.1305901E+00
         -1   -1    0    0    0  501 -0.00000000000E+00  0.00000000000E+00  0.96628889448E+01  0.96628900733E+01  0.46700000000E-02 0.  1.
          1   -1    0    0  501    0  0.00000000000E+00 -0.00000000000E+00 -0.20379502568E+03  0.20379502574E+03  0.46700000000E-02 0. -1.
         23    2    1    2    0    0  0.00000000000E+00  0.00000000000E+00 -0.19413213674E+03  0.21345791581E+03  0.88752438318E+02 0.  0.
        -13    1    3    3    0    0  0.33144394396E+02  0.19277913761E+02 -0.15079441618E+03  0.15559291746E+03  0.10570000000E+00 0. -1.
         13    1    3    3    0    0 -0.33144394396E+02 -0.19277913761E+02 -0.43337720559E+02  0.57864998354E+02  0.10570000000E+00 0.  1.
<mgrwt>
<rscale>  0 0.88752438E+02</rscale>
<asrwt>0</asrwt>
<pdfrwt beam="2">  1        1 0.31353078E-01 0.88752438E+02</pdfrwt>
<pdfrwt beam="1">  1       -1 0.14865985E-02 0.88752438E+02</pdfrwt>
<totfact> 0.12772328E+05</totfact>
</mgrwt>
</event>
<event>
 5    1  0.2734570E+000  0.9091815E+02  0.7818608E-02  0.1300643E+00
          1   -1    0    0  501    0  0.00000000000E+00  0.00000000000E+00  0.28405617539E+03  0.28405617543E+03  0.46700000000E-02 0. -1.
         -1   -1    0    0    0  501 -0.00000000000E+00 -0.00000000000E+00 -0.72750658389E+01  0.72750673378E+01  0.46700000000E-02 0.  1.
         23    2    1    2    0    0  0.00000000000E+00  0.00000000000E+00  0.27678110955E+03  0.29133124277E+03  0.90918152243E+02 0.  0.
        -13    1    3    3    0    0  0.44240375602E+02 -0.62562083297E+01  0.11154958962E+03  0.12016519085E+03  0.10570000000E+00 0.  1.
         13    1    3    3    0    0 -0.44240375602E+02  0.62562083297E+01  0.16523151993E+03  0.17116605191E+03  0.10570000000E+00 0. -1.
<mgrwt>
<rscale>  0 0.90918152E+02</rscale>
<asrwt>0</asrwt>
<pdfrwt beam="1">  1        1 0.43700950E-01 0.90918152E+02</pdfrwt>
<pdfrwt beam="2">  1       -1 0.11192410E-02 0.90918152E+02</pdfrwt>
<totfact> 0.12774964E+05</totfact>
</mgrwt>
</event>
<event>
 5    1  0.2734570E+000  0.7804406E+02  0.7818608E-02  0.1334696E+00
          1   -1    0    0  501    0  0.00000000000E+00  0.00000000000E+00  0.10217003312E+03  0.10217003322E+03  0.46700000000E-02 0. -1.
         -1   -1    0    0    0  501 -0.00000000000E+00 -0.00000000000E+00 -0.14903769777E+02  0.14903770508E+02  0.46700000000E-02 0.  1.
         23    2    1    2    0    0  0.00000000000E+00  0.00000000000E+00  0.87266263339E+02  0.11707380373E+03  0.78044056806E+02 0.  0.
        -13    1    3    3    0    0  0.20647627049E+02 -0.19331323989E+02  0.33063287054E+01  0.28477492374E+02  0.10570000000E+00 0.  1.
         13    1    3    3    0    0 -0.20647627049E+02  0.19331323989E+02  0.83959934633E+02  0.88596311357E+02  0.10570000000E+00 0. -1.
<mgrwt>
<rscale>  0 0.78044057E+02</rscale>
<asrwt>0</asrwt>
<pdfrwt beam="1">  1        1 0.15718467E-01 0.78044057E+02</pdfrwt>
<pdfrwt beam="2">  1       -1 0.22928876E-02 0.78044057E+02</pdfrwt>
<totfact> 0.15943058E+05</totfact>
</mgrwt>
</event>
<event>
 5    1  0.2734570E+000  0.8889638E+02  0.7818608E-02  0.1305546E+00
         -1   -1    0    0    0  501 -0.00000000000E+00  0.00000000000E+00  0.12606359912E+02  0.12606360777E+02  0.46700000000E-02 0.  1.
          1   -1    0    0  501    0  0.00000000000E+00 -0.00000000000E+00 -0.15671782825E+03  0.15671782832E+03  0.46700000000E-02 0. -1.
         23    2    1    2    0    0  0.00000000000E+00  0.00000000000E+00 -0.14411146834E+03  0.16932418910E+03  0.88896376231E+02 0.  0.
        -13    1    3    3    0    0  0.22447611822E+02 -0.36607022583E+02 -0.50200104877E+02  0.66060813506E+02  0.10570000000E+00 0.  1.
         13    1    3    3    0    0 -0.22447611822E+02  0.36607022583E+02 -0.93911363465E+02  0.10326337559E+03  0.10570000000E+00 0. -1.
<mgrwt>
<rscale>  0 0.88896376E+02</rscale>
<asrwt>0</asrwt>
<pdfrwt beam="2">  1        1 0.24110434E-01 0.88896376E+02</pdfrwt>
<pdfrwt beam="1">  1       -1 0.19394402E-02 0.88896376E+02</pdfrwt>
<totfact> 0.12101171E+05</totfact>
</mgrwt>
</event>
<event>
 5    1  0.2734570E+000  0.9271730E+02  0.7818608E-02  0.1296402E+00
         -1   -1    0    0    0  501 -0.00000000000E+00  0.00000000000E+00  0.68610885389E+02  0.68610885548E+02  0.46700000000E-02 0.  1.
          1   -1    0    0  501    0  0.00000000000E+00 -0.00000000000E+00 -0.31323370499E+02  0.31323370847E+02  0.46700000000E-02 0. -1.
         23    2    1    2    0    0  0.00000000000E+00  0.00000000000E+00  0.37287514890E+02  0.99934256395E+02  0.92717295229E+02 0.  0.
        -13    1    3    3    0    0 -0.67849821307E+01  0.22372544143E+02 -0.24504069416E+02  0.33867791548E+02  0.10570000000E+00 0. -1.
         13    1    3    3    0    0  0.67849821307E+01 -0.22372544143E+02  0.61791584305E+02  0.66066464847E+02  0.10570000000E+00 0.  1.
<mgrwt>
<rscale>  0 0.92717295E+02</rscale>
<asrwt>0</asrwt>
<pdfrwt beam="2">  1        1 0.48189801E-02 0.92717295E+02</pdfrwt>
<pdfrwt beam="1">  1       -1 0.10555521E-01 0.92717295E+02</pdfrwt>
<totfact> 0.83187724E+04</totfact>
</mgrwt>
</event>
<event>
 5    1  0.2734570E+000  0.8839437E+02  0.7818608E-02  0.1306787E+00
         -1   -1    0    0    0  501 -0.00000000000E+00  0.00000000000E+00  0.22465697945E+02  0.22465698430E+02  0.46700000000E-02 0.  1.
          1   -1    0    0  501    0  0.00000000000E+00 -0.00000000000E+00 -0.86949950178E+02  0.86949950303E+02  0.46700000000E-02 0. -1.
         23    2    1    2    0    0  0.00000000000E+00  0.00000000000E+00 -0.64484252233E+02  0.10941564873E+03  0.88394374266E+02 0.  0.
        -13    1    3    3    0    0  0.35602723656E+02  0.24256476502E+02 -0.20022868229E+02  0.47506389135E+02  0.10570000000E+00 0.  1.
         13    1    3    3    0    0 -0.35602723656E+02 -0.24256476502E+02 -0.44461384004E+02  0.61909259599E+02  0.10570000000E+00 0. -1.
<mgrwt>
<rscale>  0 0.88394374E+02</rscale>
<asrwt>0</asrwt>
<pdfrwt beam="2">  1        1 0.13376915E-01 0.88394374E+02</pdfrwt>
<pdfrwt beam="1">  1       -1 0.34562613E-02 0.88394374E+02</pdfrwt>
<totfact> 0.11110248E+05</totfact>
</mgrwt>
</event>
<event>
 5    1  0.2734570E+000  0.8969831E+02  0.7818608E-02  0.1303584E+00
          1   -1    0    0  501    0  0.00000000000E+00  0.00000000000E+00  0.18077910209E+03  0.18077910215E+03  0.46700000000E-02 0. -1.
         -1   -1    0    0    0  501 -0.00000000000E+00 -0.00000000000E+00 -0.11126543906E+02  0.11126544886E+02  0.46700000000E-02 0.  1.
         23    2    1    2    0    0  0.00000000000E+00  0.00000000000E+00  0.16965255818E+03  0.19190564704E+03  0.89698310274E+02 0.  0.
        -13    1    3    3    0    0  0.42041110399E+02  0.15583561936E+02  0.87103748358E+02  0.97966200889E+02  0.10570000000E+00 0. -1.
         13    1    3    3    0    0 -0.42041110399E+02 -0.15583561936E+02  0.82548809826E+02  0.93939446147E+02  0.10570000000E+00 0.  1.
<mgrwt>
<rscale>  0 0.89698310E+02</rscale>
<asrwt>0</asrwt>
<pdfrwt beam="1">  1        1 0.27812170E-01 0.89698310E+02</pdfrwt>
<pdfrwt beam="2">  1       -1 0.17117760E-02 0.89698310E+02</pdfrwt>
<totfact> 0.12132853E+05</totfact>
</mgrwt>
</event>
<event>
 5    1  0.2734570E+000  0.9214484E+02  0.7818608E-02  0.1297739E+00
          1   -1    0    0  501    0  0.00000000000E+00  0.00000000000E+00  0.10883044354E+03  0.10883044364E+03  0.46700000000E-02 0. -1.
         -1   -1    0    0    0  501 -0.00000000000E+00 -0.00000000000E+00 -0.19504355428E+02  0.19504355987E+02  0.46700000000E-02 0.  1.
         23    2    1    2    0    0  0.00000000000E+00  0.00000000000E+00  0.89326088112E+02  0.12833479963E+03  0.92144835873E+02 0.  0.
        -13    1    3    3    0    0  0.18626247268E+02  0.42082996630E+02  0.47695542590E+02  0.66278138538E+02  0.10570000000E+00 0. -1.
         13    1    3    3    0    0 -0.18626247268E+02 -0.42082996630E+02  0.41630545522E+02  0.62056661090E+02  0.10570000000E+00 0.  1.
<mgrwt>
<rscale>  0 0.92144836E+02</rscale>
<asrwt>0</asrwt>
<pdfrwt beam="1">  1        1 0.16743145E-01 0.92144836E+02</pdfrwt>
<pdfrwt beam="2">  1       -1 0.30006702E-02 0.92144836E+02</pdfrwt>
<totfact> 0.10294286E+05</totfact>
</mgrwt>
</event>
<event>
 5    1  0.2734570E+000  0.9273569E+02  0.7818608E-02  0.1296359E+00
         -1   -1    0    0    0  501 -0.00000000000E+00  0.00000000000E+00  0.53479776749E+01  0.53479797139E+01  0.46700000000E-02 0.  1.
          1   -1    0    0  501    0  0.00000000000E+00 -0.00000000000E+00 -0.40201677878E+03  0.40201677881E+03  0.46700000000E-02 0. -1.
         23    2    1    2    0    0  0.00000000000E+00  0.00000000000E+00 -0.39666880111E+03  0.40736475852E+03  0.92735692776E+02 0.  0.
        -13    1    3    3    0    0 -0.32945200754E+02 -0.30594189824E+02 -0.14852454163E+03  0.15518035102E+03  0.10570000000E+00 0.  1.
         13    1    3    3    0    0  0.32945200754E+02  0.30594189824E+02 -0.24814425948E+03  0.25218440751E+03  0.10570000000E+00 0. -1.
<mgrwt>
<rscale>  0 0.92735693E+02</rscale>
<asrwt>0</asrwt>
<pdfrwt beam="2">  1        1 0.61848711E-01 0.92735693E+02</pdfrwt>
<pdfrwt beam="1">  1       -1 0.82276627E-03 0.92735693E+02</pdfrwt>
<totfact> 0.12905268E+05</totfact>
</mgrwt>
</event>
<event>
 5    1  0.2734570E+000  0.9104450E+02  0.7818608E-02  0.1300342E+00
         -1   -1    0    0    0  501 -0.00000000000E+00  0.00000000000E+00  0.11504767339E+02  0.11504768287E+02  0.46700000000E-02 0.  1.
          1   -1    0    0  501    0  0.00000000000E+00 -0.00000000000E+00 -0.18012316594E+03  0.18012316600E+03  0.46700000000E-02 0. -1.
         23    2    1    2    0    0  0.00000000000E+00  0.00000000000E+00 -0.16861839860E+03  0.19162793429E+03  0.91044499300E+02 0.  0.
        -13    1    3    3    0    0 -0.75508739368E+01  0.37917207070E+02 -0.13489094235E+03  0.14032215716E+03  0.10570000000E+00 0. -1.
         13    1    3    3    0    0  0.75508739368E+01 -0.37917207070E+02 -0.33727456252E+02  0.51305777130E+02  0.10570000000E+00 0.  1.
<mgrwt>
<rscale>  0 0.91044499E+02</rscale>
<asrwt>0</asrwt>
<pdfrwt beam="2">  1        1 0.27711254E-01 0.91044499E+02</pdfrwt>
<pdfrwt beam="1">  1       -1 0.17699644E-02 0.91044499E+02</pdfrwt>
<totfact> 0.11649548E+05</totfact>
</mgrwt>
</event>
<event>
 5    1  0.2734570E+000  0.9809145E+02  0.7818608E-02  0.1284361E+00
         -1   -1    0    0    0  501 -0.00000000000E+00  0.00000000000E+00  0.14702682716E+03  0.14702682723E+03  0.46700000000E-02 0.  1.
          1   -1    0    0  501    0  0.00000000000E+00 -0.00000000000E+00 -0.16360843676E+02  0.16360844342E+02  0.46700000000E-02 0. -1.
         23    2    1    2    0    0  0.00000000000E+00  0.00000000000E+00  0.13066598348E+03  0.16338767158E+03  0.98091447044E+02 0.  0.
        -13    1    3    3    0    0  0.20615711101E+02  0.42234791269E+02  0.41972841941E+02  0.63012028778E+02  0.10570000000E+00 0. -1.
         13    1    3    3    0    0 -0.20615711101E+02 -0.42234791269E+02  0.88693141544E+02  0.10037564280E+03  0.10570000000E+00 0.  1.
<mgrwt>
<rscale>  0 0.98091447E+02</rscale>
<asrwt>0</asrwt>
<pdfrwt beam="2">  1        1 0.25170528E-02 0.98091447E+02</pdfrwt>
<pdfrwt beam="1">  1       -1 0.22619513E-01 0.98091447E+02</pdfrwt>
<totfact> 0.62128268E+04</totfact>
</mgrwt>
</event>
<event>
 5    1  0.2734570E+000  0.9144166E+02  0.7818608E-02  0.1299398E+00
          1   -1    0    0  501    0  0.00000000000E+00  0.00000000000E+00  0.61589518996E+01  0.61589536701E+01  0.46700000000E-02 0. -1.
         -1   -1    0    0    0  501 -0.00000000000E+00 -0.00000000000E+00 -0.33940744316E+03  0.33940744319E+03  0.46700000000E-02 0.  1.
         23    2    1    2    0    0  0.00000000000E+00  0.00000000000E+00 -0.33324849126E+03  0.34556639686E+03  0.91441662895E+02 0.  0.
        -13    1    3    3    0    0 -0.31688880768E+02  0.27595082660E+02 -0.98526162090E+02  0.10711250879E+03  0.10570000000E+00 0. -1.
         13    1    3    3    0    0  0.31688880768E+02 -0.27595082660E+02 -0.23472232917E+03  0.23845388806E+03  0.10570000000E+00 0.  1.
<mgrwt>
<rscale>  0 0.91441663E+02</rscale>
<asrwt>0</asrwt>
<pdfrwt beam="1">  1        1 0.94753146E-03 0.91441663E+02</pdfrwt>
<pdfrwt beam="2">  1       -1 0.52216515E-01 0.91441663E+02</pdfrwt>
<totfact> 0.57128562E+04</totfact>
</mgrwt>
</event>
<event>
 5    1  0.2734570E+000  0.9205044E+02  0.7818608E-02  0.1297961E+00
         -1   -1    0    0    0  501 -0.00000000000E+00  0.00000000000E+00  0.93240378061E+01  0.93240389756E+01  0.46700000000E-02 0.  1.
          1   -1    0    0  501    0  0.00000000000E+00 -0.00000000000E+00 -0.22718920966E+03  0.22718920971E+03  0.46700000000E-02 0. -1.
         23    2    1    2    0    0  0.00000000000E+00  0.00000000000E+00 -0.21786517186E+03  0.23651324869E+03  0.92050441042E+02 0.  0.
        -13    1    3    3    0    0  0.17150781698E+02 -0.39412647774E+02 -0.15121471464E+03  0.15720498469E+03  0.10570000000E+00 0. -1.
         13    1    3    3    0    0 -0.17150781698E+02  0.39412647774E+02 -0.66650457221E+02  0.79308263994E+02  0.10570000000E+00 0.  1.
<mgrwt>
<rscale>  0 0.92050441E+02</rscale>
<asrwt>0</asrwt>
<pdfrwt beam="2">  1        1 0.34952182E-01 0.92050441E+02</pdfrwt>
<pdfrwt beam="1">  1       -1 0.14344676E-02 0.92050441E+02</pdfrwt>
<totfact> 0.11832115E+05</totfact>
</mgrwt>
</event>
<event>
 5    1  0.2734570E+000  0.8869811E+02  0.7818608E-02  0.1306035E+00
         -1   -1    0    0    0  501 -0.00000000000E+00  0.00000000000E+00  0.60696666263E+02  0.60696666443E+02  0.46700000000E-02 0.  1.
          1   -1    0    0  501    0  0.00000000000E+00 -0.00000000000E+00 -0.32404391713E+02  0.32404392049E+02  0.46700000000E-02 0. -1.
         23    2    1    2    0    0  0.00000000000E+00  0.00000000000E+00  0.28292274551E+02  0.93101058492E+02  0.88698107608E+02 0.  0.
        -13    1    3    3    0    0  0.13010489624E+02  0.42230409714E+02  0.18094102332E+02  0.47750267607E+02  0.10570000000E+00 0.  1.
         13    1    3    3    0    0 -0.13010489624E+02 -0.42230409714E+02  0.10198172219E+02  0.45350790885E+02  0.10570000000E+00 0. -1.
<mgrwt>
<rscale>  0 0.88698108E+02</rscale>
<asrwt>0</asrwt>
<pdfrwt beam="2">  1        1 0.49852911E-02 0.88698108E+02</pdfrwt>
<pdfrwt beam="1">  1       -1 0.93379486E-02 0.88698108E+02</pdfrwt>
<totfact> 0.94924356E+04</totfact>
</mgrwt>
</event>
<event>
 5    1  0.2734570E+000  0.9092384E+02  0.7818608E-02  0.1300630E+00
          1   -1    0    0  501    0  0.00000000000E+00  0.00000000000E+00  0.63336797200E+02  0.63336797372E+02  0.46700000000E-02 0. -1.
         -1   -1    0    0    0  501 -0.00000000000E+00 -0.00000000000E+00 -0.32631677161E+02  0.32631677495E+02  0.46700000000E-02 0.  1.
         23    2    1    2    0    0  0.00000000000E+00  0.00000000000E+00  0.30705120039E+02  0.95968474868E+02  0.90923835004E+02 0.  0.
        -13    1    3    3    0    0  0.19232702131E+02 -0.22289684812E+02  0.51916259999E+02  0.59682795721E+02  0.10570000000E+00 0. -1.
         13    1    3    3    0    0 -0.19232702131E+02  0.22289684812E+02 -0.21211139960E+02  0.36285679147E+02  0.10570000000E+00 0.  1.
<mgrwt>
<rscale>  0 0.90923835E+02</rscale>
<asrwt>0</asrwt>
<pdfrwt beam="1">  1        1 0.97441226E-02 0.90923835E+02</pdfrwt>
<pdfrwt beam="2">  1       -1 0.50202581E-02 0.90923835E+02</pdfrwt>
<totfact> 0.97916337E+04</totfact>
</mgrwt>
</event>
<event>
 5    1  0.2734570E+000  0.9476530E+02  0.7818608E-02  0.1291706E+00
          1   -1    0    0  501    0  0.00000000000E+00  0.00000000000E+00  0.93883107510E+02  0.93883107626E+02  0.46700000000E-02 0. -1.
         -1   -1    0    0    0  501 -0.00000000000E+00 -0.00000000000E+00 -0.23913942972E+02  0.23913943428E+02  0.46700000000E-02 0.  1.
         23    2    1    2    0    0  0.00000000000E+00  0.00000000000E+00  0.69969164538E+02  0.11779705105E+03  0.94765295604E+02 0.  0.
        -13    1    3    3    0    0 -0.38014421827E+02 -0.81562064773E+01  0.68649725707E+02  0.78894968047E+02  0.10570000000E+00 0. -1.
         13    1    3    3    0    0  0.38014421827E+02  0.81562064773E+01  0.13194388308E+01  0.38902083007E+02  0.10570000000E+00 0.  1.
<mgrwt>
<rscale>  0 0.94765296E+02</rscale>
<asrwt>0</asrwt>
<pdfrwt beam="1">  1        1 0.14443555E-01 0.94765296E+02</pdfrwt>
<pdfrwt beam="2">  1       -1 0.36790682E-02 0.94765296E+02</pdfrwt>
<totfact> 0.92993041E+04</totfact>
</mgrwt>
</event>
<event>
 5    1  0.2734570E+000  0.9054986E+02  0.7818608E-02  0.1301526E+00
         -1   -1    0    0    0  501 -0.00000000000E+00  0.00000000000E+00  0.13835689602E+02  0.13835690390E+02  0.46700000000E-02 0.  1.
          1   -1    0    0  501    0  0.00000000000E+00 -0.00000000000E+00 -0.14815447217E+03  0.14815447225E+03  0.46700000000E-02 0. -1.
         23    2    1    2    0    0  0.00000000000E+00  0.00000000000E+00 -0.13431878257E+03  0.16199016264E+03  0.90549861623E+02 0.  0.
        -13    1    3    3    0    0 -0.30791047196E+02  0.10321197544E+02 -0.12359515333E+03  0.12779040967E+03  0.10570000000E+00 0. -1.
         13    1    3    3    0    0  0.30791047196E+02 -0.10321197544E+02 -0.10723629247E+02  0.34199752966E+02  0.10570000000E+00 0.  1.
<mgrwt>
<rscale>  0 0.90549862E+02</rscale>
<asrwt>0</asrwt>
<pdfrwt beam="2">  1        1 0.22792995E-01 0.90549862E+02</pdfrwt>
<pdfrwt beam="1">  1       -1 0.21285678E-02 0.90549862E+02</pdfrwt>
<totfact> 0.11397899E+05</totfact>
</mgrwt>
</event>
<event>
 5    1  0.2734570E+000  0.9358613E+02  0.7818608E-02  0.1294393E+00
         -1   -1    0    0    0  501 -0.00000000000E+00  0.00000000000E+00  0.42292100948E+02  0.42292101205E+02  0.46700000000E-02 0.  1.
          1   -1    0    0  501    0  0.00000000000E+00 -0.00000000000E+00 -0.51773049704E+02  0.51773049915E+02  0.46700000000E-02 0. -1.
         23    2    1    2    0    0  0.00000000000E+00  0.00000000000E+00 -0.94809487566E+01  0.94065151120E+02  0.93586132872E+02 0.  0.
        -13    1    3    3    0    0 -0.17338495170E+02 -0.21413527197E+02  0.33273969155E+02  0.43201050422E+02  0.10570000000E+00 0.  1.
         13    1    3    3    0    0  0.17338495170E+02  0.21413527197E+02 -0.42754917911E+02  0.50864100698E+02  0.10570000000E+00 0. -1.
<mgrwt>
<rscale>  0 0.93586133E+02</rscale>
<asrwt>0</asrwt>
<pdfrwt beam="2">  1        1 0.79650847E-02 0.93586133E+02</pdfrwt>
<pdfrwt beam="1">  1       -1 0.65064771E-02 0.93586133E+02</pdfrwt>
<totfact> 0.87619212E+04</totfact>
</mgrwt>
</event>
<event>
 5    1  0.2734570E+000  0.9394483E+02  0.7818608E-02  0.1293570E+00
         -1   -1    0    0    0  501 -0.00000000000E+00  0.00000000000E+00  0.93991173920E+01  0.93991185521E+01  0.46700000000E-02 0.  1.
          1   -1    0    0  501    0  0.00000000000E+00 -0.00000000000E+00 -0.23474624221E+03  0.23474624226E+03  0.46700000000E-02 0. -1.
         23    2    1    2    0    0  0.00000000000E+00  0.00000000000E+00 -0.22534712482E+03  0.24414536081E+03  0.93944827110E+02 0.  0.
        -13    1    3    3    0    0  0.20772067916E+02  0.42129731962E+02 -0.11282380027E+03  0.12221135054E+03  0.10570000000E+00 0. -1.
         13    1    3    3    0    0 -0.20772067916E+02 -0.42129731962E+02 -0.11252332455E+03  0.12193401027E+03  0.10570000000E+00 0.  1.
<mgrwt>
<rscale>  0 0.93944827E+02</rscale>
<asrwt>0</asrwt>
<pdfrwt beam="2">  1        1 0.36114802E-01 0.93944827E+02</pdfrwt>
<pdfrwt beam="1">  1       -1 0.14460183E-02 0.93944827E+02</pdfrwt>
<totfact> 0.11275039E+05</totfact>
</mgrwt>
</event>
<event>
 5    1  0.2734570E+000  0.9596714E+02  0.7818608E-02  0.1289013E+00
          1   -1    0    0  501    0  0.00000000000E+00  0.00000000000E+00  0.28742992463E+03  0.28742992467E+03  0.46700000000E-02 0. -1.
         -1   -1    0    0    0  501 -0.00000000000E+00 -0.00000000000E+00 -0.80103791037E+01  0.80103804650E+01  0.46700000000E-02 0.  1.
         23    2    1    2    0    0  0.00000000000E+00  0.00000000000E+00  0.27941954553E+03  0.29544030513E+03  0.95967137474E+02 0.  0.
        -13    1    3    3    0    0  0.95326797758E+01  0.46388597044E+02  0.11593546256E+03  0.12523504529E+03  0.10570000000E+00 0.  1.
         13    1    3    3    0    0 -0.95326797758E+01 -0.46388597044E+02  0.16348408297E+03  0.17020525984E+03  0.10570000000E+00 0. -1.
<mgrwt>
<rscale>  0 0.95967137E+02</rscale>
<asrwt>0</asrwt>
<pdfrwt beam="1">  1        1 0.44219992E-01 0.95967137E+02</pdfrwt>
<pdfrwt beam="2">  1       -1 0.12323660E-02 0.95967137E+02</pdfrwt>
<totfact> 0.11081044E+05</totfact>
</mgrwt>
</event>
<event>
 5    1  0.2734570E+000  0.9213761E+02  0.7818608E-02  0.1297756E+00
          1   -1    0    0  501    0  0.00000000000E+00  0.00000000000E+00  0.43540256521E+03  0.43540256524E+03  0.46700000000E-02 0. -1.
         -1   -1    0    0    0  501 -0.00000000000E+00 -0.00000000000E+00 -0.48744184393E+01  0.48744206764E+01  0.46700000000E-02 0.  1.
         23    2    1    2    0    0  0.00000000000E+00  0.00000000000E+00  0.43052814678E+03  0.44027698592E+03  0.92137609919E+02 0.  0.
        -13    1    3    3    0    0 -0.44281783889E+02  0.12705177329E+02  0.21449798811E+03  0.21938937073E+03  0.10570000000E+00 0. -1.
         13    1    3    3    0    0  0.44281783889E+02 -0.12705177329E+02  0.21603015866E+03  0.22088761518E+03  0.10570000000E+00 0.  1.
<mgrwt>
<rscale>  0 0.92137610E+02</rscale>
<asrwt>0</asrwt>
<pdfrwt beam="1">  1        1 0.66985012E-01 0.92137610E+02</pdfrwt>
<pdfrwt beam="2">  1       -1 0.74991069E-03 0.92137610E+02</pdfrwt>
<totfact> 0.13294437E+05</totfact>
</mgrwt>
</event>
<event>
 5    1  0.2734570E+000  0.8939833E+02  0.7818608E-02  0.1304315E+00
         -1   -1    0    0    0  501 -0.00000000000E+00  0.00000000000E+00  0.40101505791E+01  0.40101532984E+01  0.46700000000E-02 0.  1.
          1   -1    0    0  501    0  0.00000000000E+00 -0.00000000000E+00 -0.49823933638E+03  0.49823933640E+03  0.46700000000E-02 0. -1.
         23    2    1    2    0    0  0.00000000000E+00  0.00000000000E+00 -0.49422918580E+03  0.50224948970E+03  0.89398332237E+02 0.  0.
        -13    1    3    3    0    0  0.30075756463E+02 -0.32962205239E+02 -0.26192145549E+03  0.26569516013E+03  0.10570000000E+00 0.  1.
         13    1    3    3    0    0 -0.30075756463E+02  0.32962205239E+02 -0.23230773031E+03  0.23655432956E+03  0.10570000000E+00 0. -1.
<mgrwt>
<rscale>  0 0.89398332E+02</rscale>
<asrwt>0</asrwt>
<pdfrwt beam="2">  1        1 0.76652157E-01 0.89398332E+02</pdfrwt>
<pdfrwt beam="1">  1       -1 0.61694685E-03 0.89398332E+02</pdfrwt>
<totfact> 0.14665685E+05</totfact>
</mgrwt>
</event>
<event>
 5    1  0.2734570E+000  0.8497224E+02  0.7818608E-02  0.1315505E+00
          1   -1    0    0  501    0  0.00000000000E+00  0.00000000000E+00  0.25732367444E+03  0.25732367448E+03  0.46700000000E-02 0. -1.
         -1   -1    0    0    0  501 -0.00000000000E+00 -0.00000000000E+00 -0.70147852023E+01  0.70147867568E+01  0.46700000000E-02 0.  1.
         23    2    1    2    0    0  0.00000000000E+00  0.00000000000E+00  0.25030888923E+03  0.26433846124E+03  0.84972242873E+02 0.  0.
        -13    1    3    3    0    0 -0.37390025804E+01  0.33926195797E+02  0.46449027489E+02  0.57641046388E+02  0.10570000000E+00 0.  1.
         13    1    3    3    0    0  0.37390025804E+01 -0.33926195797E+02  0.20385986175E+03  0.20669741485E+03  0.10570000000E+00 0. -1.
<mgrwt>
<rscale>  0 0.84972243E+02</rscale>
<asrwt>0</asrwt>
<pdfrwt beam="1">  1        1 0.39588253E-01 0.84972243E+02</pdfrwt>
<pdfrwt beam="2">  1       -1 0.10791980E-02 0.84972243E+02</pdfrwt>
<totfact> 0.15000068E+05</totfact>
</mgrwt>
</event>
<event>
 5    1  0.2734570E+000  0.9178487E+02  0.7818608E-02  0.1298586E+00
          1   -1    0    0  501    0  0.00000000000E+00  0.00000000000E+00  0.39851525962E+02  0.39851526236E+02  0.46700000000E-02 0. -1.
         -1   -1    0    0    0  501 -0.00000000000E+00 -0.00000000000E+00 -0.52849055487E+02  0.52849055693E+02  0.46700000000E-02 0.  1.
         23    2    1    2    0    0  0.00000000000E+00  0.00000000000E+00 -0.12997529525E+02  0.92700581929E+02  0.91784868667E+02 0.  0.
        -13    1    3    3    0    0  0.31064054503E+02  0.33294940349E+02 -0.73429908008E+00  0.45542056417E+02  0.10570000000E+00 0. -1.
         13    1    3    3    0    0 -0.31064054503E+02 -0.33294940349E+02 -0.12263230444E+02  0.47158525512E+02  0.10570000000E+00 0.  1.
<mgrwt>
<rscale>  0 0.91784869E+02</rscale>
<asrwt>0</asrwt>
<pdfrwt beam="1">  1        1 0.61310041E-02 0.91784869E+02</pdfrwt>
<pdfrwt beam="2">  1       -1 0.81306239E-02 0.91784869E+02</pdfrwt>
<totfact> 0.88924200E+04</totfact>
</mgrwt>
</event>
<event>
 5    1  0.2734570E+000  0.9351467E+02  0.7818608E-02  0.1294557E+00
         -1   -1    0    0    0  501 -0.00000000000E+00  0.00000000000E+00  0.42208787681E+02  0.42208787940E+02  0.46700000000E-02 0.  1.
          1   -1    0    0  501    0  0.00000000000E+00 -0.00000000000E+00 -0.51796042010E+02  0.51796042220E+02  0.46700000000E-02 0. -1.
         23    2    1    2    0    0  0.00000000000E+00  0.00000000000E+00 -0.95872543286E+01  0.94004830160E+02  0.93514665416E+02 0.  0.
        -13    1    3    3    0    0  0.12837920419E+02  0.23183813350E+02  0.33930172960E+02  0.43053097585E+02  0.10570000000E+00 0.  1.
         13    1    3    3    0    0 -0.12837920419E+02 -0.23183813350E+02 -0.43517427288E+02  0.50951732575E+02  0.10570000000E+00 0. -1.
<mgrwt>
<rscale>  0 0.93514665E+02</rscale>
<asrwt>0</asrwt>
<pdfrwt beam="2">  1        1 0.79686219E-02 0.93514665E+02</pdfrwt>
<pdfrwt beam="1">  1       -1 0.64936596E-02 0.93514665E+02</pdfrwt>
<totfact> 0.87813125E+04</totfact>
</mgrwt>
</event>
<event>
 5    1  0.2734570E+000  0.9219754E+02  0.7818608E-02  0.1297616E+00
         -1   -1    0    0    0  501 -0.00000000000E+00  0.00000000000E+00  0.33278330451E+02  0.33278330778E+02  0.46700000000E-02 0.  1.
          1   -1    0    0  501    0  0.00000000000E+00 -0.00000000000E+00 -0.63858274392E+02  0.63858274562E+02  0.46700000000E-02 0. -1.
         23    2    1    2    0    0  0.00000000000E+00  0.00000000000E+00 -0.30579943941E+02  0.97136605341E+02  0.92197544033E+02 0.  0.
        -13    1    3    3    0    0  0.14542331657E+01 -0.44931877934E+02 -0.26039341938E+02  0.51952352688E+02  0.10570000000E+00 0.  1.
         13    1    3    3    0    0 -0.14542331657E+01  0.44931877934E+02 -0.45406020034E+01  0.45184252653E+02  0.10570000000E+00 0. -1.
<mgrwt>
<rscale>  0 0.92197544E+02</rscale>
<asrwt>0</asrwt>
<pdfrwt beam="2">  1        1 0.98243499E-02 0.92197544E+02</pdfrwt>
<pdfrwt beam="1">  1       -1 0.51197432E-02 0.92197544E+02</pdfrwt>
<totfact> 0.94330996E+04</totfact>
</mgrwt>
</event>
<event>
 5    1  0.2734570E+000  0.8515055E+02  0.7818608E-02  0.1315039E+00
          1   -1    0    0  501    0  0.00000000000E+00  0.00000000000E+00  0.79146605139E+01  0.79146618916E+01  0.46700000000E-02 0. -1.
         -1   -1    0    0    0  501 -0.00000000000E+00 -0.00000000000E+00 -0.22902486642E+03  0.22902486647E+03  0.46700000000E-02 0.  1.
         23    2    1    2    0    0  0.00000000000E+00  0.00000000000E+00 -0.22111020591E+03  0.23693952836E+03  0.85150554568E+02 0.  0.
        -13    1    3    3    0    0  0.33127642226E+02  0.25307612112E+02 -0.13460921100E+03  0.14091687893E+03  0.10570000000E+00 0.  1.
         13    1    3    3    0    0 -0.33127642226E+02 -0.25307612112E+02 -0.86500994910E+02  0.96022649428E+02  0.10570000000E+00 0. -1.
<mgrwt>
<rscale>  0 0.85150555E+02</rscale>
<asrwt>0</asrwt>
<pdfrwt beam="1">  1        1 0.12176404E-02 0.85150555E+02</pdfrwt>
<pdfrwt beam="2">  1       -1 0.35234590E-01 0.85150555E+02</pdfrwt>
<totfact> 0.79628986E+04</totfact>
</mgrwt>
</event>
<event>
 5    1  0.2734570E+000  0.9246452E+02  0.7818608E-02  0.1296991E+00
         -1   -1    0    0    0  501 -0.00000000000E+00  0.00000000000E+00  0.46324321162E+02  0.46324321397E+02  0.46700000000E-02 0.  1.
          1   -1    0    0  501    0  0.00000000000E+00 -0.00000000000E+00 -0.46140376613E+02  0.46140376849E+02  0.46700000000E-02 0. -1.
         23    2    1    2    0    0  0.00000000000E+00  0.00000000000E+00  0.18394454884E+00  0.92464698247E+02  0.92464515282E+02 0.  0.
        -13    1    3    3    0    0  0.29853325757E+02  0.96711464383E+01  0.34042861859E+02  0.46299889289E+02  0.10570000000E+00 0.  1.
         13    1    3    3    0    0 -0.29853325757E+02 -0.96711464383E+01 -0.33858917310E+02  0.46164808957E+02  0.10570000000E+00 0. -1.
<mgrwt>
<rscale>  0 0.92464515E+02</rscale>
<asrwt>0</asrwt>
<pdfrwt beam="2">  1        1 0.70985195E-02 0.92464515E+02</pdfrwt>
<pdfrwt beam="1">  1       -1 0.71268186E-02 0.92464515E+02</pdfrwt>
<totfact> 0.89058389E+04</totfact>
</mgrwt>
</event>
<event>
 5    1  0.2734570E+000  0.9097316E+02  0.7818608E-02  0.1300512E+00
          1   -1    0    0  501    0  0.00000000000E+00  0.00000000000E+00  0.16102846393E+03  0.16102846400E+03  0.46700000000E-02 0. -1.
         -1   -1    0    0    0  501 -0.00000000000E+00 -0.00000000000E+00 -0.12848839619E+02  0.12848840467E+02  0.46700000000E-02 0.  1.
         23    2    1    2    0    0  0.00000000000E+00  0.00000000000E+00  0.14817962431E+03  0.17387730447E+03  0.90973160587E+02 0.  0.
        -13    1    3    3    0    0 -0.15378204401E+02  0.23162296619E+02  0.14289770506E+03  0.14557728682E+03  0.10570000000E+00 0. -1.
         13    1    3    3    0    0  0.15378204401E+02 -0.23162296619E+02  0.52819192573E+01  0.28300017647E+02  0.10570000000E+00 0.  1.
<mgrwt>
<rscale>  0 0.90973161E+02</rscale>
<asrwt>0</asrwt>
<pdfrwt beam="1">  1        1 0.24773610E-01 0.90973161E+02</pdfrwt>
<pdfrwt beam="2">  1       -1 0.19767446E-02 0.90973161E+02</pdfrwt>
<totfact> 0.11430219E+05</totfact>
</mgrwt>
</event>
<event>
 5    1  0.2734570E+000  0.8830104E+02  0.7818608E-02  0.1307019E+00
          1   -1    0    0  501    0  0.00000000000E+00  0.00000000000E+00  0.12580767707E+03  0.12580767716E+03  0.46700000000E-02 0. -1.
         -1   -1    0    0    0  501 -0.00000000000E+00 -0.00000000000E+00 -0.15494034069E+02  0.15494034773E+02  0.46700000000E-02 0.  1.
         23    2    1    2    0    0  0.00000000000E+00  0.00000000000E+00  0.11031364300E+03  0.14130171193E+03  0.88301041682E+02 0.  0.
        -13    1    3    3    0    0  0.51022611874E+01 -0.42871528979E+02  0.40381235491E+02  0.59115619074E+02  0.10570000000E+00 0.  1.
         13    1    3    3    0    0 -0.51022611874E+01  0.42871528979E+02  0.69932407511E+02  0.82186092857E+02  0.10570000000E+00 0. -1.
<mgrwt>
<rscale>  0 0.88301042E+02</rscale>
<asrwt>0</asrwt>
<pdfrwt beam="1">  1        1 0.19355026E-01 0.88301042E+02</pdfrwt>
<pdfrwt beam="2">  1       -1 0.23836978E-02 0.88301042E+02</pdfrwt>
<totfact> 0.11845955E+05</totfact>
</mgrwt>
</event>
<event>
 5    1  0.2734570E+000  0.9353206E+02  0.7818608E-02  0.1294517E+00
          1   -1    0    0  501    0  0.00000000000E+00  0.00000000000E+00  0.34984453053E+03  0.34984453056E+03  0.46700000000E-02 0. -1.
         -1   -1    0    0    0  501 -0.00000000000E+00 -0.00000000000E+00 -0.62515230750E+01  0.62515248192E+01  0.46700000000E-02 0.  1.
         23    2    1    2    0    0  0.00000000000E+00  0.00000000000E+00  0.34359300746E+03  0.35609605538E+03  0.93532058063E+02 0.  0.
        -13    1    3    3    0    0 -0.42272643103E+02 -0.19273872303E+02  0.15143886756E+03  0.15840517760E+03  0.10570000000E+00 0.  1.
         13    1    3    3    0    0  0.42272643103E+02  0.19273872303E+02  0.19215413990E+03  0.19769087779E+03  0.10570000000E+00 0. -1.
<mgrwt>
<rscale>  0 0.93532058E+02</rscale>
<asrwt>0</asrwt>
<pdfrwt beam="1">  1        1 0.53822267E-01 0.93532058E+02</pdfrwt>
<pdfrwt beam="2">  1       -1 0.96177236E-03 0.93532058E+02</pdfrwt>
<totfact> 0.12316325E+05</totfact>
</mgrwt>
</event>
<event>
 5    1  0.2734570E+000  0.9098695E+02  0.7818608E-02  0.1300479E+00
          1   -1    0    0  501    0  0.00000000000E+00  0.00000000000E+00  0.10127565394E+03  0.10127565405E+03  0.46700000000E-02 0. -1.
         -1   -1    0    0    0  501 -0.00000000000E+00 -0.00000000000E+00 -0.20435870940E+02  0.20435871474E+02  0.46700000000E-02 0.  1.
         23    2    1    2    0    0  0.00000000000E+00  0.00000000000E+00  0.80839782999E+02  0.12171152552E+03  0.90986949225E+02 0.  0.
        -13    1    3    3    0    0  0.10550494163E+01  0.37770085461E+02  0.74312428197E+02  0.83366903757E+02  0.10570000000E+00 0. -1.
         13    1    3    3    0    0 -0.10550494163E+01 -0.37770085461E+02  0.65273548023E+01  0.38344621764E+02  0.10570000000E+00 0.  1.
<mgrwt>
<rscale>  0 0.90986949E+02</rscale>
<asrwt>0</asrwt>
<pdfrwt beam="1">  1        1 0.15580870E-01 0.90986949E+02</pdfrwt>
<pdfrwt beam="2">  1       -1 0.31439802E-02 0.90986949E+02</pdfrwt>
<totfact> 0.10526904E+05</totfact>
</mgrwt>
</event>
<event>
 5    1  0.2734570E+000  0.9095949E+02  0.7818608E-02  0.1300545E+00
          1   -1    0    0  501    0  0.00000000000E+00  0.00000000000E+00  0.47780896199E+02  0.47780896428E+02  0.46700000000E-02 0. -1.
         -1   -1    0    0    0  501 -0.00000000000E+00 -0.00000000000E+00 -0.43289422597E+02  0.43289422849E+02  0.46700000000E-02 0.  1.
         23    2    1    2    0    0  0.00000000000E+00  0.00000000000E+00  0.44914736026E+01  0.91070319276E+02  0.90959494930E+02 0.  0.
        -13    1    3    3    0    0 -0.10004546927E+00  0.16917277870E+02  0.44513187882E+02  0.47619737163E+02  0.10570000000E+00 0. -1.
         13    1    3    3    0    0  0.10004546927E+00 -0.16917277870E+02 -0.40021714279E+02  0.43450582113E+02  0.10570000000E+00 0.  1.
<mgrwt>
<rscale>  0 0.90959495E+02</rscale>
<asrwt>0</asrwt>
<pdfrwt beam="1">  1        1 0.73509071E-02 0.90959495E+02</pdfrwt>
<pdfrwt beam="2">  1       -1 0.66599112E-02 0.90959495E+02</pdfrwt>
<totfact> 0.93751865E+04</totfact>
</mgrwt>
</event>
<event>
 5    1  0.2734570E+000  0.8795759E+02  0.7818608E-02  0.1307874E+00
         -1   -1    0    0    0  501 -0.00000000000E+00  0.00000000000E+00  0.56405646686E+02  0.56405646880E+02  0.46700000000E-02 0.  1.
          1   -1    0    0  501    0  0.00000000000E+00 -0.00000000000E+00 -0.34289729094E+02  0.34289729412E+02  0.46700000000E-02 0. -1.
         23    2    1    2    0    0  0.00000000000E+00  0.00000000000E+00  0.22115917593E+02  0.90695376291E+02  0.87957589040E+02 0.  0.
        -13    1    3    3    0    0  0.16090920959E+02 -0.38748160453E+02  0.24651062278E+02  0.48662343961E+02  0.10570000000E+00 0. -1.
         13    1    3    3    0    0 -0.16090920959E+02  0.38748160453E+02 -0.25351446858E+01  0.42033032330E+02  0.10570000000E+00 0.  1.
<mgrwt>
<rscale>  0 0.87957589E+02</rscale>
<asrwt>0</asrwt>
<pdfrwt beam="2">  1        1 0.52753430E-02 0.87957589E+02</pdfrwt>
<pdfrwt beam="1">  1       -1 0.86777918E-02 0.87957589E+02</pdfrwt>
<totfact> 0.98045337E+04</totfact>
</mgrwt>
</event>
<event>
 5    1  0.2734570E+000  0.9173522E+02  0.7818608E-02  0.1298703E+00
         -1   -1    0    0    0  501 -0.00000000000E+00  0.00000000000E+00  0.81079685013E+02  0.81079685147E+02  0.46700000000E-02 0.  1.
          1   -1    0    0  501    0  0.00000000000E+00 -0.00000000000E+00 -0.25947779263E+02  0.25947779683E+02  0.46700000000E-02 0. -1.
         23    2    1    2    0    0  0.00000000000E+00  0.00000000000E+00  0.55131905750E+02  0.10702746483E+03  0.91735223313E+02 0.  0.
        -13    1    3    3    0    0 -0.13298634838E+02 -0.26125173061E+01  0.78690142038E+02  0.79848785599E+02  0.10570000000E+00 0.  1.
         13    1    3    3    0    0  0.13298634838E+02  0.26125173061E+01 -0.23558236288E+02  0.27178679231E+02  0.10570000000E+00 0. -1.
<mgrwt>
<rscale>  0 0.91735223E+02</rscale>
<asrwt>0</asrwt>
<pdfrwt beam="2">  1        1 0.39919660E-02 0.91735223E+02</pdfrwt>
<pdfrwt beam="1">  1       -1 0.12473798E-01 0.91735223E+02</pdfrwt>
<totfact> 0.83146765E+04</totfact>
</mgrwt>
</event>
<event>
 5    1  0.2734570E+000  0.9274826E+02  0.7818608E-02  0.1296330E+00
          1   -1    0    0  501    0  0.00000000000E+00  0.00000000000E+00  0.65788626604E+02  0.65788626770E+02  0.46700000000E-02 0. -1.
         -1   -1    0    0    0  501 -0.00000000000E+00 -0.00000000000E+00 -0.32688933946E+02  0.32688934280E+02  0.46700000000E-02 0.  1.
         23    2    1    2    0    0  0.00000000000E+00  0.00000000000E+00  0.33099692658E+02  0.98477561049E+02  0.92748263467E+02 0.  0.
        -13    1    3    3    0    0 -0.33835473881E+02  0.21617312301E+02 -0.80869709475E+01  0.40957999896E+02  0.10570000000E+00 0.  1.
         13    1    3    3    0    0  0.33835473881E+02 -0.21617312301E+02  0.41186663605E+02  0.57519561154E+02  0.10570000000E+00 0. -1.
<mgrwt>
<rscale>  0 0.92748263E+02</rscale>
<asrwt>0</asrwt>
<pdfrwt beam="1">  1        1 0.10121327E-01 0.92748263E+02</pdfrwt>
<pdfrwt beam="2">  1       -1 0.50290668E-02 0.92748263E+02</pdfrwt>
<totfact> 0.93212349E+04</totfact>
</mgrwt>
</event>
<event>
 5    1  0.2734570E+000  0.9119303E+02  0.7818608E-02  0.1299988E+00
         -1   -1    0    0    0  501 -0.00000000000E+00  0.00000000000E+00  0.66961395009E+02  0.66961395172E+02  0.46700000000E-02 0.  1.
          1   -1    0    0  501    0  0.00000000000E+00 -0.00000000000E+00 -0.31048370350E+02  0.31048370702E+02  0.46700000000E-02 0. -1.
         23    2    1    2    0    0  0.00000000000E+00  0.00000000000E+00  0.35913024658E+02  0.98009765873E+02  0.91193030799E+02 0.  0.
        -13    1    3    3    0    0 -0.33726964442E+02 -0.27503968832E+02  0.33361660536E+01  0.43647652954E+02  0.10570000000E+00 0.  1.
         13    1    3    3    0    0  0.33726964442E+02  0.27503968832E+02  0.32576858605E+02  0.54362112919E+02  0.10570000000E+00 0. -1.
<mgrwt>
<rscale>  0 0.91193031E+02</rscale>
<asrwt>0</asrwt>
<pdfrwt beam="2">  1        1 0.47766724E-02 0.91193031E+02</pdfrwt>
<pdfrwt beam="1">  1       -1 0.10301753E-01 0.91193031E+02</pdfrwt>
<totfact> 0.87119450E+04</totfact>
</mgrwt>
</event>
<event>
 5    1  0.2734570E+000  0.9149562E+02  0.7818608E-02  0.1299270E+00
         -1   -1    0    0    0  501 -0.00000000000E+00  0.00000000000E+00  0.44356632889E+02  0.44356633135E+02  0.46700000000E-02 0.  1.
          1   -1    0    0  501    0  0.00000000000E+00 -0.00000000000E+00 -0.47182620729E+02  0.47182620960E+02  0.46700000000E-02 0. -1.
         23    2    1    2    0    0  0.00000000000E+00  0.00000000000E+00 -0.28259878394E+01  0.91539254095E+02  0.91495621934E+02 0.  0.
        -13    1    3    3    0    0  0.14531610392E+02 -0.27455551834E+02  0.32186886757E+02  0.44732335941E+02  0.10570000000E+00 0.  1.
         13    1    3    3    0    0 -0.14531610392E+02  0.27455551834E+02 -0.35012874596E+02  0.46806918154E+02  0.10570000000E+00 0. -1.
<mgrwt>
<rscale>  0 0.91495622E+02</rscale>
<asrwt>0</asrwt>
<pdfrwt beam="2">  1        1 0.72588647E-02 0.91495622E+02</pdfrwt>
<pdfrwt beam="1">  1       -1 0.68240974E-02 0.91495622E+02</pdfrwt>
<totfact> 0.92045212E+04</totfact>
</mgrwt>
</event>
<event>
 5    1  0.2734570E+000  0.9105685E+02  0.7818608E-02  0.1300312E+00
          1   -1    0    0  501    0  0.00000000000E+00  0.00000000000E+00  0.94721468969E+02  0.94721469084E+02  0.46700000000E-02 0.  1.
         -1   -1    0    0    0  501 -0.00000000000E+00 -0.00000000000E+00 -0.21883501767E+02  0.21883502265E+02  0.46700000000E-02 0. -1.
         23    2    1    2    0    0  0.00000000000E+00  0.00000000000E+00  0.72837967202E+02  0.11660497135E+03  0.91056849700E+02 0.  0.
        -13    1    3    3    0    0  0.14343077722E+02 -0.30060525801E+02  0.76167682221E+02  0.83131739290E+02  0.10570000000E+00 0.  1.
         13    1    3    3    0    0 -0.14343077722E+02  0.30060525801E+02 -0.33297150189E+01  0.33473232060E+02  0.10570000000E+00 0. -1.
<mgrwt>
<rscale>  0 0.91056850E+02</rscale>
<asrwt>0</asrwt>
<pdfrwt beam="1">  1        1 0.14572534E-01 0.91056850E+02</pdfrwt>
<pdfrwt beam="2">  1       -1 0.33666927E-02 0.91056850E+02</pdfrwt>
<totfact> 0.10389349E+05</totfact>
</mgrwt>
</event>
<event>
 5    1  0.2734570E+000  0.9199822E+02  0.7818608E-02  0.1298084E+00
         -1   -1    0    0    0  501 -0.00000000000E+00  0.00000000000E+00  0.18471036122E+02  0.18471036713E+02  0.46700000000E-02 0. -1.
          1   -1    0    0  501    0  0.00000000000E+00 -0.00000000000E+00 -0.11455329694E+03  0.11455329704E+03  0.46700000000E-02 0.  1.
         23    2    1    2    0    0  0.00000000000E+00  0.00000000000E+00 -0.96082260822E+02  0.13302433375E+03  0.91998220230E+02 0.  0.
        -13    1    3    3    0    0 -0.38427337531E+02  0.63185687854E+01 -0.12642870505E+02  0.40944327181E+02  0.10570000000E+00 0. -1.
         13    1    3    3    0    0  0.38427337531E+02 -0.63185687854E+01 -0.83439390317E+02  0.92080006571E+02  0.10570000000E+00 0.  1.
<mgrwt>
<rscale>  0 0.91998220E+02</rscale>
<asrwt>0</asrwt>
<pdfrwt beam="2">  1        1 0.17623584E-01 0.91998220E+02</pdfrwt>
<pdfrwt beam="1">  1       -1 0.28416980E-02 0.91998220E+02</pdfrwt>
<totfact> 0.10430274E+05</totfact>
</mgrwt>
</event>
<event>
 5    1  0.2734570E+000  0.9322189E+02  0.7818608E-02  0.1295232E+00
         -1   -1    0    0    0  501 -0.00000000000E+00  0.00000000000E+00  0.16259724547E+02  0.16259725217E+02  0.46700000000E-02 0.  1.
          1   -1    0    0  501    0  0.00000000000E+00 -0.00000000000E+00 -0.13361727969E+03  0.13361727977E+03  0.46700000000E-02 0. -1.
         23    2    1    2    0    0  0.00000000000E+00  0.00000000000E+00 -0.11735755514E+03  0.14987700499E+03  0.93221890537E+02 0.  0.
        -13    1    3    3    0    0  0.82785498923E+00  0.45139785948E+02 -0.77309440471E+02  0.89526791397E+02  0.10570000000E+00 0. -1.
         13    1    3    3    0    0 -0.82785498923E+00 -0.45139785948E+02 -0.40048114672E+02  0.60350213592E+02  0.10570000000E+00 0.  1.
<mgrwt>
<rscale>  0 0.93221891E+02</rscale>
<asrwt>0</asrwt>
<pdfrwt beam="2">  1        1 0.20556504E-01 0.93221891E+02</pdfrwt>
<pdfrwt beam="1">  1       -1 0.25014962E-02 0.93221891E+02</pdfrwt>
<totfact> 0.10339559E+05</totfact>
</mgrwt>
</event>
<event>
 5    1  0.2734570E+000  0.9060791E+02  0.7818608E-02  0.1301386E+00
          1   -1    0    0  501    0  0.00000000000E+00  0.00000000000E+00  0.29357171673E+03  0.29357171677E+03  0.46700000000E-02 0. -1.
         -1   -1    0    0    0  501 -0.00000000000E+00 -0.00000000000E+00 -0.69913003768E+01  0.69913019365E+01  0.46700000000E-02 0.  1.
         23    2    1    2    0    0  0.00000000000E+00  0.00000000000E+00  0.28658041635E+03  0.30056301870E+03  0.90607909010E+02 0.  0.
        -13    1    3    3    0    0  0.31171702876E+02  0.21935962886E+02  0.62064892341E+02  0.72834906204E+02  0.10570000000E+00 0.  1.
         13    1    3    3    0    0 -0.31171702876E+02 -0.21935962886E+02  0.22451552401E+03  0.22772811250E+03  0.10570000000E+00 0. -1.
<mgrwt>
<rscale>  0 0.90607909E+02</rscale>
<asrwt>0</asrwt>
<pdfrwt beam="1">  1        1 0.45164874E-01 0.90607909E+02</pdfrwt>
<pdfrwt beam="2">  1       -1 0.10755849E-02 0.90607909E+02</pdfrwt>
<totfact> 0.12973746E+05</totfact>
</mgrwt>
</event>
<event>
 5    1  0.2734570E+000  0.8981121E+02  0.7818608E-02  0.1303310E+00
          1   -1    0    0  501    0  0.00000000000E+00  0.00000000000E+00  0.84558853086E+02  0.84558853215E+02  0.46700000000E-02 0. -1.
         -1   -1    0    0    0  501 -0.00000000000E+00 -0.00000000000E+00 -0.23847452923E+02  0.23847453380E+02  0.46700000000E-02 0.  1.
         23    2    1    2    0    0  0.00000000000E+00  0.00000000000E+00  0.60711400163E+02  0.10840630660E+03  0.89811208654E+02 0.  0.
        -13    1    3    3    0    0  0.18657656628E+02  0.17059078139E+02 -0.14441532124E+02  0.29115104678E+02  0.10570000000E+00 0.  1.
         13    1    3    3    0    0 -0.18657656628E+02 -0.17059078139E+02  0.75152932286E+02  0.79291201918E+02  0.10570000000E+00 0. -1.
<mgrwt>
<rscale>  0 0.89811209E+02</rscale>
<asrwt>0</asrwt>
<pdfrwt beam="1">  1        1 0.13009054E-01 0.89811209E+02</pdfrwt>
<pdfrwt beam="2">  1       -1 0.36688390E-02 0.89811209E+02</pdfrwt>
<totfact> 0.10591723E+05</totfact>
</mgrwt>
</event>
<event>
 5    1  0.2734570E+000  0.9583473E+02  0.7818608E-02  0.1289307E+00
         -1   -1    0    0    0  501 -0.00000000000E+00  0.00000000000E+00  0.10089053303E+03  0.10089053314E+03  0.46700000000E-02 0.  1.
          1   -1    0    0  501    0  0.00000000000E+00 -0.00000000000E+00 -0.22758069248E+02  0.22758069727E+02  0.46700000000E-02 0. -1.
         23    2    1    2    0    0  0.00000000000E+00  0.00000000000E+00  0.78132463783E+02  0.12364860287E+03  0.95834728016E+02 0.  0.
        -13    1    3    3    0    0 -0.21176438682E+02  0.37574389095E+02  0.66000371092E+02  0.78843746916E+02  0.10570000000E+00 0.  1.
         13    1    3    3    0    0  0.21176438682E+02 -0.37574389095E+02  0.12132092691E+02  0.44804855949E+02  0.10570000000E+00 0. -1.
<mgrwt>
<rscale>  0 0.95834728E+02</rscale>
<asrwt>0</asrwt>
<pdfrwt beam="2">  1        1 0.35012415E-02 0.95834728E+02</pdfrwt>
<pdfrwt beam="1">  1       -1 0.15521620E-01 0.95834728E+02</pdfrwt>
<totfact> 0.71437379E+04</totfact>
</mgrwt>
</event>
<event>
 5    1  0.2734570E+000  0.9163284E+02  0.7818608E-02  0.1298945E+00
          1   -1    0    0  501    0  0.00000000000E+00  0.00000000000E+00  0.30064781336E+03  0.30064781339E+03  0.46700000000E-02 0. -1.
         -1   -1    0    0    0  501 -0.00000000000E+00 -0.00000000000E+00 -0.69820706544E+01  0.69820722162E+01  0.46700000000E-02 0.  1.
         23    2    1    2    0    0  0.00000000000E+00  0.00000000000E+00  0.29366574270E+03  0.30762988561E+03  0.91632843910E+02 0.  0.
        -13    1    3    3    0    0 -0.10197049791E+02  0.40687392464E+02  0.84957403532E+02  0.94748167884E+02  0.10570000000E+00 0.  1.
         13    1    3    3    0    0  0.10197049791E+02 -0.40687392464E+02  0.20870833917E+03  0.21288171773E+03  0.10570000000E+00 0. -1.
<mgrwt>
<rscale>  0 0.91632844E+02</rscale>
<asrwt>0</asrwt>
<pdfrwt beam="1">  1        1 0.46253511E-01 0.91632844E+02</pdfrwt>
<pdfrwt beam="2">  1       -1 0.10741648E-02 0.91632844E+02</pdfrwt>
<totfact> 0.12648057E+05</totfact>
</mgrwt>
</event>
<event>
 5    1  0.2734570E+000  0.8472269E+02  0.7818608E-02  0.1316159E+00
         -1   -1    0    0    0  501 -0.00000000000E+00  0.00000000000E+00  0.10275150163E+02  0.10275151224E+02  0.46700000000E-02 0.  1.
          1   -1    0    0  501    0  0.00000000000E+00 -0.00000000000E+00 -0.17464305551E+03  0.17464305557E+03  0.46700000000E-02 0. -1.
         23    2    1    2    0    0  0.00000000000E+00  0.00000000000E+00 -0.16436790535E+03  0.18491820680E+03  0.84722694106E+02 0.  0.
        -13    1    3    3    0    0 -0.33360104762E+02 -0.21961329508E+02 -0.51372840177E+02  0.65072086672E+02  0.10570000000E+00 0.  1.
         13    1    3    3    0    0  0.33360104762E+02  0.21961329508E+02 -0.11299506517E+03  0.11984612013E+03  0.10570000000E+00 0. -1.
<mgrwt>
<rscale>  0 0.84722694E+02</rscale>
<asrwt>0</asrwt>
<pdfrwt beam="2">  1        1 0.26868160E-01 0.84722694E+02</pdfrwt>
<pdfrwt beam="1">  1       -1 0.15807926E-02 0.84722694E+02</pdfrwt>
<totfact> 0.14040493E+05</totfact>
</mgrwt>
</event>
<event>
 5    1  0.2734570E+000  0.9033365E+02  0.7818608E-02  0.1302046E+00
          1   -1    0    0  501    0  0.00000000000E+00  0.00000000000E+00  0.14297465637E+03  0.14297465645E+03  0.46700000000E-02 0. -1.
         -1   -1    0    0    0  501 -0.00000000000E+00 -0.00000000000E+00 -0.14268556510E+02  0.14268557274E+02  0.46700000000E-02 0.  1.
         23    2    1    2    0    0  0.00000000000E+00  0.00000000000E+00  0.12870609986E+03  0.15724321372E+03  0.90333648881E+02 0.  0.
        -13    1    3    3    0    0 -0.35896356164E+02  0.26639655965E+01  0.16860948565E+02  0.39748557930E+02  0.10570000000E+00 0.  1.
         13    1    3    3    0    0  0.35896356164E+02 -0.26639655965E+01  0.11184515130E+03  0.11749465579E+03  0.10570000000E+00 0. -1.
<mgrwt>
<rscale>  0 0.90333649E+02</rscale>
<asrwt>0</asrwt>
<pdfrwt beam="1">  1        1 0.21996100E-01 0.90333649E+02</pdfrwt>
<pdfrwt beam="2">  1       -1 0.21951627E-02 0.90333649E+02</pdfrwt>
<totfact> 0.11397440E+05</totfact>
</mgrwt>
</event>
<event>
 5    1  0.2734570E+000  0.8949687E+02  0.7818608E-02  0.1304075E+00
         -1   -1    0    0    0  501 -0.00000000000E+00  0.00000000000E+00  0.17570769612E+02  0.17570770232E+02  0.46700000000E-02 0.  1.
          1   -1    0    0  501    0  0.00000000000E+00 -0.00000000000E+00 -0.11396328242E+03  0.11396328251E+03  0.46700000000E-02 0. -1.
         23    2    1    2    0    0  0.00000000000E+00  0.00000000000E+00 -0.96392512807E+02  0.13153405275E+03  0.89496874284E+02 0.  0.
        -13    1    3    3    0    0  0.29797199220E+02  0.11632221950E+02 -0.22052787842E+01  0.32063313862E+02  0.10570000000E+00 0.  1.
         13    1    3    3    0    0 -0.29797199220E+02 -0.11632221950E+02 -0.94187234023E+02  0.99470738885E+02  0.10570000000E+00 0. -1.
<mgrwt>
<rscale>  0 0.89496874E+02</rscale>
<asrwt>0</asrwt>
<pdfrwt beam="2">  1        1 0.17532812E-01 0.89496874E+02</pdfrwt>
<pdfrwt beam="1">  1       -1 0.27031955E-02 0.89496874E+02</pdfrwt>
<totfact> 0.11230390E+05</totfact>
</mgrwt>
</event>
<event>
 5    1  0.2734570E+000  0.1000939E+03  0.7818608E-02  0.1280099E+00
         -1   -1    0    0    0  501 -0.00000000000E+00  0.00000000000E+00  0.13548597956E+03  0.13548597964E+03  0.46700000000E-02 0.  1.
          1   -1    0    0  501    0  0.00000000000E+00 -0.00000000000E+00 -0.18486754218E+02  0.18486754808E+02  0.46700000000E-02 0. -1.
         23    2    1    2    0    0  0.00000000000E+00  0.00000000000E+00  0.11699922534E+03  0.15397273445E+03  0.10009387705E+03 0.  0.
        -13    1    3    3    0    0  0.12075657552E+02  0.39094080715E+02  0.10283090310E+03  0.11067237440E+03  0.10570000000E+00 0.  1.
         13    1    3    3    0    0 -0.12075657552E+02 -0.39094080715E+02  0.14168322246E+02  0.43300360045E+02  0.10570000000E+00 0. -1.
<mgrwt>
<rscale>  0 0.10009388E+03</rscale>
<asrwt>0</asrwt>
<pdfrwt beam="2">  1        1 0.28441162E-02 0.10009388E+03</pdfrwt>
<pdfrwt beam="1">  1       -1 0.20843996E-01 0.10009388E+03</pdfrwt>
<totfact> 0.60060398E+04</totfact>
</mgrwt>
</event>
<event>
 5    1  0.2734570E+000  0.8729887E+02  0.7818608E-02  0.1309528E+00
          1   -1    0    0  501    0  0.00000000000E+00  0.00000000000E+00  0.51496690627E+02  0.51496690838E+02  0.46700000000E-02 0. -1.
         -1   -1    0    0    0  501 -0.00000000000E+00 -0.00000000000E+00 -0.36997976215E+02  0.36997976509E+02  0.46700000000E-02 0.  1.
         23    2    1    2    0    0  0.00000000000E+00  0.00000000000E+00  0.14498714412E+02  0.88494667348E+02  0.87298874159E+02 0.  0.
        -13    1    3    3    0    0 -0.49423023723E+01  0.18290907235E+02  0.47110736584E+02  0.50778108612E+02  0.10570000000E+00 0. -1.
         13    1    3    3    0    0  0.49423023723E+01 -0.18290907235E+02 -0.32612022172E+02  0.37716558736E+02  0.10570000000E+00 0.  1.
<mgrwt>
<rscale>  0 0.87298874E+02</rscale>
<asrwt>0</asrwt>
<pdfrwt beam="1">  1        1 0.79225678E-02 0.87298874E+02</pdfrwt>
<pdfrwt beam="2">  1       -1 0.56919964E-02 0.87298874E+02</pdfrwt>
<totfact> 0.10627310E+05</totfact>
</mgrwt>
</event>
<event>
 5    1  0.2734570E+000  0.9180330E+02  0.7818608E-02  0.1298543E+00
          1   -1    0    0  501    0  0.00000000000E+00  0.00000000000E+00  0.29922271575E+03  0.29922271579E+03  0.46700000000E-02 0. -1.
         -1   -1    0    0    0  501 -0.00000000000E+00 -0.00000000000E+00 -0.70414485916E+01  0.70414501402E+01  0.46700000000E-02 0.  1.
         23    2    1    2    0    0  0.00000000000E+00  0.00000000000E+00  0.29218126716E+03  0.30626416593E+03  0.91803303059E+02 0.  0.
        -13    1    3    3    0    0 -0.39277409258E+02  0.17025290940E+02  0.20135054339E+03  0.20585098471E+03  0.10570000000E+00 0. -1.
         13    1    3    3    0    0  0.39277409258E+02 -0.17025290940E+02  0.90830723772E+02  0.10041318122E+03  0.10570000000E+00 0.  1.
<mgrwt>
<rscale>  0 0.91803303E+02</rscale>
<asrwt>0</asrwt>
<pdfrwt beam="1">  1        1 0.46034259E-01 0.91803303E+02</pdfrwt>
<pdfrwt beam="2">  1       -1 0.10833000E-02 0.91803303E+02</pdfrwt>
<totfact> 0.12574092E+05</totfact>
</mgrwt>
</event>
<event>
 5    1  0.2734570E+000  0.7913486E+02  0.7818608E-02  0.1331525E+00
         -1   -1    0    0    0  501 -0.00000000000E+00  0.00000000000E+00  0.10985861990E+03  0.10985862000E+03  0.46700000000E-02 0.  1.
          1   -1    0    0  501    0  0.00000000000E+00 -0.00000000000E+00 -0.14250873452E+02  0.14250874218E+02  0.46700000000E-02 0. -1.
         23    2    1    2    0    0  0.00000000000E+00  0.00000000000E+00  0.95607746444E+02  0.12410949421E+03  0.79134855619E+02 0.  0.
        -13    1    3    3    0    0 -0.26999482747E+02 -0.28779543930E+02  0.43275785481E+02  0.58566534804E+02  0.10570000000E+00 0.  1.
         13    1    3    3    0    0  0.26999482747E+02  0.28779543930E+02  0.52331960963E+02  0.65542959409E+02  0.10570000000E+00 0. -1.
<mgrwt>
<rscale>  0 0.79134856E+02</rscale>
<asrwt>0</asrwt>
<pdfrwt beam="2">  1        1 0.21924422E-02 0.79134856E+02</pdfrwt>
<pdfrwt beam="1">  1       -1 0.16901326E-01 0.79134856E+02</pdfrwt>
<totfact> 0.11504972E+05</totfact>
</mgrwt>
</event>
<event>
 5    1  0.2734570E+000  0.9140508E+02  0.7818608E-02  0.1299484E+00
         -1   -1    0    0    0  501 -0.00000000000E+00  0.00000000000E+00  0.15904271249E+03  0.15904271255E+03  0.46700000000E-02 0.  1.
          1   -1    0    0  501    0  0.00000000000E+00 -0.00000000000E+00 -0.13133087831E+02  0.13133088661E+02  0.46700000000E-02 0. -1.
         23    2    1    2    0    0  0.00000000000E+00  0.00000000000E+00  0.14590962466E+03  0.17217580122E+03  0.91405076211E+02 0.  0.
        -13    1    3    3    0    0 -0.20930198949E+02  0.39756218802E+02  0.88723693281E+02  0.99451169342E+02  0.10570000000E+00 0.  1.
         13    1    3    3    0    0  0.20930198949E+02 -0.39756218802E+02  0.57185931374E+02  0.72724631873E+02  0.10570000000E+00 0. -1.
<mgrwt>
<rscale>  0 0.91405076E+02</rscale>
<asrwt>0</asrwt>
<pdfrwt beam="2">  1        1 0.20204753E-02 0.91405076E+02</pdfrwt>
<pdfrwt beam="1">  1       -1 0.24468107E-01 0.91405076E+02</pdfrwt>
<totfact> 0.73273159E+04</totfact>
</mgrwt>
</event>
<event>
 5    1  0.2734570E+000  0.8629182E+02  0.7818608E-02  0.1312088E+00
          1   -1    0    0  501    0  0.00000000000E+00  0.00000000000E+00  0.36269393013E+02  0.36269393314E+02  0.46700000000E-02 0. -1.
         -1   -1    0    0    0  501 -0.00000000000E+00 -0.00000000000E+00 -0.51326182127E+02  0.51326182340E+02  0.46700000000E-02 0.  1.
         23    2    1    2    0    0  0.00000000000E+00  0.00000000000E+00 -0.15056789114E+02  0.87595575653E+02  0.86291818706E+02 0.  0.
        -13    1    3    3    0    0 -0.38886099806E+02 -0.13059953713E+02 -0.21104583368E+02  0.46131396692E+02  0.10570000000E+00 0.  1.
         13    1    3    3    0    0  0.38886099806E+02  0.13059953713E+02  0.60477942538E+01  0.41464178961E+02  0.10570000000E+00 0. -1.
<mgrwt>
<rscale>  0 0.86291819E+02</rscale>
<asrwt>0</asrwt>
<pdfrwt beam="1">  1        1 0.55799067E-02 0.86291819E+02</pdfrwt>
<pdfrwt beam="2">  1       -1 0.78963357E-02 0.86291819E+02</pdfrwt>
<totfact> 0.10433790E+05</totfact>
</mgrwt>
</event>
<event>
 5    1  0.2734570E+000  0.9094327E+02  0.7818608E-02  0.1300583E+00
         -1   -1    0    0    0  501 -0.00000000000E+00  0.00000000000E+00  0.91685144535E+02  0.91685144654E+02  0.46700000000E-02 0.  1.
          1   -1    0    0  501    0  0.00000000000E+00 -0.00000000000E+00 -0.22551849526E+02  0.22551850009E+02  0.46700000000E-02 0. -1.
         23    2    1    2    0    0  0.00000000000E+00  0.00000000000E+00  0.69133295009E+02  0.11423699466E+03  0.90943270619E+02 0.  0.
        -13    1    3    3    0    0 -0.26669831071E+02 -0.19379979244E+02  0.73905828421E+02  0.80925559201E+02  0.10570000000E+00 0.  1.
         13    1    3    3    0    0  0.26669831071E+02  0.19379979244E+02 -0.47725334127E+01  0.33311435462E+02  0.10570000000E+00 0. -1.
<mgrwt>
<rscale>  0 0.90943271E+02</rscale>
<asrwt>0</asrwt>
<pdfrwt beam="2">  1        1 0.34695154E-02 0.90943271E+02</pdfrwt>
<pdfrwt beam="1">  1       -1 0.14105407E-01 0.90943271E+02</pdfrwt>
<totfact> 0.83215345E+04</totfact>
</mgrwt>
</event>
<event>
 5    1  0.2734570E+000  0.9038661E+02  0.7818608E-02  0.1301918E+00
         -1   -1    0    0    0  501 -0.00000000000E+00  0.00000000000E+00  0.16619373082E+03  0.16619373089E+03  0.46700000000E-02 0.  1.
          1   -1    0    0  501    0  0.00000000000E+00 -0.00000000000E+00 -0.12289480024E+02  0.12289480912E+02  0.46700000000E-02 0. -1.
         23    2    1    2    0    0  0.00000000000E+00  0.00000000000E+00  0.15390425080E+03  0.17848321180E+03  0.90386605647E+02 0.  0.
        -13    1    3    3    0    0  0.11774959725E+02 -0.25716229041E+02  0.73483752943E+01  0.29223003004E+02  0.10570000000E+00 0. -1.
         13    1    3    3    0    0 -0.11774959725E+02  0.25716229041E+02  0.14655587550E+03  0.14926020879E+03  0.10570000000E+00 0.  1.
<mgrwt>
<rscale>  0 0.90386606E+02</rscale>
<asrwt>0</asrwt>
<pdfrwt beam="2">  1        1 0.18906894E-02 0.90386606E+02</pdfrwt>
<pdfrwt beam="1">  1       -1 0.25568265E-01 0.90386606E+02</pdfrwt>
<totfact> 0.74622424E+04</totfact>
</mgrwt>
</event>
<event>
 5    1  0.2734570E+000  0.9078541E+02  0.7818608E-02  0.1300961E+00
         -1   -1    0    0    0  501 -0.00000000000E+00  0.00000000000E+00  0.18125635908E+02  0.18125636510E+02  0.46700000000E-02 0.  1.
          1   -1    0    0  501    0  0.00000000000E+00 -0.00000000000E+00 -0.11367864815E+03  0.11367864824E+03  0.46700000000E-02 0. -1.
         23    2    1    2    0    0  0.00000000000E+00  0.00000000000E+00 -0.95553012240E+02  0.13180428475E+03  0.90785413648E+02 0.  0.
        -13    1    3    3    0    0  0.39853000634E+02 -0.11717762437E+02 -0.21207006614E+02  0.46640282140E+02  0.10570000000E+00 0.  1.
         13    1    3    3    0    0 -0.39853000634E+02  0.11717762437E+02 -0.74346005626E+02  0.85164002614E+02  0.10570000000E+00 0. -1.
<mgrwt>
<rscale>  0 0.90785414E+02</rscale>
<asrwt>0</asrwt>
<pdfrwt beam="2">  1        1 0.17489023E-01 0.90785414E+02</pdfrwt>
<pdfrwt beam="1">  1       -1 0.27885595E-02 0.90785414E+02</pdfrwt>
<totfact> 0.10799122E+05</totfact>
</mgrwt>
</event>
<event>
 5    1  0.2734570E+000  0.9112991E+02  0.7818608E-02  0.1300138E+00
          1   -1    0    0  501    0  0.00000000000E+00  0.00000000000E+00  0.43702087050E+03  0.43702087052E+03  0.46700000000E-02 0. -1.
         -1   -1    0    0    0  501 -0.00000000000E+00 -0.00000000000E+00 -0.47507218045E+01  0.47507240998E+01  0.46700000000E-02 0.  1.
         23    2    1    2    0    0  0.00000000000E+00  0.00000000000E+00  0.43227014869E+03  0.44177159462E+03  0.91129909273E+02 0.  0.
        -13    1    3    3    0    0 -0.67520605204E+01  0.44189995257E+02  0.17337398674E+03  0.17904439799E+03  0.10570000000E+00 0.  1.
         13    1    3    3    0    0  0.67520605204E+01 -0.44189995257E+02  0.25889616195E+03  0.26272719663E+03  0.10570000000E+00 0. -1.
<mgrwt>
<rscale>  0 0.91129909E+02</rscale>
<asrwt>0</asrwt>
<pdfrwt beam="1">  1        1 0.67233992E-01 0.91129909E+02</pdfrwt>
<pdfrwt beam="2">  1       -1 0.73088032E-03 0.91129909E+02</pdfrwt>
<totfact> 0.13695992E+05</totfact>
</mgrwt>
</event>
<event>
 5    1  0.2734570E+000  0.8935361E+02  0.7818608E-02  0.1304425E+00
          1   -1    0    0  501    0  0.00000000000E+00  0.00000000000E+00  0.53132625855E+01  0.53132646378E+01  0.46700000000E-02 0. -1.
         -1   -1    0    0    0  501 -0.00000000000E+00 -0.00000000000E+00 -0.37566683599E+03  0.37566683602E+03  0.46700000000E-02 0.  1.
         23    2    1    2    0    0  0.00000000000E+00  0.00000000000E+00 -0.37035357341E+03  0.38098010066E+03  0.89353610800E+02 0.  0.
        -13    1    3    3    0    0 -0.15619248306E+02  0.41214735315E+02 -0.15402220321E+03  0.16020444931E+03  0.10570000000E+00 0. -1.
         13    1    3    3    0    0  0.15619248306E+02 -0.41214735315E+02 -0.21633137019E+03  0.22077565135E+03  0.10570000000E+00 0.  1.
<mgrwt>
<rscale>  0 0.89353611E+02</rscale>
<asrwt>0</asrwt>
<pdfrwt beam="1">  1        1 0.81742547E-03 0.89353611E+02</pdfrwt>
<pdfrwt beam="2">  1       -1 0.57794877E-01 0.89353611E+02</pdfrwt>
<totfact> 0.57941403E+04</totfact>
</mgrwt>
</event>
<event>
 5    1  0.2734570E+000  0.9131483E+02  0.7818608E-02  0.1299699E+00
          1   -1    0    0  501    0  0.00000000000E+00  0.00000000000E+00  0.86652990260E+02  0.86652990386E+02  0.46700000000E-02 0. -1.
         -1   -1    0    0    0  501 -0.00000000000E+00 -0.00000000000E+00 -0.24056865068E+02  0.24056865522E+02  0.46700000000E-02 0.  1.
         23    2    1    2    0    0  0.00000000000E+00  0.00000000000E+00  0.62596125192E+02  0.11070985591E+03  0.91314825226E+02 0.  0.
        -13    1    3    3    0    0  0.10355565804E+01 -0.16812934130E+02 -0.20151617753E+02  0.26264919609E+02  0.10570000000E+00 0.  1.
         13    1    3    3    0    0 -0.10355565804E+01  0.16812934130E+02  0.82747742945E+02  0.84444936299E+02  0.10570000000E+00 0. -1.
<mgrwt>
<rscale>  0 0.91314825E+02</rscale>
<asrwt>0</asrwt>
<pdfrwt beam="1">  1        1 0.13331229E-01 0.91314825E+02</pdfrwt>
<pdfrwt beam="2">  1       -1 0.37010563E-02 0.91314825E+02</pdfrwt>
<totfact> 0.10161205E+05</totfact>
</mgrwt>
</event>
<event>
 5    1  0.2734570E+000  0.9337601E+02  0.7818608E-02  0.1294876E+00
          1   -1    0    0  501    0  0.00000000000E+00  0.00000000000E+00  0.39205519702E+03  0.39205519705E+03  0.46700000000E-02 0. -1.
         -1   -1    0    0    0  501 -0.00000000000E+00 -0.00000000000E+00 -0.55598539330E+01  0.55598558942E+01  0.46700000000E-02 0.  1.
         23    2    1    2    0    0  0.00000000000E+00  0.00000000000E+00  0.38649534309E+03  0.39761505294E+03  0.93376014577E+02 0.  0.
        -13    1    3    3    0    0 -0.39065313290E+02  0.20062194340E+02  0.26073311044E+03  0.26440566635E+03  0.10570000000E+00 0. -1.
         13    1    3    3    0    0  0.39065313290E+02 -0.20062194340E+02  0.12576223265E+03  0.13320938660E+03  0.10570000000E+00 0.  1.
<mgrwt>
<rscale>  0 0.93376015E+02</rscale>
<asrwt>0</asrwt>
<pdfrwt beam="1">  1        1 0.60316197E-01 0.93376015E+02</pdfrwt>
<pdfrwt beam="2">  1       -1 0.85536212E-03 0.93376015E+02</pdfrwt>
<totfact> 0.12618533E+05</totfact>
</mgrwt>
</event>
<event>
 5    1  0.2734570E+000  0.9035112E+02  0.7818608E-02  0.1302004E+00
          1   -1    0    0  501    0  0.00000000000E+00  0.00000000000E+00  0.47983372985E+02  0.47983373212E+02  0.46700000000E-02 0. -1.
         -1   -1    0    0    0  501 -0.00000000000E+00 -0.00000000000E+00 -0.42532046844E+02  0.42532047101E+02  0.46700000000E-02 0.  1.
         23    2    1    2    0    0  0.00000000000E+00  0.00000000000E+00  0.54513261402E+01  0.90515420313E+02  0.90351117081E+02 0.  0.
        -13    1    3    3    0    0 -0.19283421920E+02  0.24573206786E+02 -0.29969970388E+02  0.43288603006E+02  0.10570000000E+00 0.  1.
         13    1    3    3    0    0  0.19283421920E+02 -0.24573206786E+02  0.35421296528E+02  0.47226817307E+02  0.10570000000E+00 0. -1.
<mgrwt>
<rscale>  0 0.90351117E+02</rscale>
<asrwt>0</asrwt>
<pdfrwt beam="1">  1        1 0.73820574E-02 0.90351117E+02</pdfrwt>
<pdfrwt beam="2">  1       -1 0.65433919E-02 0.90351117E+02</pdfrwt>
<totfact> 0.95587428E+04</totfact>
</mgrwt>
</event>
<event>
 5    1  0.2734570E+000  0.8918103E+02  0.7818608E-02  0.1304847E+00
          1   -1    0    0  501    0  0.00000000000E+00  0.00000000000E+00  0.38035737884E+03  0.38035737887E+03  0.46700000000E-02 0. -1.
         -1   -1    0    0    0  501 -0.00000000000E+00 -0.00000000000E+00 -0.52274882510E+01  0.52274903370E+01  0.46700000000E-02 0.  1.
         23    2    1    2    0    0  0.00000000000E+00  0.00000000000E+00  0.37512989059E+03  0.38558486921E+03  0.89181032440E+02 0.  0.
        -13    1    3    3    0    0  0.23611561366E+02 -0.35174012675E+02  0.12740818729E+03  0.13426680289E+03  0.10570000000E+00 0. -1.
         13    1    3    3    0    0 -0.23611561366E+02  0.35174012675E+02  0.24772170330E+03  0.25131806631E+03  0.10570000000E+00 0.  1.
<mgrwt>
<rscale>  0 0.89181032E+02</rscale>
<asrwt>0</asrwt>
<pdfrwt beam="1">  1        1 0.58516539E-01 0.89181032E+02</pdfrwt>
<pdfrwt beam="2">  1       -1 0.80422886E-03 0.89181032E+02</pdfrwt>
<totfact> 0.14184750E+05</totfact>
</mgrwt>
</event>
<event>
 5    1  0.2734570E+000  0.9065382E+02  0.7818608E-02  0.1301276E+00
          1   -1    0    0  501    0  0.00000000000E+00  0.00000000000E+00  0.68186267302E+02  0.68186267462E+02  0.46700000000E-02 0. -1.
         -1   -1    0    0    0  501 -0.00000000000E+00 -0.00000000000E+00 -0.30131122091E+02  0.30131122453E+02  0.46700000000E-02 0.  1.
         23    2    1    2    0    0  0.00000000000E+00  0.00000000000E+00  0.38055145211E+02  0.98317389915E+02  0.90653820011E+02 0.  0.
        -13    1    3    3    0    0  0.26409767195E+02  0.67242352642E+01  0.58308562507E+02  0.64362961222E+02  0.10570000000E+00 0. -1.
         13    1    3    3    0    0 -0.26409767195E+02 -0.67242352642E+01 -0.20253417296E+02  0.33954428692E+02  0.10570000000E+00 0.  1.
<mgrwt>
<rscale>  0 0.90653820E+02</rscale>
<asrwt>0</asrwt>
<pdfrwt beam="1">  1        1 0.10490195E-01 0.90653820E+02</pdfrwt>
<pdfrwt beam="2">  1       -1 0.46355573E-02 0.90653820E+02</pdfrwt>
<totfact> 0.99840432E+04</totfact>
</mgrwt>
</event>
<event>
 5    1  0.2734570E+000  0.9070601E+02  0.7818608E-02  0.1301151E+00
          1   -1    0    0  501    0  0.00000000000E+00  0.00000000000E+00  0.13721875041E+03  0.13721875049E+03  0.46700000000E-02 0. -1.
         -1   -1    0    0    0  501 -0.00000000000E+00 -0.00000000000E+00 -0.14989896820E+02  0.14989897547E+02  0.46700000000E-02 0.  1.
         23    2    1    2    0    0  0.00000000000E+00  0.00000000000E+00  0.12222885359E+03  0.15220864804E+03  0.90706008001E+02 0.  0.
        -13    1    3    3    0    0  0.41507748049E+02 -0.17097454140E+02  0.50282565068E+02  0.67405961224E+02  0.10570000000E+00 0.  1.
         13    1    3    3    0    0 -0.41507748049E+02  0.17097454140E+02  0.71946288526E+02  0.84802686817E+02  0.10570000000E+00 0. -1.
<mgrwt>
<rscale>  0 0.90706008E+02</rscale>
<asrwt>0</asrwt>
<pdfrwt beam="1">  1        1 0.21110577E-01 0.90706008E+02</pdfrwt>
<pdfrwt beam="2">  1       -1 0.23061380E-02 0.90706008E+02</pdfrwt>
<totfact> 0.11188340E+05</totfact>
</mgrwt>
</event>
<event>
 5    1  0.2734570E+000  0.9276735E+02  0.7818608E-02  0.1296285E+00
          1   -1    0    0  501    0  0.00000000000E+00  0.00000000000E+00  0.11795647244E+02  0.11795648169E+02  0.46700000000E-02 0. -1.
         -1   -1    0    0    0  501 -0.00000000000E+00 -0.00000000000E+00 -0.18239312803E+03  0.18239312809E+03  0.46700000000E-02 0.  1.
         23    2    1    2    0    0  0.00000000000E+00  0.00000000000E+00 -0.17059748078E+03  0.19418877626E+03  0.92767345409E+02 0.  0.
        -13    1    3    3    0    0 -0.41676521356E+02  0.29415739426E+01 -0.12746946259E+03  0.13414194108E+03  0.10570000000E+00 0. -1.
         13    1    3    3    0    0  0.41676521356E+02 -0.29415739426E+01 -0.43128018190E+02  0.60046835179E+02  0.10570000000E+00 0.  1.
<mgrwt>
<rscale>  0 0.92767345E+02</rscale>
<asrwt>0</asrwt>
<pdfrwt beam="1">  1        1 0.18147152E-02 0.92767345E+02</pdfrwt>
<pdfrwt beam="2">  1       -1 0.28060479E-01 0.92767345E+02</pdfrwt>
<totfact> 0.68079886E+04</totfact>
</mgrwt>
</event>
<event>
 5    1  0.2734570E+000  0.9165043E+02  0.7818608E-02  0.1298903E+00
         -1   -1    0    0    0  501 -0.00000000000E+00  0.00000000000E+00  0.16827289196E+03  0.16827289203E+03  0.46700000000E-02 0.  1.
          1   -1    0    0  501    0  0.00000000000E+00 -0.00000000000E+00 -0.12479432918E+02  0.12479433792E+02  0.46700000000E-02 0. -1.
         23    2    1    2    0    0  0.00000000000E+00  0.00000000000E+00  0.15579345905E+03  0.18075232582E+03  0.91650430484E+02 0.  0.
        -13    1    3    3    0    0  0.41318471368E+01 -0.34245926517E+02  0.18400421914E+02  0.39095298220E+02  0.10570000000E+00 0. -1.
         13    1    3    3    0    0 -0.41318471368E+01  0.34245926517E+02  0.13739303713E+03  0.14165702760E+03  0.10570000000E+00 0.  1.
<mgrwt>
<rscale>  0 0.91650430E+02</rscale>
<asrwt>0</asrwt>
<pdfrwt beam="2">  1        1 0.19199130E-02 0.91650430E+02</pdfrwt>
<pdfrwt beam="1">  1       -1 0.25888135E-01 0.91650430E+02</pdfrwt>
<totfact> 0.71752517E+04</totfact>
</mgrwt>
</event>
<event>
 5    1  0.2734570E+000  0.8992572E+02  0.7818608E-02  0.1303032E+00
         -1   -1    0    0    0  501 -0.00000000000E+00  0.00000000000E+00  0.66391536335E+02  0.66391536500E+02  0.46700000000E-02 0.  1.
          1   -1    0    0  501    0  0.00000000000E+00 -0.00000000000E+00 -0.30450546439E+02  0.30450546797E+02  0.46700000000E-02 0. -1.
         23    2    1    2    0    0  0.00000000000E+00  0.00000000000E+00  0.35940989896E+02  0.96842083297E+02  0.89925715691E+02 0.  0.
        -13    1    3    3    0    0 -0.26414950356E+02  0.24907747188E+02  0.46534090208E+02  0.59021845077E+02  0.10570000000E+00 0.  1.
         13    1    3    3    0    0  0.26414950356E+02 -0.24907747188E+02 -0.10593100312E+02  0.37820238220E+02  0.10570000000E+00 0. -1.
<mgrwt>
<rscale>  0 0.89925716E+02</rscale>
<asrwt>0</asrwt>
<pdfrwt beam="2">  1        1 0.46846995E-02 0.89925716E+02</pdfrwt>
<pdfrwt beam="1">  1       -1 0.10214083E-01 0.89925716E+02</pdfrwt>
<totfact> 0.90398247E+04</totfact>
</mgrwt>
</event>
<event>
 5    1  0.2734570E+000  0.9001731E+02  0.7818608E-02  0.1302810E+00
          1   -1    0    0  501    0  0.00000000000E+00  0.00000000000E+00  0.44666724215E+02  0.44666724459E+02  0.46700000000E-02 0. -1.
         -1   -1    0    0    0  501 -0.00000000000E+00 -0.00000000000E+00 -0.45353203546E+02  0.45353203787E+02  0.46700000000E-02 0.  1.
         23    2    1    2    0    0  0.00000000000E+00  0.00000000000E+00 -0.68647933148E+00  0.90019928246E+02  0.90017310710E+02 0.  0.
        -13    1    3    3    0    0 -0.12616865842E+02  0.34118303928E+01 -0.43413529567E+02  0.45338412105E+02  0.10570000000E+00 0.  1.
         13    1    3    3    0    0  0.12616865842E+02 -0.34118303928E+01  0.42727050235E+02  0.44681516140E+02  0.10570000000E+00 0. -1.
<mgrwt>
<rscale>  0 0.90017311E+02</rscale>
<asrwt>0</asrwt>
<pdfrwt beam="1">  1        1 0.68718038E-02 0.90017311E+02</pdfrwt>
<pdfrwt beam="2">  1       -1 0.69774160E-02 0.90017311E+02</pdfrwt>
<totfact> 0.95557767E+04</totfact>
</mgrwt>
</event>
<event>
 5    1  0.2734570E+000  0.9163520E+02  0.7818608E-02  0.1298939E+00
          1   -1    0    0  501    0  0.00000000000E+00  0.00000000000E+00  0.25872300016E+02  0.25872300438E+02  0.46700000000E-02 0. -1.
         -1   -1    0    0    0  501 -0.00000000000E+00 -0.00000000000E+00 -0.81138994432E+02  0.81138994567E+02  0.46700000000E-02 0.  1.
         23    2    1    2    0    0  0.00000000000E+00  0.00000000000E+00 -0.55266694416E+02  0.10701129500E+03  0.91635199278E+02 0.  0.
        -13    1    3    3    0    0  0.39760561344E+02  0.21220791421E+02 -0.37264452849E+02  0.58479696011E+02  0.10570000000E+00 0.  1.
         13    1    3    3    0    0 -0.39760561344E+02 -0.21220791421E+02 -0.18002241567E+02  0.48531598993E+02  0.10570000000E+00 0. -1.
<mgrwt>
<rscale>  0 0.91635199E+02</rscale>
<asrwt>0</asrwt>
<pdfrwt beam="1">  1        1 0.39803539E-02 0.91635199E+02</pdfrwt>
<pdfrwt beam="2">  1       -1 0.12482922E-01 0.91635199E+02</pdfrwt>
<totfact> 0.83369268E+04</totfact>
</mgrwt>
</event>
<event>
 5    1  0.2734570E+000  0.8994580E+02  0.7818608E-02  0.1302983E+00
         -1   -1    0    0    0  501 -0.00000000000E+00  0.00000000000E+00  0.38566160948E+02  0.38566161231E+02  0.46700000000E-02 0.  1.
          1   -1    0    0  501    0  0.00000000000E+00 -0.00000000000E+00 -0.52443947791E+02  0.52443947999E+02  0.46700000000E-02 0. -1.
         23    2    1    2    0    0  0.00000000000E+00  0.00000000000E+00 -0.13877786843E+02  0.91010109229E+02  0.89945800426E+02 0.  0.
        -13    1    3    3    0    0 -0.37884391825E+02 -0.58732733903E+01  0.16851619111E+02  0.41877329468E+02  0.10570000000E+00 0.  1.
         13    1    3    3    0    0  0.37884391825E+02  0.58732733903E+01 -0.30729405954E+02  0.49132779761E+02  0.10570000000E+00 0. -1.
<mgrwt>
<rscale>  0 0.89945800E+02</rscale>
<asrwt>0</asrwt>
<pdfrwt beam="2">  1        1 0.80682997E-02 0.89945800E+02</pdfrwt>
<pdfrwt beam="1">  1       -1 0.59332556E-02 0.89945800E+02</pdfrwt>
<totfact> 0.98080357E+04</totfact>
</mgrwt>
</event>
<event>
 5    1  0.2734570E+000  0.8845021E+02  0.7818608E-02  0.1306649E+00
         -1   -1    0    0    0  501 -0.00000000000E+00  0.00000000000E+00  0.22166480555E+03  0.22166480560E+03  0.46700000000E-02 0.  1.
          1   -1    0    0  501    0  0.00000000000E+00 -0.00000000000E+00 -0.88235023808E+01  0.88235036167E+01  0.46700000000E-02 0. -1.
         23    2    1    2    0    0  0.00000000000E+00  0.00000000000E+00  0.21284130317E+03  0.23048830922E+03  0.88450213965E+02 0.  0.
        -13    1    3    3    0    0  0.84144897049E+00  0.40672616894E+02  0.61219860593E+02  0.73504097198E+02  0.10570000000E+00 0. -1.
         13    1    3    3    0    0 -0.84144897049E+00 -0.40672616894E+02  0.15162144258E+03  0.15698421202E+03  0.10570000000E+00 0.  1.
<mgrwt>
<rscale>  0 0.88450214E+02</rscale>
<asrwt>0</asrwt>
<pdfrwt beam="2">  1        1 0.13574621E-02 0.88450214E+02</pdfrwt>
<pdfrwt beam="1">  1       -1 0.34102275E-01 0.88450214E+02</pdfrwt>
<totfact> 0.72874577E+04</totfact>
</mgrwt>
</event>
<event>
 5    1  0.2734570E+000  0.9162474E+02  0.7818608E-02  0.1298964E+00
         -1   -1    0    0    0  501 -0.00000000000E+00  0.00000000000E+00  0.14669023159E+03  0.14669023167E+03  0.46700000000E-02 0.  1.
          1   -1    0    0  501    0  0.00000000000E+00 -0.00000000000E+00 -0.14307519148E+02  0.14307519910E+02  0.46700000000E-02 0. -1.
         23    2    1    2    0    0  0.00000000000E+00  0.00000000000E+00  0.13238271245E+03  0.16099775158E+03  0.91624742612E+02 0.  0.
        -13    1    3    3    0    0  0.41446691080E+01 -0.32278083404E+02  0.12284958523E+03  0.12708691795E+03  0.10570000000E+00 0.  1.
         13    1    3    3    0    0 -0.41446691080E+01  0.32278083404E+02  0.95331272133E+01  0.33910833626E+02  0.10570000000E+00 0. -1.
<mgrwt>
<rscale>  0 0.91624743E+02</rscale>
<asrwt>0</asrwt>
<pdfrwt beam="2">  1        1 0.22011569E-02 0.91624743E+02</pdfrwt>
<pdfrwt beam="1">  1       -1 0.22567727E-01 0.91624743E+02</pdfrwt>
<totfact> 0.74226641E+04</totfact>
</mgrwt>
</event>
<event>
 5    1  0.2734570E+000  0.9135569E+02  0.7818608E-02  0.1299602E+00
         -1   -1    0    0    0  501 -0.00000000000E+00  0.00000000000E+00  0.10263926243E+03  0.10263926254E+03  0.46700000000E-02 0.  1.
          1   -1    0    0  501    0  0.00000000000E+00 -0.00000000000E+00 -0.20328140489E+02  0.20328141025E+02  0.46700000000E-02 0. -1.
         23    2    1    2    0    0  0.00000000000E+00  0.00000000000E+00  0.82311121945E+02  0.12296740357E+03  0.91355686981E+02 0.  0.
        -13    1    3    3    0    0  0.33642517458E+02  0.96273245216E+01  0.80673602730E+02  0.87936031911E+02  0.10570000000E+00 0.  1.
         13    1    3    3    0    0 -0.33642517458E+02 -0.96273245216E+01  0.16375192154E+01  0.35031371655E+02  0.10570000000E+00 0. -1.
<mgrwt>
<rscale>  0 0.91355687E+02</rscale>
<asrwt>0</asrwt>
<pdfrwt beam="2">  1        1 0.31274063E-02 0.91355687E+02</pdfrwt>
<pdfrwt beam="1">  1       -1 0.15790656E-01 0.91355687E+02</pdfrwt>
<totfact> 0.80566586E+04</totfact>
</mgrwt>
</event>
<event>
 5    1  0.2734570E+000  0.9138716E+02  0.7818608E-02  0.1299527E+00
          1   -1    0    0  501    0  0.00000000000E+00  0.00000000000E+00  0.38452512831E+02  0.38452513115E+02  0.46700000000E-02 0. -1.
         -1   -1    0    0    0  501 -0.00000000000E+00 -0.00000000000E+00 -0.54298225153E+02  0.54298225354E+02  0.46700000000E-02 0.  1.
         23    2    1    2    0    0  0.00000000000E+00  0.00000000000E+00 -0.15845712322E+02  0.92750738469E+02  0.91387159314E+02 0.  0.
        -13    1    3    3    0    0 -0.15885066015E+02 -0.84628685583E-01 -0.51405431319E+02  0.53804014961E+02  0.10570000000E+00 0.  1.
         13    1    3    3    0    0  0.15885066015E+02  0.84628685583E-01  0.35559718998E+02  0.38946723508E+02  0.10570000000E+00 0. -1.
<mgrwt>
<rscale>  0 0.91387159E+02</rscale>
<asrwt>0</asrwt>
<pdfrwt beam="1">  1        1 0.59157713E-02 0.91387159E+02</pdfrwt>
<pdfrwt beam="2">  1       -1 0.83535731E-02 0.91387159E+02</pdfrwt>
<totfact> 0.89533698E+04</totfact>
</mgrwt>
</event>
<event>
 5    1  0.2734570E+000  0.9203875E+02  0.7818608E-02  0.1297988E+00
          1   -1    0    0  501    0  0.00000000000E+00  0.00000000000E+00  0.31394371323E+03  0.31394371326E+03  0.46700000000E-02 0. -1.
         -1   -1    0    0    0  501 -0.00000000000E+00 -0.00000000000E+00 -0.67457399444E+01  0.67457415609E+01  0.46700000000E-02 0.  1.
         23    2    1    2    0    0  0.00000000000E+00  0.00000000000E+00  0.30719797328E+03  0.32068945482E+03  0.92038750781E+02 0.  0.
        -13    1    3    3    0    0  0.45706136895E+02  0.40781063878E+01  0.16571400822E+03  0.17195006715E+03  0.10570000000E+00 0. -1.
         13    1    3    3    0    0 -0.45706136895E+02 -0.40781063878E+01  0.14148396506E+03  0.14873938767E+03  0.10570000000E+00 0.  1.
<mgrwt>
<rscale>  0 0.92038751E+02</rscale>
<asrwt>0</asrwt>
<pdfrwt beam="1">  1        1 0.48299033E-01 0.92038751E+02</pdfrwt>
<pdfrwt beam="2">  1       -1 0.10378063E-02 0.92038751E+02</pdfrwt>
<totfact> 0.12602734E+05</totfact>
</mgrwt>
</event>
<event>
 5    1  0.2734570E+000  0.9369821E+02  0.7818608E-02  0.1294135E+00
          1   -1    0    0  501    0  0.00000000000E+00  0.00000000000E+00  0.12320350980E+02  0.12320351865E+02  0.46700000000E-02 0. -1.
         -1   -1    0    0    0  501 -0.00000000000E+00 -0.00000000000E+00 -0.17814740733E+03  0.17814740740E+03  0.46700000000E-02 0.  1.
         23    2    1    2    0    0  0.00000000000E+00  0.00000000000E+00 -0.16582705635E+03  0.19046775926E+03  0.93698210756E+02 0.  0.
        -13    1    3    3    0    0  0.92941180015E+01  0.28203013405E+02 -0.92540493517E+01  0.31103684612E+02  0.10570000000E+00 0. -1.
         13    1    3    3    0    0 -0.92941180015E+01 -0.28203013405E+02 -0.15657300700E+03  0.15936407465E+03  0.10570000000E+00 0.  1.
<mgrwt>
<rscale>  0 0.93698211E+02</rscale>
<asrwt>0</asrwt>
<pdfrwt beam="1">  1        1 0.18954388E-02 0.93698211E+02</pdfrwt>
<pdfrwt beam="2">  1       -1 0.27407292E-01 0.93698211E+02</pdfrwt>
<totfact> 0.66748024E+04</totfact>
</mgrwt>
</event>
<event>
 5    1  0.2734570E+000  0.8907161E+02  0.7818608E-02  0.1305116E+00
         -1   -1    0    0    0  501 -0.00000000000E+00  0.00000000000E+00  0.98589264795E+01  0.98589275855E+01  0.46700000000E-02 0.  1.
          1   -1    0    0  501    0  0.00000000000E+00 -0.00000000000E+00 -0.20118194584E+03  0.20118194589E+03  0.46700000000E-02 0. -1.
         23    2    1    2    0    0  0.00000000000E+00  0.00000000000E+00 -0.19132301936E+03  0.21104087348E+03  0.89071614680E+02 0.  0.
        -13    1    3    3    0    0  0.33071787614E+02  0.29442125001E+02 -0.84336885327E+02  0.95253888423E+02  0.10570000000E+00 0. -1.
         13    1    3    3    0    0 -0.33071787614E+02 -0.29442125001E+02 -0.10698613403E+03  0.11578698505E+03  0.10570000000E+00 0.  1.
<mgrwt>
<rscale>  0 0.89071615E+02</rscale>
<asrwt>0</asrwt>
<pdfrwt beam="2">  1        1 0.30951065E-01 0.89071615E+02</pdfrwt>
<pdfrwt beam="1">  1       -1 0.15167582E-02 0.89071615E+02</pdfrwt>
<totfact> 0.12618934E+05</totfact>
</mgrwt>
</event>
<event>
 5    1  0.2734570E+000  0.9149130E+02  0.7818608E-02  0.1299280E+00
         -1   -1    0    0    0  501 -0.00000000000E+00  0.00000000000E+00  0.97108849568E+01  0.97108860797E+01  0.46700000000E-02 0.  1.
          1   -1    0    0  501    0  0.00000000000E+00 -0.00000000000E+00 -0.21549678011E+03  0.21549678016E+03  0.46700000000E-02 0. -1.
         23    2    1    2    0    0  0.00000000000E+00  0.00000000000E+00 -0.20578589515E+03  0.22520766624E+03  0.91491301714E+02 0.  0.
        -13    1    3    3    0    0 -0.22328020652E+02  0.33464912928E+02 -0.49289853274E+02  0.63623436812E+02  0.10570000000E+00 0.  1.
         13    1    3    3    0    0  0.22328020652E+02 -0.33464912928E+02 -0.15649604188E+03  0.16158422943E+03  0.10570000000E+00 0. -1.
<mgrwt>
<rscale>  0 0.91491302E+02</rscale>
<asrwt>0</asrwt>
<pdfrwt beam="2">  1        1 0.33153347E-01 0.91491302E+02</pdfrwt>
<pdfrwt beam="1">  1       -1 0.14939826E-02 0.91491302E+02</pdfrwt>
<totfact> 0.11903376E+05</totfact>
</mgrwt>
</event>
<event>
 5    1  0.2734570E+000  0.8747748E+02  0.7818608E-02  0.1309078E+00
          1   -1    0    0  501    0  0.00000000000E+00  0.00000000000E+00  0.90673380322E+02  0.90673380442E+02  0.46700000000E-02 0. -1.
         -1   -1    0    0    0  501 -0.00000000000E+00 -0.00000000000E+00 -0.21098556225E+02  0.21098556742E+02  0.46700000000E-02 0.  1.
         23    2    1    2    0    0  0.00000000000E+00  0.00000000000E+00  0.69574824098E+02  0.11177193718E+03  0.87477481638E+02 0.  0.
        -13    1    3    3    0    0  0.10684647439E+02 -0.32341304978E+02 -0.27308035153E+00  0.34061817978E+02  0.10570000000E+00 0.  1.
         13    1    3    3    0    0 -0.10684647439E+02  0.32341304978E+02  0.69847904449E+02  0.77710119206E+02  0.10570000000E+00 0. -1.
<mgrwt>
<rscale>  0 0.87477482E+02</rscale>
<asrwt>0</asrwt>
<pdfrwt beam="1">  1        1 0.13949751E-01 0.87477482E+02</pdfrwt>
<pdfrwt beam="2">  1       -1 0.32459318E-02 0.87477482E+02</pdfrwt>
<totfact> 0.11506231E+05</totfact>
</mgrwt>
</event>
<event>
 5    1  0.2734570E+000  0.9136783E+02  0.7818608E-02  0.1299573E+00
          1   -1    0    0  501    0  0.00000000000E+00  0.00000000000E+00  0.25251109416E+02  0.25251109847E+02  0.46700000000E-02 0. -1.
         -1   -1    0    0    0  501 -0.00000000000E+00 -0.00000000000E+00 -0.82650620475E+02  0.82650620606E+02  0.46700000000E-02 0.  1.
         23    2    1    2    0    0  0.00000000000E+00  0.00000000000E+00 -0.57399511059E+02  0.10790173045E+03  0.91367825656E+02 0.  0.
        -13    1    3    3    0    0 -0.41291853057E+02 -0.18393883089E+02 -0.36502732896E+02  0.58101744770E+02  0.10570000000E+00 0.  1.
         13    1    3    3    0    0  0.41291853057E+02  0.18393883089E+02 -0.20896778163E+02  0.49799985684E+02  0.10570000000E+00 0. -1.
<mgrwt>
<rscale>  0 0.91367826E+02</rscale>
<asrwt>0</asrwt>
<pdfrwt beam="1">  1        1 0.38847862E-02 0.91367826E+02</pdfrwt>
<pdfrwt beam="2">  1       -1 0.12715480E-01 0.91367826E+02</pdfrwt>
<totfact> 0.83731923E+04</totfact>
</mgrwt>
</event>
<event>
 5    1  0.2734570E+000  0.9135457E+02  0.7818608E-02  0.1299604E+00
         -1   -1    0    0    0  501 -0.00000000000E+00  0.00000000000E+00  0.80117143688E+02  0.80117143824E+02  0.46700000000E-02 0.  1.
          1   -1    0    0  501    0  0.00000000000E+00 -0.00000000000E+00 -0.26042044067E+02  0.26042044485E+02  0.46700000000E-02 0. -1.
         23    2    1    2    0    0  0.00000000000E+00  0.00000000000E+00  0.54075099621E+02  0.10615918831E+03  0.91354566735E+02 0.  0.
        -13    1    3    3    0    0 -0.14379566928E+02 -0.95059240365E+01  0.76192253894E+02  0.78117893359E+02  0.10570000000E+00 0.  1.
         13    1    3    3    0    0  0.14379566928E+02  0.95059240365E+01 -0.22117154273E+02  0.28041294950E+02  0.10570000000E+00 0. -1.
<mgrwt>
<rscale>  0 0.91354567E+02</rscale>
<asrwt>0</asrwt>
<pdfrwt beam="2">  1        1 0.40064684E-02 0.91354567E+02</pdfrwt>
<pdfrwt beam="1">  1       -1 0.12325714E-01 0.91354567E+02</pdfrwt>
<totfact> 0.84208372E+04</totfact>
</mgrwt>
</event>
<event>
 5    1  0.2734570E+000  0.9266762E+02  0.7818608E-02  0.1296517E+00
          1   -1    0    0  501    0  0.00000000000E+00  0.00000000000E+00  0.11024583635E+03  0.11024583645E+03  0.46700000000E-02 0. -1.
         -1   -1    0    0    0  501 -0.00000000000E+00 -0.00000000000E+00 -0.19473041241E+02  0.19473041801E+02  0.46700000000E-02 0.  1.
         23    2    1    2    0    0  0.00000000000E+00  0.00000000000E+00  0.90772795106E+02  0.12971887825E+03  0.92667615931E+02 0.  0.
        -13    1    3    3    0    0 -0.31011420451E+02 -0.27179012697E+02  0.15810422789E+02  0.44163192489E+02  0.10570000000E+00 0.  1.
         13    1    3    3    0    0  0.31011420451E+02  0.27179012697E+02  0.74962372318E+02  0.85555685758E+02  0.10570000000E+00 0. -1.
<mgrwt>
<rscale>  0 0.92667616E+02</rscale>
<asrwt>0</asrwt>
<pdfrwt beam="1">  1        1 0.16960898E-01 0.92667616E+02</pdfrwt>
<pdfrwt beam="2">  1       -1 0.29958525E-02 0.92667616E+02</pdfrwt>
<totfact> 0.10159166E+05</totfact>
</mgrwt>
</event>
<event>
 5    1  0.2734570E+000  0.8632269E+02  0.7818608E-02  0.1312009E+00
         -1   -1    0    0    0  501 -0.00000000000E+00  0.00000000000E+00  0.47840977468E+02  0.47840977696E+02  0.46700000000E-02 0.  1.
          1   -1    0    0  501    0  0.00000000000E+00 -0.00000000000E+00 -0.38939459692E+02  0.38939459972E+02  0.46700000000E-02 0. -1.
         23    2    1    2    0    0  0.00000000000E+00  0.00000000000E+00  0.89015177761E+01  0.86780437668E+02  0.86322693095E+02 0.  0.
        -13    1    3    3    0    0  0.24717948355E+02 -0.29909720760E+01  0.39893458208E+02  0.47025759591E+02  0.10570000000E+00 0.  1.
         13    1    3    3    0    0 -0.24717948355E+02  0.29909720760E+01 -0.30991940431E+02  0.39754678077E+02  0.10570000000E+00 0. -1.
<mgrwt>
<rscale>  0 0.86322693E+02</rscale>
<asrwt>0</asrwt>
<pdfrwt beam="2">  1        1 0.59906862E-02 0.86322693E+02</pdfrwt>
<pdfrwt beam="1">  1       -1 0.73601504E-02 0.86322693E+02</pdfrwt>
<totfact> 0.10531579E+05</totfact>
</mgrwt>
</event>
<event>
 5    1  0.2734570E+000  0.6937833E+02  0.7818608E-02  0.1362220E+00
          1   -1    0    0  501    0  0.00000000000E+00  0.00000000000E+00  0.36790881973E+02  0.36790882269E+02  0.46700000000E-02 0. -1.
         -1   -1    0    0    0  501 -0.00000000000E+00 -0.00000000000E+00 -0.32707512129E+02  0.32707512463E+02  0.46700000000E-02 0.  1.
         23    2    1    2    0    0  0.00000000000E+00  0.00000000000E+00  0.40833698436E+01  0.69498394732E+02  0.69378332071E+02 0.  0.
        -13    1    3    3    0    0 -0.17883043414E+02 -0.29724111472E+02  0.20096419320E+01  0.34747314684E+02  0.10570000000E+00 0. -1.
         13    1    3    3    0    0  0.17883043414E+02  0.29724111472E+02  0.20737279116E+01  0.34751080048E+02  0.10570000000E+00 0.  1.
<mgrwt>
<rscale>  0 0.69378332E+02</rscale>
<asrwt>0</asrwt>
<pdfrwt beam="1">  1        1 0.56601357E-02 0.69378332E+02</pdfrwt>
<pdfrwt beam="2">  1       -1 0.50319250E-02 0.69378332E+02</pdfrwt>
<totfact> 0.19080091E+05</totfact>
</mgrwt>
</event>
<event>
 5    1  0.2734570E+000  0.8751212E+02  0.7818608E-02  0.1308991E+00
         -1   -1    0    0    0  501 -0.00000000000E+00  0.00000000000E+00  0.57146664303E+01  0.57146683384E+01  0.46700000000E-02 0.  1.
          1   -1    0    0  501    0  0.00000000000E+00 -0.00000000000E+00 -0.33503136126E+03  0.33503136129E+03  0.46700000000E-02 0. -1.
         23    2    1    2    0    0  0.00000000000E+00  0.00000000000E+00 -0.32931669483E+03  0.34074602963E+03  0.87512120394E+02 0.  0.
        -13    1    3    3    0    0 -0.39734400321E+02 -0.67096146467E+01 -0.98266448498E+02  0.10620803910E+03  0.10570000000E+00 0.  1.
         13    1    3    3    0    0  0.39734400321E+02  0.67096146467E+01 -0.23105024633E+03  0.23453799053E+03  0.10570000000E+00 0. -1.
<mgrwt>
<rscale>  0 0.87512120E+02</rscale>
<asrwt>0</asrwt>
<pdfrwt beam="2">  1        1 0.51543271E-01 0.87512120E+02</pdfrwt>
<pdfrwt beam="1">  1       -1 0.87917986E-03 0.87512120E+02</pdfrwt>
<totfact> 0.14583856E+05</totfact>
</mgrwt>
</event>
<event>
 5    1  0.2734570E+000  0.8788055E+02  0.7818608E-02  0.1308067E+00
         -1   -1    0    0    0  501 -0.00000000000E+00  0.00000000000E+00  0.24375521791E+02  0.24375522238E+02  0.46700000000E-02 0.  1.
          1   -1    0    0  501    0  0.00000000000E+00 -0.00000000000E+00 -0.79208460969E+02  0.79208461107E+02  0.46700000000E-02 0. -1.
         23    2    1    2    0    0  0.00000000000E+00  0.00000000000E+00 -0.54832939179E+02  0.10358398334E+03  0.87880546121E+02 0.  0.
        -13    1    3    3    0    0  0.37479160990E+02 -0.16808502472E+02 -0.90227315792E+01  0.42055131928E+02  0.10570000000E+00 0.  1.
         13    1    3    3    0    0 -0.37479160990E+02  0.16808502472E+02 -0.45810207599E+02  0.61528851417E+02  0.10570000000E+00 0. -1.
<mgrwt>
<rscale>  0 0.87880546E+02</rscale>
<asrwt>0</asrwt>
<pdfrwt beam="2">  1        1 0.12185917E-01 0.87880546E+02</pdfrwt>
<pdfrwt beam="1">  1       -1 0.37500804E-02 0.87880546E+02</pdfrwt>
<totfact> 0.11124999E+05</totfact>
</mgrwt>
</event>
<event>
 5    1  0.2734570E+000  0.9105156E+02  0.7818608E-02  0.1300325E+00
          1   -1    0    0  501    0  0.00000000000E+00  0.00000000000E+00  0.16108661752E+02  0.16108662429E+02  0.46700000000E-02 0. -1.
         -1   -1    0    0    0  501 -0.00000000000E+00 -0.00000000000E+00 -0.12866347700E+03  0.12866347709E+03  0.46700000000E-02 0.  1.
         23    2    1    2    0    0  0.00000000000E+00  0.00000000000E+00 -0.11255481525E+03  0.14477213951E+03  0.91051556515E+02 0.  0.
        -13    1    3    3    0    0 -0.88291028365E+00 -0.33291627993E+02 -0.10563085088E+03  0.11075648900E+03  0.10570000000E+00 0.  1.
         13    1    3    3    0    0  0.88291028365E+00  0.33291627993E+02 -0.69239643699E+01  0.34015650517E+02  0.10570000000E+00 0. -1.
<mgrwt>
<rscale>  0 0.91051557E+02</rscale>
<asrwt>0</asrwt>
<pdfrwt beam="1">  1        1 0.24782558E-02 0.91051557E+02</pdfrwt>
<pdfrwt beam="2">  1       -1 0.19794380E-01 0.91051557E+02</pdfrwt>
<totfact> 0.77671861E+04</totfact>
</mgrwt>
</event>
<event>
 5    1  0.2734570E+000  0.9124640E+02  0.7818608E-02  0.1299861E+00
          1   -1    0    0  501    0  0.00000000000E+00  0.00000000000E+00  0.16812786685E+02  0.16812787333E+02  0.46700000000E-02 0. -1.
         -1   -1    0    0    0  501 -0.00000000000E+00 -0.00000000000E+00 -0.12380317222E+03  0.12380317231E+03  0.46700000000E-02 0.  1.
         23    2    1    2    0    0  0.00000000000E+00  0.00000000000E+00 -0.10699038553E+03  0.14061595964E+03  0.91246399977E+02 0.  0.
        -13    1    3    3    0    0 -0.18065237858E+02  0.17019057618E+02  0.54986196223E+01  0.25421391215E+02  0.10570000000E+00 0. -1.
         13    1    3    3    0    0  0.18065237858E+02 -0.17019057618E+02 -0.11248900516E+03  0.11519456842E+03  0.10570000000E+00 0.  1.
<mgrwt>
<rscale>  0 0.91246400E+02</rscale>
<asrwt>0</asrwt>
<pdfrwt beam="1">  1        1 0.25865827E-02 0.91246400E+02</pdfrwt>
<pdfrwt beam="2">  1       -1 0.19046641E-01 0.91246400E+02</pdfrwt>
<totfact> 0.77872475E+04</totfact>
</mgrwt>
</event>
<event>
 5    1  0.2734570E+000  0.9283214E+02  0.7818608E-02  0.1296135E+00
          1   -1    0    0  501    0  0.00000000000E+00  0.00000000000E+00  0.12772243493E+03  0.12772243502E+03  0.46700000000E-02 0. -1.
         -1   -1    0    0    0  501 -0.00000000000E+00 -0.00000000000E+00 -0.16868231649E+02  0.16868232295E+02  0.46700000000E-02 0.  1.
         23    2    1    2    0    0  0.00000000000E+00  0.00000000000E+00  0.11085420328E+03  0.14459066731E+03  0.92832142538E+02 0.  0.
        -13    1    3    3    0    0  0.43785310280E+02 -0.15288538241E+02  0.58360799855E+02  0.74544529847E+02  0.10570000000E+00 0.  1.
         13    1    3    3    0    0 -0.43785310280E+02  0.15288538241E+02  0.52493403428E+02  0.70046137466E+02  0.10570000000E+00 0. -1.
<mgrwt>
<rscale>  0 0.92832143E+02</rscale>
<asrwt>0</asrwt>
<pdfrwt beam="1">  1        1 0.19649606E-01 0.92832143E+02</pdfrwt>
<pdfrwt beam="2">  1       -1 0.25951125E-02 0.92832143E+02</pdfrwt>
<totfact> 0.10373534E+05</totfact>
</mgrwt>
</event>
<event>
 5    1  0.2734570E+000  0.9176701E+02  0.7818608E-02  0.1298628E+00
         -1   -1    0    0    0  501 -0.00000000000E+00  0.00000000000E+00  0.28698901143E+02  0.28698901523E+02  0.46700000000E-02 0.  1.
          1   -1    0    0  501    0  0.00000000000E+00 -0.00000000000E+00 -0.73358070942E+02  0.73358071091E+02  0.46700000000E-02 0. -1.
         23    2    1    2    0    0  0.00000000000E+00  0.00000000000E+00 -0.44659169799E+02  0.10205697261E+03  0.91767010477E+02 0.  0.
        -13    1    3    3    0    0  0.10914845867E+02 -0.16159753752E+02  0.23860879800E+02  0.30815974087E+02  0.10570000000E+00 0.  1.
         13    1    3    3    0    0 -0.10914845867E+02  0.16159753752E+02 -0.68520049599E+02  0.71240998527E+02  0.10570000000E+00 0. -1.
<mgrwt>
<rscale>  0 0.91767010E+02</rscale>
<asrwt>0</asrwt>
<pdfrwt beam="2">  1        1 0.11285857E-01 0.91767010E+02</pdfrwt>
<pdfrwt beam="1">  1       -1 0.44152156E-02 0.91767010E+02</pdfrwt>
<totfact> 0.97633428E+04</totfact>
</mgrwt>
</event>
<event>
 5    1  0.2734570E+000  0.8941586E+02  0.7818608E-02  0.1304272E+00
          1   -1    0    0  501    0  0.00000000000E+00  0.00000000000E+00  0.11911898306E+03  0.11911898315E+03  0.46700000000E-02 0. -1.
         -1   -1    0    0    0  501 -0.00000000000E+00 -0.00000000000E+00 -0.16779851596E+02  0.16779852245E+02  0.46700000000E-02 0.  1.
         23    2    1    2    0    0  0.00000000000E+00  0.00000000000E+00  0.10233913147E+03  0.13589883540E+03  0.89415857842E+02 0.  0.
        -13    1    3    3    0    0 -0.29259615929E+02  0.24638120615E+01  0.10240890622E+03  0.10653539665E+03  0.10570000000E+00 0. -1.
         13    1    3    3    0    0  0.29259615929E+02 -0.24638120615E+01 -0.69774750308E-01  0.29363438750E+02  0.10570000000E+00 0.  1.
<mgrwt>
<rscale>  0 0.89415858E+02</rscale>
<asrwt>0</asrwt>
<pdfrwt beam="1">  1        1 0.18325997E-01 0.89415858E+02</pdfrwt>
<pdfrwt beam="2">  1       -1 0.25815157E-02 0.89415858E+02</pdfrwt>
<totfact> 0.11343510E+05</totfact>
</mgrwt>
</event>
<event>
 5    1  0.2734570E+000  0.9394164E+02  0.7818608E-02  0.1293578E+00
          1   -1    0    0  501    0  0.00000000000E+00  0.00000000000E+00  0.26394926737E+03  0.26394926741E+03  0.46700000000E-02 0. -1.
         -1   -1    0    0    0  501 -0.00000000000E+00 -0.00000000000E+00 -0.83586429058E+01  0.83586442104E+01  0.46700000000E-02 0.  1.
         23    2    1    2    0    0  0.00000000000E+00  0.00000000000E+00  0.25559062447E+03  0.27230791162E+03  0.93941638361E+02 0.  0.
        -13    1    3    3    0    0  0.22588352753E+02 -0.34507317919E+02  0.19295196024E+03  0.19731056435E+03  0.10570000000E+00 0. -1.
         13    1    3    3    0    0 -0.22588352753E+02  0.34507317919E+02  0.62638664227E+02  0.74997347278E+02  0.10570000000E+00 0.  1.
<mgrwt>
<rscale>  0 0.93941638E+02</rscale>
<asrwt>0</asrwt>
<pdfrwt beam="1">  1        1 0.40607584E-01 0.93941638E+02</pdfrwt>
<pdfrwt beam="2">  1       -1 0.12859450E-02 0.93941638E+02</pdfrwt>
<totfact> 0.11538819E+05</totfact>
</mgrwt>
</event>
<event>
 5    1  0.2734570E+000  0.9263622E+02  0.7818608E-02  0.1296590E+00
         -1   -1    0    0    0  501 -0.00000000000E+00  0.00000000000E+00  0.26679335931E+02  0.26679336340E+02  0.46700000000E-02 0.  1.
          1   -1    0    0  501    0  0.00000000000E+00 -0.00000000000E+00 -0.80413063674E+02  0.80413063809E+02  0.46700000000E-02 0. -1.
         23    2    1    2    0    0  0.00000000000E+00  0.00000000000E+00 -0.53733727742E+02  0.10709240015E+03  0.92636216852E+02 0.  0.
        -13    1    3    3    0    0  0.23879258538E+02  0.25647486350E+00 -0.72747342569E+02  0.76566779944E+02  0.10570000000E+00 0. -1.
         13    1    3    3    0    0 -0.23879258538E+02 -0.25647486350E+00  0.19013614827E+02  0.30525620205E+02  0.10570000000E+00 0.  1.
<mgrwt>
<rscale>  0 0.92636217E+02</rscale>
<asrwt>0</asrwt>
<pdfrwt beam="2">  1        1 0.12371241E-01 0.92636217E+02</pdfrwt>
<pdfrwt beam="1">  1       -1 0.41045133E-02 0.92636217E+02</pdfrwt>
<totfact> 0.96518157E+04</totfact>
</mgrwt>
</event>
<event>
 5    1  0.2734570E+000  0.9201867E+02  0.7818608E-02  0.1298036E+00
         -1   -1    0    0    0  501 -0.00000000000E+00  0.00000000000E+00  0.89296177228E+02  0.89296177350E+02  0.46700000000E-02 0.  1.
          1   -1    0    0  501    0  0.00000000000E+00 -0.00000000000E+00 -0.23706039984E+02  0.23706040444E+02  0.46700000000E-02 0. -1.
         23    2    1    2    0    0  0.00000000000E+00  0.00000000000E+00  0.65590137244E+02  0.11300221779E+03  0.92018667251E+02 0.  0.
        -13    1    3    3    0    0  0.32340578220E+01  0.43057651786E+02  0.52306045665E+02  0.67825910188E+02  0.10570000000E+00 0.  1.
         13    1    3    3    0    0 -0.32340578220E+01 -0.43057651786E+02  0.13284091579E+02  0.45176307605E+02  0.10570000000E+00 0. -1.
<mgrwt>
<rscale>  0 0.92018667E+02</rscale>
<asrwt>0</asrwt>
<pdfrwt beam="2">  1        1 0.36470831E-02 0.92018667E+02</pdfrwt>
<pdfrwt beam="1">  1       -1 0.13737873E-01 0.92018667E+02</pdfrwt>
<totfact> 0.81118116E+04</totfact>
</mgrwt>
</event>
<event>
 5    1  0.2734570E+000  0.9067613E+02  0.7818608E-02  0.1301223E+00
          1   -1    0    0  501    0  0.00000000000E+00  0.00000000000E+00  0.34153933151E+03  0.34153933154E+03  0.46700000000E-02 0. -1.
         -1   -1    0    0    0  501 -0.00000000000E+00 -0.00000000000E+00 -0.60184575944E+01  0.60184594062E+01  0.46700000000E-02 0.  1.
         23    2    1    2    0    0  0.00000000000E+00  0.00000000000E+00  0.33552087391E+03  0.34755779094E+03  0.90676133660E+02 0.  0.
        -13    1    3    3    0    0 -0.41200016664E+02  0.18828661194E+02  0.16051901100E+03  0.16678826074E+03  0.10570000000E+00 0.  1.
         13    1    3    3    0    0  0.41200016664E+02 -0.18828661194E+02  0.17500186291E+03  0.18076953020E+03  0.10570000000E+00 0. -1.
<mgrwt>
<rscale>  0 0.90676134E+02</rscale>
<asrwt>0</asrwt>
<pdfrwt beam="1">  1        1 0.52544522E-01 0.90676134E+02</pdfrwt>
<pdfrwt beam="2">  1       -1 0.92591654E-03 0.90676134E+02</pdfrwt>
<totfact> 0.13318950E+05</totfact>
</mgrwt>
</event>
<event>
 5    1  0.2734570E+000  0.8290742E+02  0.7818608E-02  0.1320997E+00
         -1   -1    0    0    0  501 -0.00000000000E+00  0.00000000000E+00  0.52722882682E+02  0.52722882889E+02  0.46700000000E-02 0.  1.
          1   -1    0    0  501    0  0.00000000000E+00 -0.00000000000E+00 -0.32593252626E+02  0.32593252960E+02  0.46700000000E-02 0. -1.
         23    2    1    2    0    0  0.00000000000E+00  0.00000000000E+00  0.20129630057E+02  0.85316135849E+02  0.82907424457E+02 0.  0.
        -13    1    3    3    0    0  0.15288084870E+01  0.14794059996E+02 -0.29752990123E+02  0.33263389188E+02  0.10570000000E+00 0. -1.
         13    1    3    3    0    0 -0.15288084870E+01 -0.14794059996E+02  0.49882620179E+02  0.52052746661E+02  0.10570000000E+00 0.  1.
<mgrwt>
<rscale>  0 0.82907424E+02</rscale>
<asrwt>0</asrwt>
<pdfrwt beam="2">  1        1 0.50143467E-02 0.82907424E+02</pdfrwt>
<pdfrwt beam="1">  1       -1 0.81112126E-02 0.82907424E+02</pdfrwt>
<totfact> 0.11495605E+05</totfact>
</mgrwt>
</event>
<event>
 5    1  0.2734570E+000  0.9014791E+02  0.7818608E-02  0.1302494E+00
         -1   -1    0    0    0  501 -0.00000000000E+00  0.00000000000E+00  0.88522244262E+02  0.88522244385E+02  0.46700000000E-02 0.  1.
          1   -1    0    0  501    0  0.00000000000E+00 -0.00000000000E+00 -0.22950855998E+02  0.22950856473E+02  0.46700000000E-02 0. -1.
         23    2    1    2    0    0  0.00000000000E+00  0.00000000000E+00  0.65571388264E+02  0.11147310086E+03  0.90147907663E+02 0.  0.
        -13    1    3    3    0    0  0.18601314705E+02  0.91539406261E+01  0.82276541908E+02  0.84848359198E+02  0.10570000000E+00 0.  1.
         13    1    3    3    0    0 -0.18601314705E+02 -0.91539406261E+01 -0.16705153644E+02  0.26624741660E+02  0.10570000000E+00 0. -1.
<mgrwt>
<rscale>  0 0.90147908E+02</rscale>
<asrwt>0</asrwt>
<pdfrwt beam="2">  1        1 0.35309010E-02 0.90147908E+02</pdfrwt>
<pdfrwt beam="1">  1       -1 0.13618807E-01 0.90147908E+02</pdfrwt>
<totfact> 0.85642132E+04</totfact>
</mgrwt>
</event>
<event>
 4    1  0.2734570E+000  0.4665575E+02  0.7818608E-02  0.1464262E+00
          1   -1    0    0  501    0  0.00000000000E+00  0.00000000000E+00  0.11388342270E+03  0.11388342279E+03  0.46700000000E-02 0.  1.
         -1   -1    0    0    0  501 -0.00000000000E+00 -0.00000000000E+00 -0.47784793000E+01  0.47784815820E+01  0.46700000000E-02 0. -1.
        -13    1    1    2    0    0  0.15395100829E+02  0.15621203159E+02  0.34341649188E+02  0.40747897603E+02  0.10570000000E+00 0. -1.
         13    1    1    2    0    0 -0.15395100829E+02 -0.15621203159E+02  0.74763294210E+02  0.77914006772E+02  0.10570000000E+00 0.  1.
<mgrwt>
<rscale>  0 0.46655749E+02</rscale>
<asrwt>0</asrwt>
<pdfrwt beam="1">  1        1 0.17520526E-01 0.46655749E+02</pdfrwt>
<pdfrwt beam="2">  1       -1 0.73515088E-03 0.46655749E+02</pdfrwt>
<totfact> 0.61154031E+05</totfact>
</mgrwt>
</event>
<event>
 5    1  0.2734570E+000  0.9078968E+02  0.7818608E-02  0.1300951E+00
          1   -1    0    0  501    0  0.00000000000E+00  0.00000000000E+00  0.30526842338E+02  0.30526842695E+02  0.46700000000E-02 0. -1.
         -1   -1    0    0    0  501 -0.00000000000E+00 -0.00000000000E+00 -0.67504252132E+02  0.67504252293E+02  0.46700000000E-02 0.  1.
         23    2    1    2    0    0  0.00000000000E+00  0.00000000000E+00 -0.36977409794E+02  0.98031094988E+02  0.90789684158E+02 0.  0.
        -13    1    3    3    0    0 -0.16277677185E+02 -0.20673990038E+02 -0.58429676659E+02  0.64081314949E+02  0.10570000000E+00 0.  1.
         13    1    3    3    0    0  0.16277677185E+02  0.20673990038E+02  0.21452266865E+02  0.33949780040E+02  0.10570000000E+00 0. -1.
<mgrwt>
<rscale>  0 0.90789684E+02</rscale>
<asrwt>0</asrwt>
<pdfrwt beam="1">  1        1 0.46964373E-02 0.90789684E+02</pdfrwt>
<pdfrwt beam="2">  1       -1 0.10385270E-01 0.90789684E+02</pdfrwt>
<totfact> 0.87994340E+04</totfact>
</mgrwt>
</event>
<event>
 5    1  0.2734570E+000  0.6900259E+02  0.7818608E-02  0.1363518E+00
         -1   -1    0    0    0  501 -0.00000000000E+00  0.00000000000E+00  0.23336456101E+02  0.23336456569E+02  0.46700000000E-02 0.  1.
          1   -1    0    0  501    0  0.00000000000E+00 -0.00000000000E+00 -0.51007717570E+02  0.51007717783E+02  0.46700000000E-02 0. -1.
         23    2    1    2    0    0  0.00000000000E+00  0.00000000000E+00 -0.27671261468E+02  0.74344174352E+02  0.69002590885E+02 0.  0.
        -13    1    3    3    0    0  0.82913811926E+01 -0.32221835811E+02 -0.40001863524E+01  0.33511287180E+02  0.10570000000E+00 0. -1.
         13    1    3    3    0    0 -0.82913811926E+01  0.32221835811E+02 -0.23671075116E+02  0.40832887172E+02  0.10570000000E+00 0.  1.
<mgrwt>
<rscale>  0 0.69002591E+02</rscale>
<asrwt>0</asrwt>
<pdfrwt beam="2">  1        1 0.78473412E-02 0.69002591E+02</pdfrwt>
<pdfrwt beam="1">  1       -1 0.35902241E-02 0.69002591E+02</pdfrwt>
<totfact> 0.20134043E+05</totfact>
</mgrwt>
</event>
<event>
 5    1  0.2734570E+000  0.9434843E+02  0.7818608E-02  0.1292650E+00
         -1   -1    0    0    0  501 -0.00000000000E+00  0.00000000000E+00  0.18631612401E+02  0.18631612986E+02  0.46700000000E-02 0.  1.
          1   -1    0    0  501    0  0.00000000000E+00 -0.00000000000E+00 -0.11944250234E+03  0.11944250243E+03  0.46700000000E-02 0. -1.
         23    2    1    2    0    0  0.00000000000E+00  0.00000000000E+00 -0.10081088994E+03  0.13807411542E+03  0.94348427747E+02 0.  0.
        -13    1    3    3    0    0 -0.45437661336E+02 -0.10023843478E+02 -0.61773041574E+02  0.77336785191E+02  0.10570000000E+00 0. -1.
         13    1    3    3    0    0  0.45437661336E+02  0.10023843478E+02 -0.39037848368E+02  0.60737330230E+02  0.10570000000E+00 0.  1.
<mgrwt>
<rscale>  0 0.94348428E+02</rscale>
<asrwt>0</asrwt>
<pdfrwt beam="2">  1        1 0.18375769E-01 0.94348428E+02</pdfrwt>
<pdfrwt beam="1">  1       -1 0.28664020E-02 0.94348428E+02</pdfrwt>
<totfact> 0.98089341E+04</totfact>
</mgrwt>
</event>
<event>
 5    1  0.2734570E+000  0.9252572E+02  0.7818608E-02  0.1296848E+00
          1   -1    0    0  501    0  0.00000000000E+00  0.00000000000E+00  0.14319936591E+03  0.14319936599E+03  0.46700000000E-02 0. -1.
         -1   -1    0    0    0  501 -0.00000000000E+00 -0.00000000000E+00 -0.14945961882E+02  0.14945962611E+02  0.46700000000E-02 0.  1.
         23    2    1    2    0    0  0.00000000000E+00  0.00000000000E+00  0.12825340403E+03  0.15814532860E+03  0.92525722436E+02 0.  0.
        -13    1    3    3    0    0  0.23496991951E+02  0.17831054159E+02  0.32112390010E+01  0.29671170377E+02  0.10570000000E+00 0.  1.
         13    1    3    3    0    0 -0.23496991951E+02 -0.17831054159E+02  0.12504216503E+03  0.12847415822E+03  0.10570000000E+00 0. -1.
<mgrwt>
<rscale>  0 0.92525722E+02</rscale>
<asrwt>0</asrwt>
<pdfrwt beam="1">  1        1 0.22030671E-01 0.92525722E+02</pdfrwt>
<pdfrwt beam="2">  1       -1 0.22993788E-02 0.92525722E+02</pdfrwt>
<totfact> 0.10685444E+05</totfact>
</mgrwt>
</event>
<event>
 5    1  0.2734570E+000  0.8796902E+02  0.7818608E-02  0.1307846E+00
          1   -1    0    0  501    0  0.00000000000E+00  0.00000000000E+00  0.12557520839E+03  0.12557520847E+03  0.46700000000E-02 0. -1.
         -1   -1    0    0    0  501 -0.00000000000E+00 -0.00000000000E+00 -0.15406202297E+02  0.15406203005E+02  0.46700000000E-02 0.  1.
         23    2    1    2    0    0  0.00000000000E+00  0.00000000000E+00  0.11016900609E+03  0.14098141148E+03  0.87969019999E+02 0.  0.
        -13    1    3    3    0    0  0.21913078534E+02 -0.32505637814E+00 -0.60328684635E+01  0.22730933700E+02  0.10570000000E+00 0.  1.
         13    1    3    3    0    0 -0.21913078534E+02  0.32505637814E+00  0.11620187455E+03  0.11825047778E+03  0.10570000000E+00 0. -1.
<mgrwt>
<rscale>  0 0.87969020E+02</rscale>
<asrwt>0</asrwt>
<pdfrwt beam="1">  1        1 0.19319262E-01 0.87969020E+02</pdfrwt>
<pdfrwt beam="2">  1       -1 0.23701851E-02 0.87969020E+02</pdfrwt>
<totfact> 0.11963017E+05</totfact>
</mgrwt>
</event>
<event>
 5    1  0.2734570E+000  0.8984722E+02  0.7818608E-02  0.1303222E+00
          1   -1    0    0  501    0  0.00000000000E+00  0.00000000000E+00  0.92066694756E+02  0.92066694874E+02  0.46700000000E-02 0. -1.
         -1   -1    0    0    0  501 -0.00000000000E+00 -0.00000000000E+00 -0.21920311680E+02  0.21920312177E+02  0.46700000000E-02 0.  1.
         23    2    1    2    0    0  0.00000000000E+00  0.00000000000E+00  0.70146383076E+02  0.11398700705E+03  0.89847218755E+02 0.  0.
        -13    1    3    3    0    0 -0.26808785021E+02  0.31065904916E+02  0.11876253604E+02  0.42718356414E+02  0.10570000000E+00 0.  1.
         13    1    3    3    0    0  0.26808785021E+02 -0.31065904916E+02  0.58270129472E+02  0.71268650638E+02  0.10570000000E+00 0. -1.
<mgrwt>
<rscale>  0 0.89847219E+02</rscale>
<asrwt>0</asrwt>
<pdfrwt beam="1">  1        1 0.14164107E-01 0.89847219E+02</pdfrwt>
<pdfrwt beam="2">  1       -1 0.33723557E-02 0.89847219E+02</pdfrwt>
<totfact> 0.10725321E+05</totfact>
</mgrwt>
</event>
<event>
 5    1  0.2734570E+000  0.9652411E+02  0.7818608E-02  0.1287780E+00
          1   -1    0    0  501    0  0.00000000000E+00  0.00000000000E+00  0.13509370488E+03  0.13509370497E+03  0.46700000000E-02 0. -1.
         -1   -1    0    0    0  501 -0.00000000000E+00 -0.00000000000E+00 -0.17241558598E+02  0.17241559231E+02  0.46700000000E-02 0.  1.
         23    2    1    2    0    0  0.00000000000E+00  0.00000000000E+00  0.11785214629E+03  0.15233526420E+03  0.96524112704E+02 0.  0.
        -13    1    3    3    0    0  0.39284662110E+02 -0.24546237252E+02  0.37552404983E+02  0.59632178669E+02  0.10570000000E+00 0.  1.
         13    1    3    3    0    0 -0.39284662110E+02  0.24546237252E+02  0.80299741303E+02  0.92703085527E+02  0.10570000000E+00 0. -1.
<mgrwt>
<rscale>  0 0.96524113E+02</rscale>
<asrwt>0</asrwt>
<pdfrwt beam="1">  1        1 0.20783647E-01 0.96524113E+02</pdfrwt>
<pdfrwt beam="2">  1       -1 0.26525475E-02 0.96524113E+02</pdfrwt>
<totfact> 0.94245219E+04</totfact>
</mgrwt>
</event>
<event>
 5    1  0.2734570E+000  0.8991779E+02  0.7818608E-02  0.1303051E+00
          1   -1    0    0  501    0  0.00000000000E+00  0.00000000000E+00  0.22448765419E+02  0.22448765905E+02  0.46700000000E-02 0. -1.
         -1   -1    0    0    0  501 -0.00000000000E+00 -0.00000000000E+00 -0.90040677096E+02  0.90040677217E+02  0.46700000000E-02 0.  1.
         23    2    1    2    0    0  0.00000000000E+00  0.00000000000E+00 -0.67591911677E+02  0.11248944312E+03  0.89917786281E+02 0.  0.
        -13    1    3    3    0    0  0.14841722083E+02 -0.41645176002E+02 -0.23579319865E+02  0.50105816992E+02  0.10570000000E+00 0. -1.
         13    1    3    3    0    0 -0.14841722083E+02  0.41645176002E+02 -0.44012591812E+02  0.62383626130E+02  0.10570000000E+00 0.  1.
<mgrwt>
<rscale>  0 0.89917786E+02</rscale>
<asrwt>0</asrwt>
<pdfrwt beam="1">  1        1 0.34536563E-02 0.89917786E+02</pdfrwt>
<pdfrwt beam="2">  1       -1 0.13852412E-01 0.89917786E+02</pdfrwt>
<totfact> 0.85947763E+04</totfact>
</mgrwt>
</event>
<event>
 5    1  0.2734570E+000  0.9332702E+02  0.7818608E-02  0.1294989E+00
         -1   -1    0    0    0  501 -0.00000000000E+00  0.00000000000E+00  0.32474996319E+03  0.32474996322E+03  0.46700000000E-02 0.  1.
          1   -1    0    0  501    0  0.00000000000E+00 -0.00000000000E+00 -0.67051054191E+01  0.67051070454E+01  0.46700000000E-02 0. -1.
         23    2    1    2    0    0  0.00000000000E+00  0.00000000000E+00  0.31804485777E+03  0.33145507027E+03  0.93327016734E+02 0.  0.
        -13    1    3    3    0    0  0.53758836864E+01  0.43766412083E+02  0.21324288450E+03  0.21775430631E+03  0.10570000000E+00 0.  1.
         13    1    3    3    0    0 -0.53758836864E+01 -0.43766412083E+02  0.10480197327E+03  0.11370076396E+03  0.10570000000E+00 0. -1.
<mgrwt>
<rscale>  0 0.93327017E+02</rscale>
<asrwt>0</asrwt>
<pdfrwt beam="2">  1        1 0.10315550E-02 0.93327017E+02</pdfrwt>
<pdfrwt beam="1">  1       -1 0.49961524E-01 0.93327017E+02</pdfrwt>
<totfact> 0.55187366E+04</totfact>
</mgrwt>
</event>
<event>
 5    1  0.2734570E+000  0.8882072E+02  0.7818608E-02  0.1305733E+00
         -1   -1    0    0    0  501 -0.00000000000E+00  0.00000000000E+00  0.66555870779E+02  0.66555870943E+02  0.46700000000E-02 0.  1.
          1   -1    0    0  501    0  0.00000000000E+00 -0.00000000000E+00 -0.29633450265E+02  0.29633450632E+02  0.46700000000E-02 0. -1.
         23    2    1    2    0    0  0.00000000000E+00  0.00000000000E+00  0.36922420515E+02  0.96189321576E+02  0.88820720829E+02 0.  0.
        -13    1    3    3    0    0 -0.24446332242E+01  0.29713369294E+02 -0.17184614375E+02  0.34411955628E+02  0.10570000000E+00 0. -1.
         13    1    3    3    0    0  0.24446332242E+01 -0.29713369294E+02  0.54107034890E+02  0.61777365948E+02  0.10570000000E+00 0.  1.
<mgrwt>
<rscale>  0 0.88820721E+02</rscale>
<asrwt>0</asrwt>
<pdfrwt beam="2">  1        1 0.45589925E-02 0.88820721E+02</pdfrwt>
<pdfrwt beam="1">  1       -1 0.10239365E-01 0.88820721E+02</pdfrwt>
<totfact> 0.93247778E+04</totfact>
</mgrwt>
</event>
<event>
 5    1  0.2734570E+000  0.8107871E+02  0.7818608E-02  0.1326018E+00
          1   -1    0    0  501    0  0.00000000000E+00  0.00000000000E+00  0.62197734628E+02  0.62197734804E+02  0.46700000000E-02 0. -1.
         -1   -1    0    0    0  501 -0.00000000000E+00 -0.00000000000E+00 -0.26422815075E+02  0.26422815488E+02  0.46700000000E-02 0.  1.
         23    2    1    2    0    0  0.00000000000E+00  0.00000000000E+00  0.35774919553E+02  0.88620550291E+02  0.81078709073E+02 0.  0.
        -13    1    3    3    0    0  0.99648244782E+01  0.20093210454E+02 -0.19023466015E+02  0.29409832793E+02  0.10570000000E+00 0.  1.
         13    1    3    3    0    0 -0.99648244782E+01 -0.20093210454E+02  0.54798385569E+02  0.59210717498E+02  0.10570000000E+00 0. -1.
<mgrwt>
<rscale>  0 0.81078709E+02</rscale>
<asrwt>0</asrwt>
<pdfrwt beam="1">  1        1 0.95688821E-02 0.81078709E+02</pdfrwt>
<pdfrwt beam="2">  1       -1 0.40650486E-02 0.81078709E+02</pdfrwt>
<totfact> 0.13372879E+05</totfact>
</mgrwt>
</event>
<event>
 5    1  0.2734570E+000  0.9755521E+02  0.7818608E-02  0.1285523E+00
         -1   -1    0    0    0  501 -0.00000000000E+00  0.00000000000E+00  0.14440246675E+03  0.14440246683E+03  0.46700000000E-02 0.  1.
          1   -1    0    0  501    0  0.00000000000E+00 -0.00000000000E+00 -0.16476549925E+02  0.16476550587E+02  0.46700000000E-02 0. -1.
         23    2    1    2    0    0  0.00000000000E+00  0.00000000000E+00  0.12792591683E+03  0.16087901741E+03  0.97555205132E+02 0.  0.
        -13    1    3    3    0    0 -0.30994809541E+02 -0.66707549277E+01  0.28331859765E+01  0.31831043103E+02  0.10570000000E+00 0. -1.
         13    1    3    3    0    0  0.30994809541E+02  0.66707549277E+01  0.12509273085E+03  0.12904797431E+03  0.10570000000E+00 0.  1.
<mgrwt>
<rscale>  0 0.97555205E+02</rscale>
<asrwt>0</asrwt>
<pdfrwt beam="2">  1        1 0.25348540E-02 0.97555205E+02</pdfrwt>
<pdfrwt beam="1">  1       -1 0.22215763E-01 0.97555205E+02</pdfrwt>
<totfact> 0.63286453E+04</totfact>
</mgrwt>
</event>
<event>
 5    1  0.2734570E+000  0.9084205E+02  0.7818608E-02  0.1300825E+00
          1   -1    0    0  501    0  0.00000000000E+00  0.00000000000E+00  0.48338100323E+03  0.48338100325E+03  0.46700000000E-02 0. -1.
         -1   -1    0    0    0  501 -0.00000000000E+00 -0.00000000000E+00 -0.42679970304E+01  0.42679995853E+01  0.46700000000E-02 0.  1.
         23    2    1    2    0    0  0.00000000000E+00  0.00000000000E+00  0.47911300620E+03  0.48764900284E+03  0.90842045657E+02 0.  0.
        -13    1    3    3    0    0 -0.44182333157E+02  0.88966561107E+01  0.26984184915E+03  0.27357972106E+03  0.10570000000E+00 0. -1.
         13    1    3    3    0    0  0.44182333157E+02 -0.88966561107E+01  0.20927115705E+03  0.21406928177E+03  0.10570000000E+00 0.  1.
<mgrwt>
<rscale>  0 0.90842046E+02</rscale>
<asrwt>0</asrwt>
<pdfrwt beam="1">  1        1 0.74366280E-01 0.90842046E+02</pdfrwt>
<pdfrwt beam="2">  1       -1 0.65661537E-03 0.90842046E+02</pdfrwt>
<totfact> 0.14004888E+05</totfact>
</mgrwt>
</event>
<event>
 5    1  0.2734570E+000  0.8882099E+02  0.7818608E-02  0.1305732E+00
         -1   -1    0    0    0  501 -0.00000000000E+00  0.00000000000E+00  0.37255296929E+02  0.37255297222E+02  0.46700000000E-02 0.  1.
          1   -1    0    0  501    0  0.00000000000E+00 -0.00000000000E+00 -0.52939914059E+02  0.52939914265E+02  0.46700000000E-02 0. -1.
         23    2    1    2    0    0  0.00000000000E+00  0.00000000000E+00 -0.15684617130E+02  0.90195211487E+02  0.88820993919E+02 0.  0.
        -13    1    3    3    0    0  0.33324484132E+02 -0.76010366563E+01  0.20951000143E+02  0.40090554753E+02  0.10570000000E+00 0.  1.
         13    1    3    3    0    0 -0.33324484132E+02  0.76010366563E+01 -0.36635617273E+02  0.50104656734E+02  0.10570000000E+00 0. -1.
<mgrwt>
<rscale>  0 0.88820994E+02</rscale>
<asrwt>0</asrwt>
<pdfrwt beam="2">  1        1 0.81446023E-02 0.88820994E+02</pdfrwt>
<pdfrwt beam="1">  1       -1 0.57315841E-02 0.88820994E+02</pdfrwt>
<totfact> 0.10171020E+05</totfact>
</mgrwt>
</event>
<event>
 5    1  0.2734570E+000  0.9763481E+02  0.7818608E-02  0.1285350E+00
         -1   -1    0    0    0  501 -0.00000000000E+00  0.00000000000E+00  0.19466590741E+02  0.19466591302E+02  0.46700000000E-02 0.  1.
          1   -1    0    0  501    0  0.00000000000E+00 -0.00000000000E+00 -0.12242199438E+03  0.12242199447E+03  0.46700000000E-02 0. -1.
         23    2    1    2    0    0  0.00000000000E+00  0.00000000000E+00 -0.10295540364E+03  0.14188858577E+03  0.97634807490E+02 0.  0.
        -13    1    3    3    0    0  0.20787921571E+02  0.76456255286E+01 -0.11469918557E+03  0.11681826748E+03  0.10570000000E+00 0. -1.
         13    1    3    3    0    0 -0.20787921571E+02 -0.76456255286E+01  0.11743781931E+02  0.25070318296E+02  0.10570000000E+00 0.  1.
<mgrwt>
<rscale>  0 0.97634807E+02</rscale>
<asrwt>0</asrwt>
<pdfrwt beam="2">  1        1 0.18834153E-01 0.97634807E+02</pdfrwt>
<pdfrwt beam="1">  1       -1 0.29948602E-02 0.97634807E+02</pdfrwt>
<totfact> 0.89726121E+04</totfact>
</mgrwt>
</event>
<event>
 5    1  0.2734570E+000  0.9188876E+02  0.7818608E-02  0.1298341E+00
          1   -1    0    0  501    0  0.00000000000E+00  0.00000000000E+00  0.85104125617E+02  0.85104125745E+02  0.46700000000E-02 0. -1.
         -1   -1    0    0    0  501 -0.00000000000E+00 -0.00000000000E+00 -0.24803570795E+02  0.24803571235E+02  0.46700000000E-02 0.  1.
         23    2    1    2    0    0  0.00000000000E+00  0.00000000000E+00  0.60300554822E+02  0.10990769698E+03  0.91888763968E+02 0.  0.
        -13    1    3    3    0    0  0.33559233412E+02 -0.17026225813E+02 -0.13767680776E+01  0.37656621934E+02  0.10570000000E+00 0.  1.
         13    1    3    3    0    0 -0.33559233412E+02  0.17026225813E+02  0.61677322899E+02  0.72251075045E+02  0.10570000000E+00 0. -1.
<mgrwt>
<rscale>  0 0.91888764E+02</rscale>
<asrwt>0</asrwt>
<pdfrwt beam="1">  1        1 0.13092942E-01 0.91888764E+02</pdfrwt>
<pdfrwt beam="2">  1       -1 0.38159341E-02 0.91888764E+02</pdfrwt>
<totfact> 0.99591316E+04</totfact>
</mgrwt>
</event>
<event>
 5    1  0.2734570E+000  0.9988464E+02  0.7818608E-02  0.1280539E+00
         -1   -1    0    0    0  501 -0.00000000000E+00  0.00000000000E+00  0.23490402092E+02  0.23490402556E+02  0.46700000000E-02 0.  1.
          1   -1    0    0  501    0  0.00000000000E+00 -0.00000000000E+00 -0.10618103934E+03  0.10618103944E+03  0.46700000000E-02 0. -1.
         23    2    1    2    0    0  0.00000000000E+00  0.00000000000E+00 -0.82690637245E+02  0.12967144200E+03  0.99884640367E+02 0.  0.
        -13    1    3    3    0    0  0.15422498989E+01 -0.35081430306E+02  0.47574586579E+01  0.35436279044E+02  0.10570000000E+00 0.  1.
         13    1    3    3    0    0 -0.15422498989E+01  0.35081430306E+02 -0.87448095903E+02  0.94235162952E+02  0.10570000000E+00 0. -1.
<mgrwt>
<rscale>  0 0.99884640E+02</rscale>
<asrwt>0</asrwt>
<pdfrwt beam="2">  1        1 0.16335544E-01 0.99884640E+02</pdfrwt>
<pdfrwt beam="1">  1       -1 0.36139081E-02 0.99884640E+02</pdfrwt>
<totfact> 0.82179453E+04</totfact>
</mgrwt>
</event>
<event>
 5    1  0.2734570E+000  0.9151962E+02  0.7818608E-02  0.1299213E+00
          1   -1    0    0  501    0  0.00000000000E+00  0.00000000000E+00  0.53770392639E+02  0.53770392842E+02  0.46700000000E-02 0. -1.
         -1   -1    0    0    0  501 -0.00000000000E+00 -0.00000000000E+00 -0.38942620283E+02  0.38942620563E+02  0.46700000000E-02 0.  1.
         23    2    1    2    0    0  0.00000000000E+00  0.00000000000E+00  0.14827772356E+02  0.92713013405E+02  0.91519615501E+02 0.  0.
        -13    1    3    3    0    0 -0.44128284462E+02  0.16042119237E+01 -0.47455393786E+01  0.44411826150E+02  0.10570000000E+00 0.  1.
         13    1    3    3    0    0  0.44128284462E+02 -0.16042119237E+01  0.19573311735E+02  0.48301187255E+02  0.10570000000E+00 0. -1.
<mgrwt>
<rscale>  0 0.91519616E+02</rscale>
<asrwt>0</asrwt>
<pdfrwt beam="1">  1        1 0.82723681E-02 0.91519616E+02</pdfrwt>
<pdfrwt beam="2">  1       -1 0.59911724E-02 0.91519616E+02</pdfrwt>
<totfact> 0.93805507E+04</totfact>
</mgrwt>
</event>
<event>
 5    1  0.2734570E+000  0.9070712E+02  0.7818608E-02  0.1301148E+00
         -1   -1    0    0    0  501 -0.00000000000E+00  0.00000000000E+00  0.86493375772E+02  0.86493375898E+02  0.46700000000E-02 0.  1.
          1   -1    0    0  501    0  0.00000000000E+00 -0.00000000000E+00 -0.23781537797E+02  0.23781538256E+02  0.46700000000E-02 0. -1.
         23    2    1    2    0    0  0.00000000000E+00  0.00000000000E+00  0.62711837975E+02  0.11027491415E+03  0.90707122485E+02 0.  0.
        -13    1    3    3    0    0 -0.25488665495E+02 -0.21784399705E+02  0.68484370797E+02  0.76251900665E+02  0.10570000000E+00 0.  1.
         13    1    3    3    0    0  0.25488665495E+02  0.21784399705E+02 -0.57725328221E+01  0.34023013489E+02  0.10570000000E+00 0. -1.
<mgrwt>
<rscale>  0 0.90707122E+02</rscale>
<asrwt>0</asrwt>
<pdfrwt beam="2">  1        1 0.36586982E-02 0.90707122E+02</pdfrwt>
<pdfrwt beam="1">  1       -1 0.13306673E-01 0.90707122E+02</pdfrwt>
<totfact> 0.84637564E+04</totfact>
</mgrwt>
</event>
<event>
 5    1  0.2734570E+000  0.9631689E+02  0.7818608E-02  0.1288237E+00
         -1   -1    0    0    0  501 -0.00000000000E+00  0.00000000000E+00  0.10506386224E+03  0.10506386235E+03  0.46700000000E-02 0.  1.
          1   -1    0    0  501    0  0.00000000000E+00 -0.00000000000E+00 -0.22074532783E+02  0.22074533277E+02  0.46700000000E-02 0. -1.
         23    2    1    2    0    0  0.00000000000E+00  0.00000000000E+00  0.82989329461E+02  0.12713839563E+03  0.96316887605E+02 0.  0.
        -13    1    3    3    0    0 -0.37583164228E+02 -0.28363399434E+02  0.28147118487E+02  0.54856614118E+02  0.10570000000E+00 0. -1.
         13    1    3    3    0    0  0.37583164228E+02  0.28363399434E+02  0.54842210975E+02  0.72281781508E+02  0.10570000000E+00 0.  1.
<mgrwt>
<rscale>  0 0.96316888E+02</rscale>
<asrwt>0</asrwt>
<pdfrwt beam="2">  1        1 0.33960819E-02 0.96316888E+02</pdfrwt>
<pdfrwt beam="1">  1       -1 0.16163672E-01 0.96316888E+02</pdfrwt>
<totfact> 0.69971055E+04</totfact>
</mgrwt>
</event>
<event>
 5    1  0.2734570E+000  0.9377282E+02  0.7818608E-02  0.1293964E+00
          1   -1    0    0  501    0  0.00000000000E+00  0.00000000000E+00  0.53971349300E+02  0.53971349502E+02  0.46700000000E-02 0. -1.
         -1   -1    0    0    0  501 -0.00000000000E+00 -0.00000000000E+00 -0.40731523096E+02  0.40731523364E+02  0.46700000000E-02 0.  1.
         23    2    1    2    0    0  0.00000000000E+00  0.00000000000E+00  0.13239826204E+02  0.94702872865E+02  0.93772816589E+02 0.  0.
        -13    1    3    3    0    0  0.25114863336E+02  0.76597839043E+01 -0.32609857533E+02  0.41866963475E+02  0.10570000000E+00 0. -1.
         13    1    3    3    0    0 -0.25114863336E+02 -0.76597839043E+01  0.45849683737E+02  0.52835909390E+02  0.10570000000E+00 0.  1.
<mgrwt>
<rscale>  0 0.93772817E+02</rscale>
<asrwt>0</asrwt>
<pdfrwt beam="1">  1        1 0.83032845E-02 0.93772817E+02</pdfrwt>
<pdfrwt beam="2">  1       -1 0.62663882E-02 0.93772817E+02</pdfrwt>
<totfact> 0.87689216E+04</totfact>
</mgrwt>
</event>
<event>
 5    1  0.2734570E+000  0.9014928E+02  0.7818608E-02  0.1302491E+00
         -1   -1    0    0    0  501 -0.00000000000E+00  0.00000000000E+00  0.85088994937E+02  0.85088995065E+02  0.46700000000E-02 0.  1.
          1   -1    0    0  501    0  0.00000000000E+00 -0.00000000000E+00 -0.23877622720E+02  0.23877623177E+02  0.46700000000E-02 0. -1.
         23    2    1    2    0    0  0.00000000000E+00  0.00000000000E+00  0.61211372217E+02  0.10896661824E+03  0.90149275108E+02 0.  0.
        -13    1    3    3    0    0  0.22739055366E+02 -0.18805967524E+02 -0.10579792075E+02  0.31347603199E+02  0.10570000000E+00 0. -1.
         13    1    3    3    0    0 -0.22739055366E+02  0.18805967524E+02  0.71791164292E+02  0.77619015043E+02  0.10570000000E+00 0.  1.
<mgrwt>
<rscale>  0 0.90149275E+02</rscale>
<asrwt>0</asrwt>
<pdfrwt beam="2">  1        1 0.36734805E-02 0.90149275E+02</pdfrwt>
<pdfrwt beam="1">  1       -1 0.13090615E-01 0.90149275E+02</pdfrwt>
<totfact> 0.86230014E+04</totfact>
</mgrwt>
</event>
<event>
 5    1  0.2734570E+000  0.9170202E+02  0.7818608E-02  0.1298782E+00
          1   -1    0    0  501    0  0.00000000000E+00  0.00000000000E+00  0.33676831019E+02  0.33676831343E+02  0.46700000000E-02 0.  1.
         -1   -1    0    0    0  501 -0.00000000000E+00 -0.00000000000E+00 -0.62426149453E+02  0.62426149627E+02  0.46700000000E-02 0. -1.
         23    2    1    2    0    0  0.00000000000E+00  0.00000000000E+00 -0.28749318433E+02  0.96102980970E+02  0.91702015469E+02 0.  0.
        -13    1    3    3    0    0 -0.21036345911E+02 -0.75171870059E+01  0.27587807682E+02  0.35498369750E+02  0.10570000000E+00 0.  1.
         13    1    3    3    0    0  0.21036345911E+02  0.75171870059E+01 -0.56337126115E+02  0.60604611220E+02  0.10570000000E+00 0. -1.
<mgrwt>
<rscale>  0 0.91702015E+02</rscale>
<asrwt>0</asrwt>
<pdfrwt beam="1">  1        1 0.51810510E-02 0.91702015E+02</pdfrwt>
<pdfrwt beam="2">  1       -1 0.96040230E-02 0.91702015E+02</pdfrwt>
<totfact> 0.86855105E+04</totfact>
</mgrwt>
</event>
<event>
 5    1  0.2734570E+000  0.9198611E+02  0.7818608E-02  0.1298112E+00
          1   -1    0    0  501    0  0.00000000000E+00  0.00000000000E+00  0.11956993154E+02  0.11956994065E+02  0.46700000000E-02 0. -1.
         -1   -1    0    0    0  501 -0.00000000000E+00 -0.00000000000E+00 -0.17691412011E+03  0.17691412018E+03  0.46700000000E-02 0.  1.
         23    2    1    2    0    0  0.00000000000E+00  0.00000000000E+00 -0.16495712696E+03  0.18887111424E+03  0.91986107971E+02 0.  0.
        -13    1    3    3    0    0 -0.27974257738E+02  0.35260927094E+02 -0.63058424885E+02  0.77474306689E+02  0.10570000000E+00 0.  1.
         13    1    3    3    0    0  0.27974257738E+02 -0.35260927094E+02 -0.10189870208E+03  0.11139680755E+03  0.10570000000E+00 0. -1.
<mgrwt>
<rscale>  0 0.91986108E+02</rscale>
<asrwt>0</asrwt>
<pdfrwt beam="1">  1        1 0.18395376E-02 0.91986108E+02</pdfrwt>
<pdfrwt beam="2">  1       -1 0.27217555E-01 0.91986108E+02</pdfrwt>
<totfact> 0.70162608E+04</totfact>
</mgrwt>
</event>
<event>
 5    1  0.2734570E+000  0.9117206E+02  0.7818608E-02  0.1300038E+00
          1   -1    0    0  501    0  0.00000000000E+00  0.00000000000E+00  0.87980502768E+01  0.87980515162E+01  0.46700000000E-02 0. -1.
         -1   -1    0    0    0  501 -0.00000000000E+00 -0.00000000000E+00 -0.23619845491E+03  0.23619845496E+03  0.46700000000E-02 0.  1.
         23    2    1    2    0    0  0.00000000000E+00  0.00000000000E+00 -0.22740040464E+03  0.24499650648E+03  0.91172057981E+02 0.  0.
        -13    1    3    3    0    0 -0.33057159574E+02 -0.77393619457E+01 -0.19544557847E+03  0.19837252541E+03  0.10570000000E+00 0.  1.
         13    1    3    3    0    0  0.33057159574E+02  0.77393619457E+01 -0.31954826166E+02  0.46623981063E+02  0.10570000000E+00 0. -1.
<mgrwt>
<rscale>  0 0.91172058E+02</rscale>
<asrwt>0</asrwt>
<pdfrwt beam="1">  1        1 0.13535465E-02 0.91172058E+02</pdfrwt>
<pdfrwt beam="2">  1       -1 0.36338219E-01 0.91172058E+02</pdfrwt>
<totfact> 0.66004575E+04</totfact>
</mgrwt>
</event>
<event>
 5    1  0.2734570E+000  0.9253160E+02  0.7818608E-02  0.1296834E+00
          1   -1    0    0  501    0  0.00000000000E+00  0.00000000000E+00  0.20543375386E+03  0.20543375391E+03  0.46700000000E-02 0. -1.
         -1   -1    0    0    0  501 -0.00000000000E+00 -0.00000000000E+00 -0.10419533963E+02  0.10419535009E+02  0.46700000000E-02 0.  1.
         23    2    1    2    0    0  0.00000000000E+00  0.00000000000E+00  0.19501421990E+03  0.21585328892E+03  0.92531596639E+02 0.  0.
        -13    1    3    3    0    0 -0.30992694399E+02  0.31642098205E+02  0.12869483280E+03  0.13610341894E+03  0.10570000000E+00 0.  1.
         13    1    3    3    0    0  0.30992694399E+02 -0.31642098205E+02  0.66319387094E+02  0.79749869980E+02  0.10570000000E+00 0. -1.
<mgrwt>
<rscale>  0 0.92531597E+02</rscale>
<asrwt>0</asrwt>
<pdfrwt beam="1">  1        1 0.31605190E-01 0.92531597E+02</pdfrwt>
<pdfrwt beam="2">  1       -1 0.16030055E-02 0.92531597E+02</pdfrwt>
<totfact> 0.11440292E+05</totfact>
</mgrwt>
</event>
<event>
 5    1  0.2734570E+000  0.9062381E+02  0.7818608E-02  0.1301348E+00
         -1   -1    0    0    0  501 -0.00000000000E+00  0.00000000000E+00  0.13369849580E+02  0.13369850396E+02  0.46700000000E-02 0.  1.
          1   -1    0    0  501    0  0.00000000000E+00 -0.00000000000E+00 -0.15356708208E+03  0.15356708215E+03  0.46700000000E-02 0. -1.
         23    2    1    2    0    0  0.00000000000E+00  0.00000000000E+00 -0.14019723250E+03  0.16693693254E+03  0.90623812805E+02 0.  0.
        -13    1    3    3    0    0  0.23195541990E+02  0.33170792247E+02 -0.10761677751E+03  0.11497702640E+03  0.10570000000E+00 0. -1.
         13    1    3    3    0    0 -0.23195541990E+02 -0.33170792247E+02 -0.32580454989E+02  0.51959906142E+02  0.10570000000E+00 0.  1.
<mgrwt>
<rscale>  0 0.90623813E+02</rscale>
<asrwt>0</asrwt>
<pdfrwt beam="2">  1        1 0.23625704E-01 0.90623813E+02</pdfrwt>
<pdfrwt beam="1">  1       -1 0.20569001E-02 0.90623813E+02</pdfrwt>
<totfact> 0.11448072E+05</totfact>
</mgrwt>
</event>
<event>
 5    1  0.2734570E+000  0.9245347E+02  0.7818608E-02  0.1297017E+00
          1   -1    0    0  501    0  0.00000000000E+00  0.00000000000E+00  0.22499470418E+03  0.22499470422E+03  0.46700000000E-02 0. -1.
         -1   -1    0    0    0  501 -0.00000000000E+00 -0.00000000000E+00 -0.94976042770E+01  0.94976054251E+01  0.46700000000E-02 0.  1.
         23    2    1    2    0    0  0.00000000000E+00  0.00000000000E+00  0.21549709990E+03  0.23449230965E+03  0.92453465159E+02 0.  0.
        -13    1    3    3    0    0 -0.78189895468E+01  0.31889706219E+02  0.25218071837E+02  0.41401114477E+02  0.10570000000E+00 0.  1.
         13    1    3    3    0    0  0.78189895468E+01 -0.31889706219E+02  0.19027902806E+03  0.19309119517E+03  0.10570000000E+00 0. -1.
<mgrwt>
<rscale>  0 0.92453465E+02</rscale>
<asrwt>0</asrwt>
<pdfrwt beam="1">  1        1 0.34614571E-01 0.92453465E+02</pdfrwt>
<pdfrwt beam="2">  1       -1 0.14611699E-02 0.92453465E+02</pdfrwt>
<totfact> 0.11672109E+05</totfact>
</mgrwt>
</event>
<event>
 5    1  0.2734570E+000  0.8832942E+02  0.7818608E-02  0.1306948E+00
         -1   -1    0    0    0  501 -0.00000000000E+00  0.00000000000E+00  0.46455198617E+02  0.46455198852E+02  0.46700000000E-02 0.  1.
          1   -1    0    0  501    0  0.00000000000E+00 -0.00000000000E+00 -0.41987153108E+02  0.41987153367E+02  0.46700000000E-02 0. -1.
         23    2    1    2    0    0  0.00000000000E+00  0.00000000000E+00  0.44680455092E+01  0.88442352219E+02  0.88329418855E+02 0.  0.
        -13    1    3    3    0    0 -0.27459625655E+02  0.27383039318E+02 -0.18927058404E+02  0.43152133154E+02  0.10570000000E+00 0. -1.
         13    1    3    3    0    0  0.27459625655E+02 -0.27383039318E+02  0.23395103913E+02  0.45290219065E+02  0.10570000000E+00 0.  1.
<mgrwt>
<rscale>  0 0.88329419E+02</rscale>
<asrwt>0</asrwt>
<pdfrwt beam="2">  1        1 0.64595621E-02 0.88329419E+02</pdfrwt>
<pdfrwt beam="1">  1       -1 0.71469537E-02 0.88329419E+02</pdfrwt>
<totfact> 0.99842965E+04</totfact>
</mgrwt>
</event>
<event>
 5    1  0.2734570E+000  0.8817062E+02  0.7818608E-02  0.1307343E+00
          1   -1    0    0  501    0  0.00000000000E+00  0.00000000000E+00  0.32602119312E+03  0.32602119315E+03  0.46700000000E-02 0. -1.
         -1   -1    0    0    0  501 -0.00000000000E+00 -0.00000000000E+00 -0.59613128459E+01  0.59613146751E+01  0.46700000000E-02 0.  1.
         23    2    1    2    0    0  0.00000000000E+00  0.00000000000E+00  0.32005988027E+03  0.33198250783E+03  0.88170621768E+02 0.  0.
        -13    1    3    3    0    0 -0.42459739422E+02  0.33916543081E+01  0.20282299182E+03  0.20724746072E+03  0.10570000000E+00 0.  1.
         13    1    3    3    0    0  0.42459739422E+02 -0.33916543081E+01  0.11723688845E+03  0.12473504710E+03  0.10570000000E+00 0. -1.
<mgrwt>
<rscale>  0 0.88170622E+02</rscale>
<asrwt>0</asrwt>
<pdfrwt beam="1">  1        1 0.50157101E-01 0.88170622E+02</pdfrwt>
<pdfrwt beam="2">  1       -1 0.91712531E-03 0.88170622E+02</pdfrwt>
<totfact> 0.14226008E+05</totfact>
</mgrwt>
</event>
<event>
 5    1  0.2734570E+000  0.9075572E+02  0.7818608E-02  0.1301032E+00
         -1   -1    0    0    0  501 -0.00000000000E+00  0.00000000000E+00  0.21429115957E+02  0.21429116465E+02  0.46700000000E-02 0.  1.
          1   -1    0    0  501    0  0.00000000000E+00 -0.00000000000E+00 -0.96091238608E+02  0.96091238722E+02  0.46700000000E-02 0. -1.
         23    2    1    2    0    0  0.00000000000E+00  0.00000000000E+00 -0.74662122652E+02  0.11752035519E+03  0.90755723370E+02 0.  0.
        -13    1    3    3    0    0  0.15415268616E+02  0.42553910203E+02 -0.33100577591E+02  0.56072499404E+02  0.10570000000E+00 0.  1.
         13    1    3    3    0    0 -0.15415268616E+02 -0.42553910203E+02 -0.41561545060E+02  0.61447855783E+02  0.10570000000E+00 0. -1.
<mgrwt>
<rscale>  0 0.90755723E+02</rscale>
<asrwt>0</asrwt>
<pdfrwt beam="2">  1        1 0.14783267E-01 0.90755723E+02</pdfrwt>
<pdfrwt beam="1">  1       -1 0.32967872E-02 0.90755723E+02</pdfrwt>
<totfact> 0.10508343E+05</totfact>
</mgrwt>
</event>
<event>
 5    1  0.2734570E+000  0.9299915E+02  0.7818608E-02  0.1295747E+00
          1   -1    0    0  501    0  0.00000000000E+00  0.00000000000E+00  0.49353719711E+02  0.49353719932E+02  0.46700000000E-02 0. -1.
         -1   -1    0    0    0  501 -0.00000000000E+00 -0.00000000000E+00 -0.43810483453E+02  0.43810483702E+02  0.46700000000E-02 0.  1.
         23    2    1    2    0    0  0.00000000000E+00  0.00000000000E+00  0.55432362575E+01  0.93164203634E+02  0.92999147150E+02 0.  0.
        -13    1    3    3    0    0  0.41811280972E+02  0.20416146727E+01 -0.17509009670E+02  0.45375411834E+02  0.10570000000E+00 0.  1.
         13    1    3    3    0    0 -0.41811280972E+02 -0.20416146727E+01  0.23052245927E+02  0.47788791801E+02  0.10570000000E+00 0. -1.
<mgrwt>
<rscale>  0 0.92999147E+02</rscale>
<asrwt>0</asrwt>
<pdfrwt beam="1">  1        1 0.75928799E-02 0.92999147E+02</pdfrwt>
<pdfrwt beam="2">  1       -1 0.67400745E-02 0.92999147E+02</pdfrwt>
<totfact> 0.88529786E+04</totfact>
</mgrwt>
</event>
<event>
 5    1  0.2734570E+000  0.9318755E+02  0.7818608E-02  0.1295311E+00
         -1   -1    0    0    0  501 -0.00000000000E+00  0.00000000000E+00  0.13005267062E+02  0.13005267900E+02  0.46700000000E-02 0.  1.
          1   -1    0    0  501    0  0.00000000000E+00 -0.00000000000E+00 -0.16693081816E+03  0.16693081822E+03  0.46700000000E-02 0. -1.
         23    2    1    2    0    0  0.00000000000E+00  0.00000000000E+00 -0.15392555110E+03  0.17993608612E+03  0.93187551793E+02 0.  0.
        -13    1    3    3    0    0  0.11539162986E+02  0.43308121223E+02 -0.52369478210E+02  0.68929812612E+02  0.10570000000E+00 0.  1.
         13    1    3    3    0    0 -0.11539162986E+02 -0.43308121223E+02 -0.10155607289E+03  0.11100627351E+03  0.10570000000E+00 0. -1.
<mgrwt>
<rscale>  0 0.93187552E+02</rscale>
<asrwt>0</asrwt>
<pdfrwt beam="2">  1        1 0.25681663E-01 0.93187552E+02</pdfrwt>
<pdfrwt beam="1">  1       -1 0.20008105E-02 0.93187552E+02</pdfrwt>
<totfact> 0.10784867E+05</totfact>
</mgrwt>
</event>
<event>
 5    1  0.2734570E+000  0.9257474E+02  0.7818608E-02  0.1296734E+00
          1   -1    0    0  501    0  0.00000000000E+00  0.00000000000E+00  0.31215413271E+02  0.31215413620E+02  0.46700000000E-02 0. -1.
         -1   -1    0    0    0  501 -0.00000000000E+00 -0.00000000000E+00 -0.68636625035E+02  0.68636625194E+02  0.46700000000E-02 0.  1.
         23    2    1    2    0    0  0.00000000000E+00  0.00000000000E+00 -0.37421211764E+02  0.99852038814E+02  0.92574740429E+02 0.  0.
        -13    1    3    3    0    0  0.70418402914E+01 -0.13379532761E+02 -0.65897913262E+02  0.67610247421E+02  0.10570000000E+00 0.  1.
         13    1    3    3    0    0 -0.70418402914E+01  0.13379532761E+02  0.28476701497E+02  0.32241791393E+02  0.10570000000E+00 0. -1.
<mgrwt>
<rscale>  0 0.92574740E+02</rscale>
<asrwt>0</asrwt>
<pdfrwt beam="1">  1        1 0.48023713E-02 0.92574740E+02</pdfrwt>
<pdfrwt beam="2">  1       -1 0.10559481E-01 0.92574740E+02</pdfrwt>
<totfact> 0.83509761E+04</totfact>
</mgrwt>
</event>
<event>
 5    1  0.2734570E+000  0.9400098E+02  0.7818608E-02  0.1293442E+00
          1   -1    0    0  501    0  0.00000000000E+00  0.00000000000E+00  0.15455400102E+03  0.15455400109E+03  0.46700000000E-02 0. -1.
         -1   -1    0    0    0  501 -0.00000000000E+00 -0.00000000000E+00 -0.14293037784E+02  0.14293038547E+02  0.46700000000E-02 0.  1.
         23    2    1    2    0    0  0.00000000000E+00  0.00000000000E+00  0.14026096324E+03  0.16884703964E+03  0.94000983966E+02 0.  0.
        -13    1    3    3    0    0 -0.97024546135E+01 -0.33079552755E+02  0.12745601440E+02  0.36753992499E+02  0.10570000000E+00 0.  1.
         13    1    3    3    0    0  0.97024546135E+01  0.33079552755E+02  0.12751536180E+03  0.13209304714E+03  0.10570000000E+00 0. -1.
<mgrwt>
<rscale>  0 0.94000984E+02</rscale>
<asrwt>0</asrwt>
<pdfrwt beam="1">  1        1 0.23777538E-01 0.94000984E+02</pdfrwt>
<pdfrwt beam="2">  1       -1 0.21989290E-02 0.94000984E+02</pdfrwt>
<totfact> 0.10382926E+05</totfact>
</mgrwt>
</event>
<event>
 5    1  0.2734570E+000  0.9039461E+02  0.7818608E-02  0.1301899E+00
          1   -1    0    0  501    0  0.00000000000E+00  0.00000000000E+00  0.12662132385E+03  0.12662132393E+03  0.46700000000E-02 0. -1.
         -1   -1    0    0    0  501 -0.00000000000E+00 -0.00000000000E+00 -0.16133114202E+02  0.16133114878E+02  0.46700000000E-02 0.  1.
         23    2    1    2    0    0  0.00000000000E+00  0.00000000000E+00  0.11048820964E+03  0.14275443881E+03  0.90394608963E+02 0.  0.
        -13    1    3    3    0    0 -0.20565465237E+02 -0.37751301604E+02  0.33209032434E+02  0.54322648508E+02  0.10570000000E+00 0.  1.
         13    1    3    3    0    0  0.20565465237E+02  0.37751301604E+02  0.77279177211E+02  0.88431790303E+02  0.10570000000E+00 0. -1.
<mgrwt>
<rscale>  0 0.90394609E+02</rscale>
<asrwt>0</asrwt>
<pdfrwt beam="1">  1        1 0.19480203E-01 0.90394609E+02</pdfrwt>
<pdfrwt beam="2">  1       -1 0.24820177E-02 0.90394609E+02</pdfrwt>
<totfact> 0.11132330E+05</totfact>
</mgrwt>
</event>
<event>
 5    1  0.2734570E+000  0.7956479E+02  0.7818608E-02  0.1330291E+00
         -1   -1    0    0    0  501 -0.00000000000E+00  0.00000000000E+00  0.13902067410E+03  0.13902067418E+03  0.46700000000E-02 0. -1.
          1   -1    0    0  501    0  0.00000000000E+00 -0.00000000000E+00 -0.11384197442E+02  0.11384198400E+02  0.46700000000E-02 0.  1.
         23    2    1    2    0    0  0.00000000000E+00  0.00000000000E+00  0.12763647666E+03  0.15040487258E+03  0.79564788200E+02 0.  0.
        -13    1    3    3    0    0  0.26881936017E+02  0.94819587414E+01  0.11360520637E+02  0.30685804979E+02  0.10570000000E+00 0.  1.
         13    1    3    3    0    0 -0.26881936017E+02 -0.94819587414E+01  0.11627595602E+03  0.11971906760E+03  0.10570000000E+00 0. -1.
<mgrwt>
<rscale>  0 0.79564788E+02</rscale>
<asrwt>0</asrwt>
<pdfrwt beam="2">  1        1 0.17514152E-02 0.79564788E+02</pdfrwt>
<pdfrwt beam="1">  1       -1 0.21387795E-01 0.79564788E+02</pdfrwt>
<totfact> 0.10817746E+05</totfact>
</mgrwt>
</event>
<event>
 5    1  0.2734570E+000  0.9372695E+02  0.7818608E-02  0.1294069E+00
          1   -1    0    0  501    0  0.00000000000E+00  0.00000000000E+00  0.16796703042E+03  0.16796703048E+03  0.46700000000E-02 0. -1.
         -1   -1    0    0    0  501 -0.00000000000E+00 -0.00000000000E+00 -0.13075095777E+02  0.13075096611E+02  0.46700000000E-02 0.  1.
         23    2    1    2    0    0  0.00000000000E+00  0.00000000000E+00  0.15489193464E+03  0.18104212709E+03  0.93726945781E+02 0.  0.
        -13    1    3    3    0    0 -0.78859412765E+01 -0.27563392562E+02  0.58403160680E+01  0.29258317511E+02  0.10570000000E+00 0.  1.
         13    1    3    3    0    0  0.78859412765E+01  0.27563392562E+02  0.14905161857E+03  0.15178380958E+03  0.10570000000E+00 0. -1.
<mgrwt>
<rscale>  0 0.93726946E+02</rscale>
<asrwt>0</asrwt>
<pdfrwt beam="1">  1        1 0.25841082E-01 0.93726946E+02</pdfrwt>
<pdfrwt beam="2">  1       -1 0.20115532E-02 0.93726946E+02</pdfrwt>
<totfact> 0.10630505E+05</totfact>
</mgrwt>
</event>
<event>
 5    1  0.2734570E+000  0.9072228E+02  0.7818608E-02  0.1301112E+00
          1   -1    0    0  501    0  0.00000000000E+00  0.00000000000E+00  0.37594473936E+02  0.37594474226E+02  0.46700000000E-02 0.  1.
         -1   -1    0    0    0  501 -0.00000000000E+00 -0.00000000000E+00 -0.54732329390E+02  0.54732329589E+02  0.46700000000E-02 0. -1.
         23    2    1    2    0    0  0.00000000000E+00  0.00000000000E+00 -0.17137855454E+02  0.92326803814E+02  0.90722282891E+02 0.  0.
        -13    1    3    3    0    0  0.44637117344E+02  0.59036745418E+01 -0.14170488840E+02  0.47203173032E+02  0.10570000000E+00 0. -1.
         13    1    3    3    0    0 -0.44637117344E+02 -0.59036745418E+01 -0.29673666138E+01  0.45123630782E+02  0.10570000000E+00 0.  1.
<mgrwt>
<rscale>  0 0.90722283E+02</rscale>
<asrwt>0</asrwt>
<pdfrwt beam="1">  1        1 0.57837653E-02 0.90722283E+02</pdfrwt>
<pdfrwt beam="2">  1       -1 0.84203584E-02 0.90722283E+02</pdfrwt>
<totfact> 0.91089482E+04</totfact>
</mgrwt>
</event>
<event>
 5    1  0.2734570E+000  0.7715474E+02  0.7818608E-02  0.1337325E+00
          1   -1    0    0  501    0  0.00000000000E+00  0.00000000000E+00  0.37611843245E+02  0.37611843535E+02  0.46700000000E-02 0. -1.
         -1   -1    0    0    0  501 -0.00000000000E+00 -0.00000000000E+00 -0.39567682399E+02  0.39567682674E+02  0.46700000000E-02 0.  1.
         23    2    1    2    0    0  0.00000000000E+00  0.00000000000E+00 -0.19558391541E+01  0.77179526209E+02  0.77154740354E+02 0.  0.
        -13    1    3    3    0    0  0.38184102056E+02  0.39904604655E+01 -0.47544327313E+01  0.38685465328E+02  0.10570000000E+00 0. -1.
         13    1    3    3    0    0 -0.38184102056E+02 -0.39904604655E+01  0.27985935772E+01  0.38494060881E+02  0.10570000000E+00 0.  1.
<mgrwt>
<rscale>  0 0.77154740E+02</rscale>
<asrwt>0</asrwt>
<pdfrwt beam="1">  1        1 0.57864374E-02 0.77154740E+02</pdfrwt>
<pdfrwt beam="2">  1       -1 0.60873358E-02 0.77154740E+02</pdfrwt>
<totfact> 0.14317259E+05</totfact>
</mgrwt>
</event>
<event>
 5    1  0.2734570E+000  0.9081029E+02  0.7818608E-02  0.1300901E+00
         -1   -1    0    0    0  501 -0.00000000000E+00  0.00000000000E+00  0.44830050788E+03  0.44830050791E+03  0.46700000000E-02 0.  1.
          1   -1    0    0  501    0  0.00000000000E+00 -0.00000000000E+00 -0.45987609122E+01  0.45987632833E+01  0.46700000000E-02 0. -1.
         23    2    1    2    0    0  0.00000000000E+00  0.00000000000E+00  0.44370174697E+03  0.45289927119E+03  0.90810294461E+02 0.  0.
        -13    1    3    3    0    0 -0.38764061567E+02  0.23494655355E+02  0.20868878819E+03  0.21355484726E+03  0.10570000000E+00 0.  1.
         13    1    3    3    0    0  0.38764061567E+02 -0.23494655355E+02  0.23501295878E+03  0.23934442393E+03  0.10570000000E+00 0. -1.
<mgrwt>
<rscale>  0 0.90810294E+02</rscale>
<asrwt>0</asrwt>
<pdfrwt beam="2">  1        1 0.70750171E-03 0.90810294E+02</pdfrwt>
<pdfrwt beam="1">  1       -1 0.68969324E-01 0.90810294E+02</pdfrwt>
<totfact> 0.50689169E+04</totfact>
</mgrwt>
</event>
<event>
 5    1  0.2734570E+000  0.9252841E+02  0.7818608E-02  0.1296842E+00
          1   -1    0    0  501    0  0.00000000000E+00  0.00000000000E+00  0.23272388974E+02  0.23272389443E+02  0.46700000000E-02 0. -1.
         -1   -1    0    0    0  501 -0.00000000000E+00 -0.00000000000E+00 -0.91970652109E+02  0.91970652228E+02  0.46700000000E-02 0.  1.
         23    2    1    2    0    0  0.00000000000E+00  0.00000000000E+00 -0.68698263136E+02  0.11524304167E+03  0.92528413450E+02 0.  0.
        -13    1    3    3    0    0  0.11418714632E+01  0.44776648494E+02 -0.19925457680E+02  0.49023332782E+02  0.10570000000E+00 0.  1.
         13    1    3    3    0    0 -0.11418714632E+01 -0.44776648494E+02 -0.48772805455E+02  0.66219708889E+02  0.10570000000E+00 0. -1.
<mgrwt>
<rscale>  0 0.92528413E+02</rscale>
<asrwt>0</asrwt>
<pdfrwt beam="1">  1        1 0.35803676E-02 0.92528413E+02</pdfrwt>
<pdfrwt beam="2">  1       -1 0.14149331E-01 0.92528413E+02</pdfrwt>
<totfact> 0.79552982E+04</totfact>
</mgrwt>
</event>
<event>
 5    1  0.2734570E+000  0.8843450E+02  0.7818608E-02  0.1306688E+00
          1   -1    0    0  501    0  0.00000000000E+00  0.00000000000E+00  0.41440412284E+02  0.41440412547E+02  0.46700000000E-02 0. -1.
         -1   -1    0    0    0  501 -0.00000000000E+00 -0.00000000000E+00 -0.47180160490E+02  0.47180160721E+02  0.46700000000E-02 0.  1.
         23    2    1    2    0    0  0.00000000000E+00  0.00000000000E+00 -0.57397482059E+01  0.88620573268E+02  0.88434502865E+02 0.  0.
        -13    1    3    3    0    0  0.23334302754E+02  0.64505787444E+01  0.34208713695E+02  0.41908792828E+02  0.10570000000E+00 0.  1.
         13    1    3    3    0    0 -0.23334302754E+02 -0.64505787444E+01 -0.39948461901E+02  0.46711780440E+02  0.10570000000E+00 0. -1.
<mgrwt>
<rscale>  0 0.88434503E+02</rscale>
<asrwt>0</asrwt>
<pdfrwt beam="1">  1        1 0.63754481E-02 0.88434503E+02</pdfrwt>
<pdfrwt beam="2">  1       -1 0.72584863E-02 0.88434503E+02</pdfrwt>
<totfact> 0.99319290E+04</totfact>
</mgrwt>
</event>
<event>
 5    1  0.2734570E+000  0.8820474E+02  0.7818608E-02  0.1307258E+00
          1   -1    0    0  501    0  0.00000000000E+00  0.00000000000E+00  0.28918211720E+03  0.28918211724E+03  0.46700000000E-02 0. -1.
         -1   -1    0    0    0  501 -0.00000000000E+00 -0.00000000000E+00 -0.67259298342E+01  0.67259314554E+01  0.46700000000E-02 0.  1.
         23    2    1    2    0    0  0.00000000000E+00  0.00000000000E+00  0.28245618737E+03  0.29590804869E+03  0.88204736268E+02 0.  0.
        -13    1    3    3    0    0 -0.65510775707E+00  0.42258198704E+02  0.98949375266E+02  0.10759727953E+03  0.10570000000E+00 0.  1.
         13    1    3    3    0    0  0.65510775707E+00 -0.42258198704E+02  0.18350681210E+03  0.18831076917E+03  0.10570000000E+00 0. -1.
<mgrwt>
<rscale>  0 0.88204736E+02</rscale>
<asrwt>0</asrwt>
<pdfrwt beam="1">  1        1 0.44489552E-01 0.88204736E+02</pdfrwt>
<pdfrwt beam="2">  1       -1 0.10347587E-02 0.88204736E+02</pdfrwt>
<totfact> 0.13894716E+05</totfact>
</mgrwt>
</event>
<event>
 5    1  0.2734570E+000  0.8946711E+02  0.7818608E-02  0.1304147E+00
         -1   -1    0    0    0  501 -0.00000000000E+00  0.00000000000E+00  0.34811045855E+02  0.34811046168E+02  0.46700000000E-02 0.  1.
          1   -1    0    0  501    0  0.00000000000E+00 -0.00000000000E+00 -0.57484371256E+02  0.57484371445E+02  0.46700000000E-02 0. -1.
         23    2    1    2    0    0  0.00000000000E+00  0.00000000000E+00 -0.22673325401E+02  0.92295417614E+02  0.89467113666E+02 0.  0.
        -13    1    3    3    0    0 -0.17982767374E+02  0.73360144611E+01  0.30234681486E+02  0.35935277481E+02  0.10570000000E+00 0.  1.
         13    1    3    3    0    0  0.17982767374E+02 -0.73360144611E+01 -0.52908006886E+02  0.56360140133E+02  0.10570000000E+00 0. -1.
<mgrwt>
<rscale>  0 0.89467114E+02</rscale>
<asrwt>0</asrwt>
<pdfrwt beam="2">  1        1 0.88437494E-02 0.89467114E+02</pdfrwt>
<pdfrwt beam="1">  1       -1 0.53555456E-02 0.89467114E+02</pdfrwt>
<totfact> 0.10090870E+05</totfact>
</mgrwt>
</event>
<event>
 5    1  0.2734570E+000  0.9097565E+02  0.7818608E-02  0.1300506E+00
          1   -1    0    0  501    0  0.00000000000E+00  0.00000000000E+00  0.51532613300E+02  0.51532613512E+02  0.46700000000E-02 0. -1.
         -1   -1    0    0    0  501 -0.00000000000E+00 -0.00000000000E+00 -0.40152093716E+02  0.40152093987E+02  0.46700000000E-02 0.  1.
         23    2    1    2    0    0  0.00000000000E+00  0.00000000000E+00  0.11380519585E+02  0.91684707499E+02  0.90975652585E+02 0.  0.
        -13    1    3    3    0    0 -0.43743342967E+02  0.11815521698E+02  0.16534745221E+01  0.45341280942E+02  0.10570000000E+00 0. -1.
         13    1    3    3    0    0  0.43743342967E+02 -0.11815521698E+02  0.97270450625E+01  0.46343426558E+02  0.10570000000E+00 0.  1.
<mgrwt>
<rscale>  0 0.90975653E+02</rscale>
<asrwt>0</asrwt>
<pdfrwt beam="1">  1        1 0.79280944E-02 0.90975653E+02</pdfrwt>
<pdfrwt beam="2">  1       -1 0.61772452E-02 0.90975653E+02</pdfrwt>
<totfact> 0.94772592E+04</totfact>
</mgrwt>
</event>
<event>
 5    1  0.2734570E+000  0.9020547E+02  0.7818608E-02  0.1302355E+00
         -1   -1    0    0    0  501 -0.00000000000E+00  0.00000000000E+00  0.61567915092E+02  0.61567915269E+02  0.46700000000E-02 0.  1.
          1   -1    0    0  501    0  0.00000000000E+00 -0.00000000000E+00 -0.33040859510E+02  0.33040859840E+02  0.46700000000E-02 0. -1.
         23    2    1    2    0    0  0.00000000000E+00  0.00000000000E+00  0.28527055582E+02  0.94608775109E+02  0.90205473379E+02 0.  0.
        -13    1    3    3    0    0  0.47357751226E+00 -0.27925704925E+02 -0.22879546268E+02  0.36104765353E+02  0.10570000000E+00 0. -1.
         13    1    3    3    0    0 -0.47357751226E+00  0.27925704925E+02  0.51406601851E+02  0.58504009757E+02  0.10570000000E+00 0.  1.
<mgrwt>
<rscale>  0 0.90205473E+02</rscale>
<asrwt>0</asrwt>
<pdfrwt beam="2">  1        1 0.50832093E-02 0.90205473E+02</pdfrwt>
<pdfrwt beam="1">  1       -1 0.94719868E-02 0.90205473E+02</pdfrwt>
<totfact> 0.90755747E+04</totfact>
</mgrwt>
</event>
<event>
 5    1  0.2734570E+000  0.9192454E+02  0.7818608E-02  0.1298257E+00
         -1   -1    0    0    0  501 -0.00000000000E+00  0.00000000000E+00  0.14777296906E+02  0.14777297643E+02  0.46700000000E-02 0.  1.
          1   -1    0    0  501    0  0.00000000000E+00 -0.00000000000E+00 -0.14295781514E+03  0.14295781522E+03  0.46700000000E-02 0. -1.
         23    2    1    2    0    0  0.00000000000E+00  0.00000000000E+00 -0.12818051824E+03  0.15773511286E+03  0.91924537389E+02 0.  0.
        -13    1    3    3    0    0 -0.34810380977E+02  0.17073227963E+02 -0.10644467541E+03  0.11328608843E+03  0.10570000000E+00 0. -1.
         13    1    3    3    0    0  0.34810380977E+02 -0.17073227963E+02 -0.21735842828E+02  0.44449024430E+02  0.10570000000E+00 0.  1.
<mgrwt>
<rscale>  0 0.91924537E+02</rscale>
<asrwt>0</asrwt>
<pdfrwt beam="2">  1        1 0.21993509E-01 0.91924537E+02</pdfrwt>
<pdfrwt beam="1">  1       -1 0.22734305E-02 0.91924537E+02</pdfrwt>
<totfact> 0.10872288E+05</totfact>
</mgrwt>
</event>
<event>
 5    1  0.2734570E+000  0.9365883E+02  0.7818608E-02  0.1294226E+00
         -1   -1    0    0    0  501 -0.00000000000E+00  0.00000000000E+00  0.16796108079E+03  0.16796108086E+03  0.46700000000E-02 0.  1.
          1   -1    0    0  501    0  0.00000000000E+00 -0.00000000000E+00 -0.13056561263E+02  0.13056562098E+02  0.46700000000E-02 0. -1.
         23    2    1    2    0    0  0.00000000000E+00  0.00000000000E+00  0.15490451953E+03  0.18101764295E+03  0.93658832421E+02 0.  0.
        -13    1    3    3    0    0 -0.28577061695E+02  0.39442065941E+01  0.61561590013E+01  0.29497706468E+02  0.10570000000E+00 0. -1.
         13    1    3    3    0    0  0.28577061695E+02 -0.39442065941E+01  0.14874836053E+03  0.15151993649E+03  0.10570000000E+00 0.  1.
<mgrwt>
<rscale>  0 0.93658832E+02</rscale>
<asrwt>0</asrwt>
<pdfrwt beam="2">  1        1 0.20087019E-02 0.93658832E+02</pdfrwt>
<pdfrwt beam="1">  1       -1 0.25840165E-01 0.93658832E+02</pdfrwt>
<totfact> 0.67846476E+04</totfact>
</mgrwt>
</event>
<event>
 5    1  0.2734570E+000  0.9152720E+02  0.7818608E-02  0.1299195E+00
         -1   -1    0    0    0  501 -0.00000000000E+00  0.00000000000E+00  0.18647947602E+03  0.18647947608E+03  0.46700000000E-02 0.  1.
          1   -1    0    0  501    0  0.00000000000E+00 -0.00000000000E+00 -0.11230764578E+02  0.11230765548E+02  0.46700000000E-02 0. -1.
         23    2    1    2    0    0  0.00000000000E+00  0.00000000000E+00  0.17524871144E+03  0.19771024162E+03  0.91527202415E+02 0.  0.
        -13    1    3    3    0    0 -0.25222247882E+02 -0.37910223143E+02  0.97511317736E+02  0.10761884159E+03  0.10570000000E+00 0. -1.
         13    1    3    3    0    0  0.25222247882E+02  0.37910223143E+02  0.77737393704E+02  0.90091400030E+02  0.10570000000E+00 0.  1.
<mgrwt>
<rscale>  0 0.91527202E+02</rscale>
<asrwt>0</asrwt>
<pdfrwt beam="2">  1        1 0.17278102E-02 0.91527202E+02</pdfrwt>
<pdfrwt beam="1">  1       -1 0.28689148E-01 0.91527202E+02</pdfrwt>
<totfact> 0.70089527E+04</totfact>
</mgrwt>
</event>
<event>
 5    1  0.2734570E+000  0.8475568E+02  0.7818608E-02  0.1316073E+00
          1   -1    0    0  501    0  0.00000000000E+00  0.00000000000E+00  0.24207719714E+03  0.24207719718E+03  0.46700000000E-02 0. -1.
         -1   -1    0    0    0  501 -0.00000000000E+00 -0.00000000000E+00 -0.74186297301E+01  0.74186312000E+01  0.46700000000E-02 0.  1.
         23    2    1    2    0    0  0.00000000000E+00  0.00000000000E+00  0.23465856741E+03  0.24949582838E+03  0.84755678999E+02 0.  0.
        -13    1    3    3    0    0 -0.29181439326E+02 -0.30355013075E+02  0.10324652118E+03  0.11150263911E+03  0.10570000000E+00 0.  1.
         13    1    3    3    0    0  0.29181439326E+02  0.30355013075E+02  0.13141204622E+03  0.13799318927E+03  0.10570000000E+00 0. -1.
<mgrwt>
<rscale>  0 0.84755679E+02</rscale>
<asrwt>0</asrwt>
<pdfrwt beam="1">  1        1 0.37242645E-01 0.84755679E+02</pdfrwt>
<pdfrwt beam="2">  1       -1 0.11413278E-02 0.84755679E+02</pdfrwt>
<totfact> 0.14925766E+05</totfact>
</mgrwt>
</event>
<event>
 5    1  0.2734570E+000  0.9103747E+02  0.7818608E-02  0.1300359E+00
         -1   -1    0    0    0  501 -0.00000000000E+00  0.00000000000E+00  0.30834945227E+02  0.30834945580E+02  0.46700000000E-02 0.  1.
          1   -1    0    0  501    0  0.00000000000E+00 -0.00000000000E+00 -0.67195040924E+02  0.67195041087E+02  0.46700000000E-02 0. -1.
         23    2    1    2    0    0  0.00000000000E+00  0.00000000000E+00 -0.36360095698E+02  0.98029986667E+02  0.91037474299E+02 0.  0.
        -13    1    3    3    0    0 -0.23980896654E+02  0.11742936296E+02 -0.57875684119E+02  0.63738418100E+02  0.10570000000E+00 0. -1.
         13    1    3    3    0    0  0.23980896654E+02 -0.11742936296E+02  0.21515588422E+02  0.34291568567E+02  0.10570000000E+00 0.  1.
<mgrwt>
<rscale>  0 0.91037474E+02</rscale>
<asrwt>0</asrwt>
<pdfrwt beam="2">  1        1 0.10337699E-01 0.91037474E+02</pdfrwt>
<pdfrwt beam="1">  1       -1 0.47438378E-02 0.91037474E+02</pdfrwt>
<totfact> 0.98463548E+04</totfact>
</mgrwt>
</event>
<event>
 5    1  0.2734570E+000  0.8956135E+02  0.7818608E-02  0.1303917E+00
          1   -1    0    0  501    0  0.00000000000E+00  0.00000000000E+00  0.15361308772E+03  0.15361308779E+03  0.46700000000E-02 0. -1.
         -1   -1    0    0    0  501 -0.00000000000E+00 -0.00000000000E+00 -0.13054283469E+02  0.13054284304E+02  0.46700000000E-02 0.  1.
         23    2    1    2    0    0  0.00000000000E+00  0.00000000000E+00  0.14055880425E+03  0.16666737209E+03  0.89561350304E+02 0.  0.
        -13    1    3    3    0    0 -0.41449526828E+02  0.16604755094E+02  0.63964149174E+02  0.78007722169E+02  0.10570000000E+00 0.  1.
         13    1    3    3    0    0  0.41449526828E+02 -0.16604755094E+02  0.76594655073E+02  0.88659649921E+02  0.10570000000E+00 0. -1.
<mgrwt>
<rscale>  0 0.89561350E+02</rscale>
<asrwt>0</asrwt>
<pdfrwt beam="1">  1        1 0.23632783E-01 0.89561350E+02</pdfrwt>
<pdfrwt beam="2">  1       -1 0.20083513E-02 0.89561350E+02</pdfrwt>
<totfact> 0.11817767E+05</totfact>
</mgrwt>
</event>
<event>
 5    1  0.2734570E+000  0.9370447E+02  0.7818608E-02  0.1294121E+00
          1   -1    0    0  501    0  0.00000000000E+00  0.00000000000E+00  0.16720845091E+02  0.16720845744E+02  0.46700000000E-02 0. -1.
         -1   -1    0    0    0  501 -0.00000000000E+00 -0.00000000000E+00 -0.13128115491E+03  0.13128115499E+03  0.46700000000E-02 0.  1.
         23    2    1    2    0    0  0.00000000000E+00  0.00000000000E+00 -0.11456030982E+03  0.14800200074E+03  0.93704469671E+02 0.  0.
        -13    1    3    3    0    0  0.25770232281E+02  0.38850396413E+02 -0.49928887819E+02  0.68310783809E+02  0.10570000000E+00 0.  1.
         13    1    3    3    0    0 -0.25770232281E+02 -0.38850396413E+02 -0.64631422001E+02  0.79691216929E+02  0.10570000000E+00 0. -1.
<mgrwt>
<rscale>  0 0.93704470E+02</rscale>
<asrwt>0</asrwt>
<pdfrwt beam="1">  1        1 0.25724379E-02 0.93704470E+02</pdfrwt>
<pdfrwt beam="2">  1       -1 0.20197100E-01 0.93704470E+02</pdfrwt>
<totfact> 0.71786279E+04</totfact>
</mgrwt>
</event>
<event>
 5    1  0.2734570E+000  0.8908182E+02  0.7818608E-02  0.1305091E+00
          1   -1    0    0  501    0  0.00000000000E+00  0.00000000000E+00  0.57080870607E+02  0.57080870798E+02  0.46700000000E-02 0. -1.
         -1   -1    0    0    0  501 -0.00000000000E+00 -0.00000000000E+00 -0.34755820492E+02  0.34755820805E+02  0.46700000000E-02 0.  1.
         23    2    1    2    0    0  0.00000000000E+00  0.00000000000E+00  0.22325050115E+02  0.91836691603E+02  0.89081816674E+02 0.  0.
        -13    1    3    3    0    0 -0.18232767682E+02 -0.40618077215E+02  0.98506432358E+01  0.45599433753E+02  0.10570000000E+00 0. -1.
         13    1    3    3    0    0  0.18232767682E+02  0.40618077215E+02  0.12474406879E+02  0.46237257850E+02  0.10570000000E+00 0.  1.
<mgrwt>
<rscale>  0 0.89081817E+02</rscale>
<asrwt>0</asrwt>
<pdfrwt beam="1">  1        1 0.87816723E-02 0.89081817E+02</pdfrwt>
<pdfrwt beam="2">  1       -1 0.53470494E-02 0.89081817E+02</pdfrwt>
<totfact> 0.10201450E+05</totfact>
</mgrwt>
</event>
<event>
 5    1  0.2734570E+000  0.9433309E+02  0.7818608E-02  0.1292685E+00
         -1   -1    0    0    0  501 -0.00000000000E+00  0.00000000000E+00  0.30372584640E+03  0.30372584644E+03  0.46700000000E-02 0.  1.
          1   -1    0    0  501    0  0.00000000000E+00 -0.00000000000E+00 -0.73246408756E+01  0.73246423644E+01  0.46700000000E-02 0. -1.
         23    2    1    2    0    0  0.00000000000E+00  0.00000000000E+00  0.29640120552E+03  0.31105048880E+03  0.94333090411E+02 0.  0.
        -13    1    3    3    0    0  0.43927932247E+02  0.16113002700E+02  0.16781360428E+03  0.17421454888E+03  0.10570000000E+00 0. -1.
         13    1    3    3    0    0 -0.43927932247E+02 -0.16113002700E+02  0.12858760124E+03  0.13683593992E+03  0.10570000000E+00 0.  1.
<mgrwt>
<rscale>  0 0.94333090E+02</rscale>
<asrwt>0</asrwt>
<pdfrwt beam="2">  1        1 0.11268679E-02 0.94333090E+02</pdfrwt>
<pdfrwt beam="1">  1       -1 0.46727054E-01 0.94333090E+02</pdfrwt>
<totfact> 0.55148044E+04</totfact>
</mgrwt>
</event>
<event>
 5    1  0.2734570E+000  0.9188593E+02  0.7818608E-02  0.1298348E+00
         -1   -1    0    0    0  501 -0.00000000000E+00  0.00000000000E+00  0.92475104640E+01  0.92475116432E+01  0.46700000000E-02 0.  1.
          1   -1    0    0  501    0  0.00000000000E+00 -0.00000000000E+00 -0.22825125653E+03  0.22825125658E+03  0.46700000000E-02 0. -1.
         23    2    1    2    0    0  0.00000000000E+00  0.00000000000E+00 -0.21900374607E+03  0.23749876822E+03  0.91885929911E+02 0.  0.
        -13    1    3    3    0    0 -0.44833861173E+02  0.37213571317E+01 -0.13358569252E+03  0.14095769587E+03  0.10570000000E+00 0. -1.
         13    1    3    3    0    0  0.44833861173E+02 -0.37213571317E+01 -0.85418053545E+02  0.96541072349E+02  0.10570000000E+00 0.  1.
<mgrwt>
<rscale>  0 0.91885930E+02</rscale>
<asrwt>0</asrwt>
<pdfrwt beam="2">  1        1 0.35115574E-01 0.91885930E+02</pdfrwt>
<pdfrwt beam="1">  1       -1 0.14226942E-02 0.91885930E+02</pdfrwt>
<totfact> 0.11899835E+05</totfact>
</mgrwt>
</event>
<event>
 5    1  0.2734570E+000  0.9176140E+02  0.7818608E-02  0.1298641E+00
         -1   -1    0    0    0  501 -0.00000000000E+00  0.00000000000E+00  0.69581237298E+01  0.69581252969E+01  0.46700000000E-02 0.  1.
          1   -1    0    0  501    0  0.00000000000E+00 -0.00000000000E+00 -0.30252958114E+03  0.30252958118E+03  0.46700000000E-02 0. -1.
         23    2    1    2    0    0  0.00000000000E+00  0.00000000000E+00 -0.29557145741E+03  0.30948770648E+03  0.91761397234E+02 0.  0.
        -13    1    3    3    0    0 -0.43912703837E+02  0.85834857404E+01 -0.18201958711E+03  0.18743837134E+03  0.10570000000E+00 0. -1.
         13    1    3    3    0    0  0.43912703837E+02 -0.85834857404E+01 -0.11355187030E+03  0.12204933513E+03  0.10570000000E+00 0.  1.
<mgrwt>
<rscale>  0 0.91761397E+02</rscale>
<asrwt>0</asrwt>
<pdfrwt beam="2">  1        1 0.46543002E-01 0.91761397E+02</pdfrwt>
<pdfrwt beam="1">  1       -1 0.10704809E-02 0.91761397E+02</pdfrwt>
<totfact> 0.12615834E+05</totfact>
</mgrwt>
</event>
<event>
 5    1  0.2734570E+000  0.9126240E+02  0.7818608E-02  0.1299823E+00
          1   -1    0    0  501    0  0.00000000000E+00  0.00000000000E+00  0.80328793172E+02  0.80328793307E+02  0.46700000000E-02 0. -1.
         -1   -1    0    0    0  501 -0.00000000000E+00 -0.00000000000E+00 -0.25921045481E+02  0.25921045902E+02  0.46700000000E-02 0.  1.
         23    2    1    2    0    0  0.00000000000E+00  0.00000000000E+00  0.54407747690E+02  0.10624983921E+03  0.91262398189E+02 0.  0.
        -13    1    3    3    0    0  0.31245243610E+02 -0.18773198654E+02  0.59161693819E+02  0.69489678543E+02  0.10570000000E+00 0.  1.
         13    1    3    3    0    0 -0.31245243610E+02  0.18773198654E+02 -0.47539461285E+01  0.36760160667E+02  0.10570000000E+00 0. -1.
<mgrwt>
<rscale>  0 0.91262398E+02</rscale>
<asrwt>0</asrwt>
<pdfrwt beam="1">  1        1 0.12358275E-01 0.91262398E+02</pdfrwt>
<pdfrwt beam="2">  1       -1 0.39878534E-02 0.91262398E+02</pdfrwt>
<totfact> 0.10055000E+05</totfact>
</mgrwt>
</event>
<event>
 5    1  0.2734570E+000  0.9211300E+02  0.7818608E-02  0.1297814E+00
         -1   -1    0    0    0  501 -0.00000000000E+00  0.00000000000E+00  0.75179917322E+02  0.75179917467E+02  0.46700000000E-02 0.  1.
          1   -1    0    0  501    0  0.00000000000E+00 -0.00000000000E+00 -0.28214995397E+02  0.28214995784E+02  0.46700000000E-02 0. -1.
         23    2    1    2    0    0  0.00000000000E+00  0.00000000000E+00  0.46964921925E+02  0.10339491325E+03  0.92112996883E+02 0.  0.
        -13    1    3    3    0    0 -0.14815057168E+02 -0.42400772039E+02  0.34922857300E+02  0.56894011310E+02  0.10570000000E+00 0.  1.
         13    1    3    3    0    0  0.14815057168E+02  0.42400772039E+02  0.12042064624E+02  0.46500901941E+02  0.10570000000E+00 0. -1.
<mgrwt>
<rscale>  0 0.92112997E+02</rscale>
<asrwt>0</asrwt>
<pdfrwt beam="2">  1        1 0.43407686E-02 0.92112997E+02</pdfrwt>
<pdfrwt beam="1">  1       -1 0.11566141E-01 0.92112997E+02</pdfrwt>
<totfact> 0.83328725E+04</totfact>
</mgrwt>
</event>
<event>
 5    1  0.2734570E+000  0.1116850E+03  0.7818608E-02  0.1257481E+00
         -1   -1    0    0    0  501 -0.00000000000E+00  0.00000000000E+00  0.84498163393E+02  0.84498163522E+02  0.46700000000E-02 0.  1.
          1   -1    0    0  501    0  0.00000000000E+00 -0.00000000000E+00 -0.36904738886E+02  0.36904739182E+02  0.46700000000E-02 0. -1.
         23    2    1    2    0    0  0.00000000000E+00  0.00000000000E+00  0.47593424507E+02  0.12140290270E+03  0.11168496196E+03 0.  0.
        -13    1    3    3    0    0  0.12155857515E+02  0.18839009697E+02  0.79390747668E+02  0.82495909875E+02  0.10570000000E+00 0.  1.
         13    1    3    3    0    0 -0.12155857515E+02 -0.18839009697E+02 -0.31797323161E+02  0.38906992829E+02  0.10570000000E+00 0. -1.
<mgrwt>
<rscale>  0 0.11168496E+03</rscale>
<asrwt>0</asrwt>
<pdfrwt beam="2">  1        1 0.56776521E-02 0.11168496E+03</pdfrwt>
<pdfrwt beam="1">  1       -1 0.12999718E-01 0.11168496E+03</pdfrwt>
<totfact> 0.49798846E+04</totfact>
</mgrwt>
</event>
<event>
 5    1  0.2734570E+000  0.9055011E+02  0.7818608E-02  0.1301525E+00
         -1   -1    0    0    0  501 -0.00000000000E+00  0.00000000000E+00  0.81517627875E+01  0.81517641252E+01  0.46700000000E-02 0.  1.
          1   -1    0    0  501    0  0.00000000000E+00 -0.00000000000E+00 -0.25145855097E+03  0.25145855102E+03  0.46700000000E-02 0. -1.
         23    2    1    2    0    0  0.00000000000E+00  0.00000000000E+00 -0.24330678818E+03  0.25961031514E+03  0.90550110716E+02 0.  0.
        -13    1    3    3    0    0  0.14932255722E+02 -0.33768057698E+02 -0.19677657031E+03  0.20021059856E+03  0.10570000000E+00 0. -1.
         13    1    3    3    0    0 -0.14932255722E+02  0.33768057698E+02 -0.46530217880E+02  0.59399716582E+02  0.10570000000E+00 0.  1.
<mgrwt>
<rscale>  0 0.90550111E+02</rscale>
<asrwt>0</asrwt>
<pdfrwt beam="2">  1        1 0.38685925E-01 0.90550111E+02</pdfrwt>
<pdfrwt beam="1">  1       -1 0.12541177E-02 0.90550111E+02</pdfrwt>
<totfact> 0.12611072E+05</totfact>
</mgrwt>
</event>
<event>
 5    1  0.2734570E+000  0.9212791E+02  0.7818608E-02  0.1297779E+00
         -1   -1    0    0    0  501 -0.00000000000E+00  0.00000000000E+00  0.47007113444E+02  0.47007113676E+02  0.46700000000E-02 0.  1.
          1   -1    0    0  501    0  0.00000000000E+00 -0.00000000000E+00 -0.45139715716E+02  0.45139715957E+02  0.46700000000E-02 0. -1.
         23    2    1    2    0    0  0.00000000000E+00  0.00000000000E+00  0.18673977286E+01  0.92146829634E+02  0.92127905855E+02 0.  0.
        -13    1    3    3    0    0  0.24318728950E+01  0.22246982974E+02  0.41204039610E+02  0.46889511726E+02  0.10570000000E+00 0.  1.
         13    1    3    3    0    0 -0.24318728950E+01 -0.22246982974E+02 -0.39336641881E+02  0.45257317908E+02  0.10570000000E+00 0. -1.
<mgrwt>
<rscale>  0 0.92127906E+02</rscale>
<asrwt>0</asrwt>
<pdfrwt beam="2">  1        1 0.69445717E-02 0.92127906E+02</pdfrwt>
<pdfrwt beam="1">  1       -1 0.72318637E-02 0.92127906E+02</pdfrwt>
<totfact> 0.89678136E+04</totfact>
</mgrwt>
</event>
<event>
 5    1  0.2734570E+000  0.9188539E+02  0.7818608E-02  0.1298349E+00
         -1   -1    0    0    0  501 -0.00000000000E+00  0.00000000000E+00  0.48559034398E+02  0.48559034623E+02  0.46700000000E-02 0.  1.
          1   -1    0    0  501    0  0.00000000000E+00 -0.00000000000E+00 -0.43467325231E+02  0.43467325482E+02  0.46700000000E-02 0. -1.
         23    2    1    2    0    0  0.00000000000E+00  0.00000000000E+00  0.50917091672E+01  0.92026360104E+02  0.91885393027E+02 0.  0.
        -13    1    3    3    0    0  0.23107594447E+02 -0.38084732883E+02 -0.87102662037E+01  0.45390392262E+02  0.10570000000E+00 0. -1.
         13    1    3    3    0    0 -0.23107594447E+02  0.38084732883E+02  0.13801975371E+02  0.46635967842E+02  0.10570000000E+00 0.  1.
<mgrwt>
<rscale>  0 0.91885393E+02</rscale>
<asrwt>0</asrwt>
<pdfrwt beam="2">  1        1 0.66872808E-02 0.91885393E+02</pdfrwt>
<pdfrwt beam="1">  1       -1 0.74706207E-02 0.91885393E+02</pdfrwt>
<totfact> 0.89830338E+04</totfact>
</mgrwt>
</event>
<event>
 5    1  0.2734570E+000  0.8972484E+02  0.7818608E-02  0.1303519E+00
          1   -1    0    0  501    0  0.00000000000E+00  0.00000000000E+00  0.15165737846E+03  0.15165737853E+03  0.46700000000E-02 0. -1.
         -1   -1    0    0    0  501 -0.00000000000E+00 -0.00000000000E+00 -0.13270943398E+02  0.13270944219E+02  0.46700000000E-02 0.  1.
         23    2    1    2    0    0  0.00000000000E+00  0.00000000000E+00  0.13838643506E+03  0.16492832275E+03  0.89724836229E+02 0.  0.
        -13    1    3    3    0    0 -0.44641817277E+02 -0.24941515160E+01  0.62436210683E+02  0.76794558521E+02  0.10570000000E+00 0.  1.
         13    1    3    3    0    0  0.44641817277E+02  0.24941515160E+01  0.75950224378E+02  0.88133764229E+02  0.10570000000E+00 0. -1.
<mgrwt>
<rscale>  0 0.89724836E+02</rscale>
<asrwt>0</asrwt>
<pdfrwt beam="1">  1        1 0.23331904E-01 0.89724836E+02</pdfrwt>
<pdfrwt beam="2">  1       -1 0.20416837E-02 0.89724836E+02</pdfrwt>
<totfact> 0.11732326E+05</totfact>
</mgrwt>
</event>
<event>
 5    1  0.2734570E+000  0.9088523E+02  0.7818608E-02  0.1300722E+00
         -1   -1    0    0    0  501 -0.00000000000E+00  0.00000000000E+00  0.19906737118E+03  0.19906737124E+03  0.46700000000E-02 0.  1.
          1   -1    0    0  501    0  0.00000000000E+00 -0.00000000000E+00 -0.10373529301E+02  0.10373530352E+02  0.46700000000E-02 0. -1.
         23    2    1    2    0    0  0.00000000000E+00  0.00000000000E+00  0.18869384188E+03  0.20944090159E+03  0.90885231443E+02 0.  0.
        -13    1    3    3    0    0 -0.33188050116E+02 -0.93312790559E-01  0.22813558697E+02  0.40273130133E+02  0.10570000000E+00 0. -1.
         13    1    3    3    0    0  0.33188050116E+02  0.93312790559E-01  0.16588028319E+03  0.16916777146E+03  0.10570000000E+00 0.  1.
<mgrwt>
<rscale>  0 0.90885231E+02</rscale>
<asrwt>0</asrwt>
<pdfrwt beam="2">  1        1 0.15959278E-02 0.90885231E+02</pdfrwt>
<pdfrwt beam="1">  1       -1 0.30625748E-01 0.90885231E+02</pdfrwt>
<totfact> 0.70099868E+04</totfact>
</mgrwt>
</event>
<event>
 5    1  0.2734570E+000  0.9557083E+02  0.7818608E-02  0.1289896E+00
          1   -1    0    0  501    0  0.00000000000E+00  0.00000000000E+00  0.12885261672E+02  0.12885262518E+02  0.46700000000E-02 0. -1.
         -1   -1    0    0    0  501 -0.00000000000E+00 -0.00000000000E+00 -0.17721375518E+03  0.17721375524E+03  0.46700000000E-02 0.  1.
         23    2    1    2    0    0  0.00000000000E+00  0.00000000000E+00 -0.16432849351E+03  0.19009901776E+03  0.95570825959E+02 0.  0.
        -13    1    3    3    0    0  0.19774400006E+02 -0.43450806477E+02 -0.77975313832E+02  0.91428443160E+02  0.10570000000E+00 0. -1.
         13    1    3    3    0    0 -0.19774400006E+02  0.43450806477E+02 -0.86353179678E+02  0.98670574601E+02  0.10570000000E+00 0.  1.
<mgrwt>
<rscale>  0 0.95570826E+02</rscale>
<asrwt>0</asrwt>
<pdfrwt beam="1">  1        1 0.19823481E-02 0.95570826E+02</pdfrwt>
<pdfrwt beam="2">  1       -1 0.27263653E-01 0.95570826E+02</pdfrwt>
<totfact> 0.63478217E+04</totfact>
</mgrwt>
</event>
<event>
 5    1  0.2734570E+000  0.9185592E+02  0.7818608E-02  0.1298419E+00
          1   -1    0    0  501    0  0.00000000000E+00  0.00000000000E+00  0.30465065995E+02  0.30465066353E+02  0.46700000000E-02 0. -1.
         -1   -1    0    0    0  501 -0.00000000000E+00 -0.00000000000E+00 -0.69239222273E+02  0.69239222431E+02  0.46700000000E-02 0.  1.
         23    2    1    2    0    0  0.00000000000E+00  0.00000000000E+00 -0.38774156278E+02  0.99704288784E+02  0.91855919825E+02 0.  0.
        -13    1    3    3    0    0  0.36807859845E+02  0.20025591714E+02  0.10216438001E+01  0.41915364705E+02  0.10570000000E+00 0. -1.
         13    1    3    3    0    0 -0.36807859845E+02 -0.20025591714E+02 -0.39795800078E+02  0.57788924079E+02  0.10570000000E+00 0.  1.
<mgrwt>
<rscale>  0 0.91855920E+02</rscale>
<asrwt>0</asrwt>
<pdfrwt beam="1">  1        1 0.46869333E-02 0.91855920E+02</pdfrwt>
<pdfrwt beam="2">  1       -1 0.10652188E-01 0.91855920E+02</pdfrwt>
<totfact> 0.85066389E+04</totfact>
</mgrwt>
</event>
<event>
 5    1  0.2734570E+000  0.9306874E+02  0.7818608E-02  0.1295586E+00
          1   -1    0    0  501    0  0.00000000000E+00  0.00000000000E+00  0.11097719976E+02  0.11097720959E+02  0.46700000000E-02 0. -1.
         -1   -1    0    0    0  501 -0.00000000000E+00 -0.00000000000E+00 -0.19512543028E+03  0.19512543034E+03  0.46700000000E-02 0.  1.
         23    2    1    2    0    0  0.00000000000E+00  0.00000000000E+00 -0.18402771030E+03  0.20622315130E+03  0.93068737877E+02 0.  0.
        -13    1    3    3    0    0  0.35192474645E+02 -0.28821919163E+02 -0.70278181958E+02  0.83715275355E+02  0.10570000000E+00 0. -1.
         13    1    3    3    0    0 -0.35192474645E+02  0.28821919163E+02 -0.11374952835E+03  0.12250787594E+03  0.10570000000E+00 0.  1.
<mgrwt>
<rscale>  0 0.93068738E+02</rscale>
<asrwt>0</asrwt>
<pdfrwt beam="1">  1        1 0.17073418E-02 0.93068738E+02</pdfrwt>
<pdfrwt beam="2">  1       -1 0.30019295E-01 0.93068738E+02</pdfrwt>
<totfact> 0.66265459E+04</totfact>
</mgrwt>
</event>
<event>
 5    1  0.2734570E+000  0.9114759E+02  0.7818608E-02  0.1300096E+00
         -1   -1    0    0    0  501 -0.00000000000E+00  0.00000000000E+00  0.36808310372E+02  0.36808310668E+02  0.46700000000E-02 0.  1.
          1   -1    0    0  501    0  0.00000000000E+00 -0.00000000000E+00 -0.56426685258E+02  0.56426685452E+02  0.46700000000E-02 0. -1.
         23    2    1    2    0    0  0.00000000000E+00  0.00000000000E+00 -0.19618374886E+02  0.93234996120E+02  0.91147593870E+02 0.  0.
        -13    1    3    3    0    0 -0.12181563336E+02  0.11926457339E+02  0.33423722054E+02  0.37520490914E+02  0.10570000000E+00 0.  1.
         13    1    3    3    0    0  0.12181563336E+02 -0.11926457339E+02 -0.53042096941E+02  0.55714505206E+02  0.10570000000E+00 0. -1.
<mgrwt>
<rscale>  0 0.91147594E+02</rscale>
<asrwt>0</asrwt>
<pdfrwt beam="2">  1        1 0.86810286E-02 0.91147594E+02</pdfrwt>
<pdfrwt beam="1">  1       -1 0.56628170E-02 0.91147594E+02</pdfrwt>
<totfact> 0.95567586E+04</totfact>
</mgrwt>
</event>
<event>
 5    1  0.2734570E+000  0.9126502E+02  0.7818608E-02  0.1299817E+00
         -1   -1    0    0    0  501 -0.00000000000E+00  0.00000000000E+00  0.20024807954E+03  0.20024807960E+03  0.46700000000E-02 0.  1.
          1   -1    0    0  501    0  0.00000000000E+00 -0.00000000000E+00 -0.10398731244E+02  0.10398732293E+02  0.46700000000E-02 0. -1.
         23    2    1    2    0    0  0.00000000000E+00  0.00000000000E+00  0.18984934830E+03  0.21064681189E+03  0.91265022379E+02 0.  0.
        -13    1    3    3    0    0 -0.44387400352E+02 -0.27458662569E+00  0.11935088163E+03  0.12733797873E+03  0.10570000000E+00 0.  1.
         13    1    3    3    0    0  0.44387400352E+02  0.27458662569E+00  0.70498466670E+02  0.83308833164E+02  0.10570000000E+00 0. -1.
<mgrwt>
<rscale>  0 0.91265022E+02</rscale>
<asrwt>0</asrwt>
<pdfrwt beam="2">  1        1 0.15998049E-02 0.91265022E+02</pdfrwt>
<pdfrwt beam="1">  1       -1 0.30807397E-01 0.91265022E+02</pdfrwt>
<totfact> 0.69225224E+04</totfact>
</mgrwt>
</event>
<event>
 5    1  0.2734570E+000  0.8904708E+02  0.7818608E-02  0.1305176E+00
         -1   -1    0    0    0  501 -0.00000000000E+00  0.00000000000E+00  0.65213000415E+02  0.65213000582E+02  0.46700000000E-02 0.  1.
          1   -1    0    0  501    0  0.00000000000E+00 -0.00000000000E+00 -0.30398010173E+02  0.30398010532E+02  0.46700000000E-02 0. -1.
         23    2    1    2    0    0  0.00000000000E+00  0.00000000000E+00  0.34814990242E+02  0.95611011114E+02  0.89047076879E+02 0.  0.
        -13    1    3    3    0    0  0.25773021619E+00 -0.27856726422E+02  0.54699061675E+02  0.61384543270E+02  0.10570000000E+00 0.  1.
         13    1    3    3    0    0 -0.25773021619E+00  0.27856726422E+02 -0.19884071433E+02  0.34226467844E+02  0.10570000000E+00 0. -1.
<mgrwt>
<rscale>  0 0.89047077E+02</rscale>
<asrwt>0</asrwt>
<pdfrwt beam="2">  1        1 0.46766170E-02 0.89047077E+02</pdfrwt>
<pdfrwt beam="1">  1       -1 0.10032769E-01 0.89047077E+02</pdfrwt>
<totfact> 0.92943515E+04</totfact>
</mgrwt>
</event>
<event>
 5    1  0.2734570E+000  0.9130428E+02  0.7818608E-02  0.1299724E+00
         -1   -1    0    0    0  501 -0.00000000000E+00  0.00000000000E+00  0.11691020998E+02  0.11691021931E+02  0.46700000000E-02 0.  1.
          1   -1    0    0  501    0  0.00000000000E+00 -0.00000000000E+00 -0.17826652381E+03  0.17826652387E+03  0.46700000000E-02 0. -1.
         23    2    1    2    0    0  0.00000000000E+00  0.00000000000E+00 -0.16657550281E+03  0.18995754580E+03  0.91304277392E+02 0.  0.
        -13    1    3    3    0    0 -0.22859216874E+02 -0.22944434860E+02 -0.16351732935E+02  0.36281968381E+02  0.10570000000E+00 0.  1.
         13    1    3    3    0    0  0.22859216874E+02  0.22944434860E+02 -0.15022376987E+03  0.15367557742E+03  0.10570000000E+00 0. -1.
<mgrwt>
<rscale>  0 0.91304277E+02</rscale>
<asrwt>0</asrwt>
<pdfrwt beam="2">  1        1 0.27425617E-01 0.91304277E+02</pdfrwt>
<pdfrwt beam="1">  1       -1 0.17986188E-02 0.91304277E+02</pdfrwt>
<totfact> 0.11537743E+05</totfact>
</mgrwt>
</event>
<event>
 5    1  0.2734570E+000  0.9040441E+02  0.7818608E-02  0.1301875E+00
         -1   -1    0    0    0  501 -0.00000000000E+00  0.00000000000E+00  0.35546968930E+02  0.35546969237E+02  0.46700000000E-02 0.  1.
          1   -1    0    0  501    0  0.00000000000E+00 -0.00000000000E+00 -0.57479988186E+02  0.57479988376E+02  0.46700000000E-02 0. -1.
         23    2    1    2    0    0  0.00000000000E+00  0.00000000000E+00 -0.21933019256E+02  0.93026957613E+02  0.90404410893E+02 0.  0.
        -13    1    3    3    0    0  0.96982523696E+01 -0.21225789258E+02  0.28868741938E+02  0.37121498653E+02  0.10570000000E+00 0.  1.
         13    1    3    3    0    0 -0.96982523696E+01  0.21225789258E+02 -0.50801761194E+02  0.55905458960E+02  0.10570000000E+00 0. -1.
<mgrwt>
<rscale>  0 0.90404411E+02</rscale>
<asrwt>0</asrwt>
<pdfrwt beam="2">  1        1 0.88430752E-02 0.90404411E+02</pdfrwt>
<pdfrwt beam="1">  1       -1 0.54687645E-02 0.90404411E+02</pdfrwt>
<totfact> 0.98036083E+04</totfact>
</mgrwt>
</event>
<event>
 5    1  0.2734570E+000  0.8335816E+02  0.7818608E-02  0.1319783E+00
          1   -1    0    0  501    0  0.00000000000E+00  0.00000000000E+00  0.29103055492E+02  0.29103055866E+02  0.46700000000E-02 0. -1.
         -1   -1    0    0    0  501 -0.00000000000E+00 -0.00000000000E+00 -0.59689457968E+02  0.59689458151E+02  0.46700000000E-02 0.  1.
         23    2    1    2    0    0  0.00000000000E+00  0.00000000000E+00 -0.30586402476E+02  0.88792514017E+02  0.83358158143E+02 0.  0.
        -13    1    3    3    0    0  0.17497259227E+02  0.36646300944E+02 -0.25287242601E+02  0.47838909521E+02  0.10570000000E+00 0. -1.
         13    1    3    3    0    0 -0.17497259227E+02 -0.36646300944E+02 -0.52991598754E+01  0.40953604496E+02  0.10570000000E+00 0.  1.
<mgrwt>
<rscale>  0 0.83358158E+02</rscale>
<asrwt>0</asrwt>
<pdfrwt beam="1">  1        1 0.44773932E-02 0.83358158E+02</pdfrwt>
<pdfrwt beam="2">  1       -1 0.91829935E-02 0.83358158E+02</pdfrwt>
<totfact> 0.11136929E+05</totfact>
</mgrwt>
</event>
<event>
 5    1  0.2734570E+000  0.9203300E+02  0.7818608E-02  0.1298002E+00
          1   -1    0    0  501    0  0.00000000000E+00  0.00000000000E+00  0.16068180561E+03  0.16068180567E+03  0.46700000000E-02 0. -1.
         -1   -1    0    0    0  501 -0.00000000000E+00 -0.00000000000E+00 -0.13178333363E+02  0.13178334190E+02  0.46700000000E-02 0.  1.
         23    2    1    2    0    0  0.00000000000E+00  0.00000000000E+00  0.14750347224E+03  0.17386013986E+03  0.92033004460E+02 0.  0.
        -13    1    3    3    0    0  0.73579530144E+01 -0.32889289188E+02  0.13294026187E+03  0.13714579546E+03  0.10570000000E+00 0. -1.
         13    1    3    3    0    0 -0.73579530144E+01  0.32889289188E+02  0.14563210378E+02  0.36714344402E+02  0.10570000000E+00 0.  1.
<mgrwt>
<rscale>  0 0.92033004E+02</rscale>
<asrwt>0</asrwt>
<pdfrwt beam="1">  1        1 0.24720278E-01 0.92033004E+02</pdfrwt>
<pdfrwt beam="2">  1       -1 0.20274360E-02 0.92033004E+02</pdfrwt>
<totfact> 0.11074274E+05</totfact>
</mgrwt>
</event>
<event>
 5    1  0.2734570E+000  0.9042486E+02  0.7818608E-02  0.1301826E+00
         -1   -1    0    0    0  501 -0.00000000000E+00  0.00000000000E+00  0.69554735035E+02  0.69554735192E+02  0.46700000000E-02 0.  1.
          1   -1    0    0  501    0  0.00000000000E+00 -0.00000000000E+00 -0.29389282741E+02  0.29389283112E+02  0.46700000000E-02 0. -1.
         23    2    1    2    0    0  0.00000000000E+00  0.00000000000E+00  0.40165452295E+02  0.98944018304E+02  0.90424859414E+02 0.  0.
        -13    1    3    3    0    0 -0.36843443421E+02  0.75630239802E+00  0.48744857748E+02  0.61107148893E+02  0.10570000000E+00 0.  1.
         13    1    3    3    0    0  0.36843443421E+02 -0.75630239802E+00 -0.85794054535E+01  0.37836869411E+02  0.10570000000E+00 0. -1.
<mgrwt>
<rscale>  0 0.90424859E+02</rscale>
<asrwt>0</asrwt>
<pdfrwt beam="2">  1        1 0.45214282E-02 0.90424859E+02</pdfrwt>
<pdfrwt beam="1">  1       -1 0.10700728E-01 0.90424859E+02</pdfrwt>
<totfact> 0.88475212E+04</totfact>
</mgrwt>
</event>
<event>
 5    1  0.2734570E+000  0.9510372E+02  0.7818608E-02  0.1290943E+00
         -1   -1    0    0    0  501 -0.00000000000E+00  0.00000000000E+00  0.80531191139E+02  0.80531191274E+02  0.46700000000E-02 0.  1.
          1   -1    0    0  501    0  0.00000000000E+00 -0.00000000000E+00 -0.28078305245E+02  0.28078305634E+02  0.46700000000E-02 0. -1.
         23    2    1    2    0    0  0.00000000000E+00  0.00000000000E+00  0.52452885893E+02  0.10860949691E+03  0.95103720117E+02 0.  0.
        -13    1    3    3    0    0 -0.26495474572E+02  0.11508268859E+02  0.69362389868E+02  0.75137225964E+02  0.10570000000E+00 0.  1.
         13    1    3    3    0    0  0.26495474572E+02 -0.11508268859E+02 -0.16909503975E+02  0.33472270943E+02  0.10570000000E+00 0. -1.
<mgrwt>
<rscale>  0 0.95103720E+02</rscale>
<asrwt>0</asrwt>
<pdfrwt beam="2">  1        1 0.43197394E-02 0.95103720E+02</pdfrwt>
<pdfrwt beam="1">  1       -1 0.12389414E-01 0.95103720E+02</pdfrwt>
<totfact> 0.75891544E+04</totfact>
</mgrwt>
</event>
<event>
 5    1  0.2734570E+000  0.8963451E+02  0.7818608E-02  0.1303739E+00
          1   -1    0    0  501    0  0.00000000000E+00  0.00000000000E+00  0.26156172496E+02  0.26156172913E+02  0.46700000000E-02 0. -1.
         -1   -1    0    0    0  501 -0.00000000000E+00 -0.00000000000E+00 -0.76792052122E+02  0.76792052264E+02  0.46700000000E-02 0.  1.
         23    2    1    2    0    0  0.00000000000E+00  0.00000000000E+00 -0.50635879625E+02  0.10294822518E+03  0.89634506534E+02 0.  0.
        -13    1    3    3    0    0  0.44762449011E+02 -0.64666428868E+00 -0.27748927295E+02  0.52669812556E+02  0.10570000000E+00 0.  1.
         13    1    3    3    0    0 -0.44762449011E+02  0.64666428868E+00 -0.22886952331E+02  0.50278412621E+02  0.10570000000E+00 0. -1.
<mgrwt>
<rscale>  0 0.89634507E+02</rscale>
<asrwt>0</asrwt>
<pdfrwt beam="1">  1        1 0.40240266E-02 0.89634507E+02</pdfrwt>
<pdfrwt beam="2">  1       -1 0.11814162E-01 0.89634507E+02</pdfrwt>
<totfact> 0.89030144E+04</totfact>
</mgrwt>
</event>
<event>
 5    1  0.2734570E+000  0.8951114E+02  0.7818608E-02  0.1304040E+00
         -1   -1    0    0    0  501 -0.00000000000E+00  0.00000000000E+00  0.14694449456E+02  0.14694450198E+02  0.46700000000E-02 0.  1.
          1   -1    0    0  501    0  0.00000000000E+00 -0.00000000000E+00 -0.13631413220E+03  0.13631413228E+03  0.46700000000E-02 0. -1.
         23    2    1    2    0    0  0.00000000000E+00  0.00000000000E+00 -0.12161968274E+03  0.15100858248E+03  0.89511143167E+02 0.  0.
        -13    1    3    3    0    0  0.41932311872E+02  0.48772807694E+01 -0.35733451530E+02  0.55308203527E+02  0.10570000000E+00 0.  1.
         13    1    3    3    0    0 -0.41932311872E+02 -0.48772807694E+01 -0.85886231211E+02  0.95700378948E+02  0.10570000000E+00 0. -1.
<mgrwt>
<rscale>  0 0.89511143E+02</rscale>
<asrwt>0</asrwt>
<pdfrwt beam="2">  1        1 0.20971404E-01 0.89511143E+02</pdfrwt>
<pdfrwt beam="1">  1       -1 0.22606847E-02 0.89511143E+02</pdfrwt>
<totfact> 0.11582019E+05</totfact>
</mgrwt>
</event>
<event>
 5    1  0.2734570E+000  0.9194163E+02  0.7818608E-02  0.1298217E+00
         -1   -1    0    0    0  501 -0.00000000000E+00  0.00000000000E+00  0.37814646808E+02  0.37814647096E+02  0.46700000000E-02 0.  1.
          1   -1    0    0  501    0  0.00000000000E+00 -0.00000000000E+00 -0.55886173497E+02  0.55886173692E+02  0.46700000000E-02 0. -1.
         23    2    1    2    0    0  0.00000000000E+00  0.00000000000E+00 -0.18071526689E+02  0.93700820788E+02  0.91941632243E+02 0.  0.
        -13    1    3    3    0    0 -0.26967459114E+02 -0.28943173818E+02 -0.32900768660E+02  0.51453113731E+02  0.10570000000E+00 0. -1.
         13    1    3    3    0    0  0.26967459114E+02  0.28943173818E+02  0.14829241971E+02  0.42247707057E+02  0.10570000000E+00 0.  1.
<mgrwt>
<rscale>  0 0.91941632E+02</rscale>
<asrwt>0</asrwt>
<pdfrwt beam="2">  1        1 0.85978729E-02 0.91941632E+02</pdfrwt>
<pdfrwt beam="1">  1       -1 0.58176380E-02 0.91941632E+02</pdfrwt>
<totfact> 0.93150722E+04</totfact>
</mgrwt>
</event>
<event>
 5    1  0.2734570E+000  0.9170277E+02  0.7818608E-02  0.1298780E+00
         -1   -1    0    0    0  501 -0.00000000000E+00  0.00000000000E+00  0.60531319749E+02  0.60531319929E+02  0.46700000000E-02 0.  1.
          1   -1    0    0  501    0  0.00000000000E+00 -0.00000000000E+00 -0.34731599414E+02  0.34731599728E+02  0.46700000000E-02 0. -1.
         23    2    1    2    0    0  0.00000000000E+00  0.00000000000E+00  0.25799720336E+02  0.95262919657E+02  0.91702771453E+02 0.  0.
        -13    1    3    3    0    0  0.13338715008E+02 -0.15658711202E+02  0.55469057801E+02  0.59160325391E+02  0.10570000000E+00 0.  1.
         13    1    3    3    0    0 -0.13338715008E+02  0.15658711202E+02 -0.29669337466E+02  0.36102594265E+02  0.10570000000E+00 0. -1.
<mgrwt>
<rscale>  0 0.91702771E+02</rscale>
<asrwt>0</asrwt>
<pdfrwt beam="2">  1        1 0.53433230E-02 0.91702771E+02</pdfrwt>
<pdfrwt beam="1">  1       -1 0.93125108E-02 0.91702771E+02</pdfrwt>
<totfact> 0.87274862E+04</totfact>
</mgrwt>
</event>
<event>
 5    1  0.2734570E+000  0.9189836E+02  0.7818608E-02  0.1298319E+00
         -1   -1    0    0    0  501 -0.00000000000E+00  0.00000000000E+00  0.79302408748E+02  0.79302408885E+02  0.46700000000E-02 0.  1.
          1   -1    0    0  501    0  0.00000000000E+00 -0.00000000000E+00 -0.26623742835E+02  0.26623743245E+02  0.46700000000E-02 0. -1.
         23    2    1    2    0    0  0.00000000000E+00  0.00000000000E+00  0.52678665912E+02  0.10592615213E+03  0.91898356148E+02 0.  0.
        -13    1    3    3    0    0  0.41135803842E+02 -0.13895587956E+02  0.43670221559E+02  0.61581987187E+02  0.10570000000E+00 0.  1.
         13    1    3    3    0    0 -0.41135803842E+02  0.13895587956E+02  0.90084443537E+01  0.44344164944E+02  0.10570000000E+00 0. -1.
<mgrwt>
<rscale>  0 0.91898356E+02</rscale>
<asrwt>0</asrwt>
<pdfrwt beam="2">  1        1 0.40959604E-02 0.91898356E+02</pdfrwt>
<pdfrwt beam="1">  1       -1 0.12200371E-01 0.91898356E+02</pdfrwt>
<totfact> 0.83081008E+04</totfact>
</mgrwt>
</event>
<event>
 5    1  0.2734570E+000  0.9177174E+02  0.7818608E-02  0.1298617E+00
          1   -1    0    0  501    0  0.00000000000E+00  0.00000000000E+00  0.16755836951E+02  0.16755837602E+02  0.46700000000E-02 0. -1.
         -1   -1    0    0    0  501 -0.00000000000E+00 -0.00000000000E+00 -0.12565847193E+03  0.12565847201E+03  0.46700000000E-02 0.  1.
         23    2    1    2    0    0  0.00000000000E+00  0.00000000000E+00 -0.10890263498E+03  0.14241430962E+03  0.91771736818E+02 0.  0.
        -13    1    3    3    0    0 -0.22491276990E+02 -0.32890494393E+02 -0.19137010551E+02  0.44202697965E+02  0.10570000000E+00 0. -1.
         13    1    3    3    0    0  0.22491276990E+02  0.32890494393E+02 -0.89765624424E+02  0.98211611650E+02  0.10570000000E+00 0.  1.
<mgrwt>
<rscale>  0 0.91771737E+02</rscale>
<asrwt>0</asrwt>
<pdfrwt beam="1">  1        1 0.25778212E-02 0.91771737E+02</pdfrwt>
<pdfrwt beam="2">  1       -1 0.19332072E-01 0.91771737E+02</pdfrwt>
<totfact> 0.76484383E+04</totfact>
</mgrwt>
</event>
<event>
 5    1  0.2734570E+000  0.9200036E+02  0.7818608E-02  0.1298079E+00
          1   -1    0    0  501    0  0.00000000000E+00  0.00000000000E+00  0.76186711782E+02  0.76186711925E+02  0.46700000000E-02 0. -1.
         -1   -1    0    0    0  501 -0.00000000000E+00 -0.00000000000E+00 -0.27774087431E+02  0.27774087823E+02  0.46700000000E-02 0.  1.
         23    2    1    2    0    0  0.00000000000E+00  0.00000000000E+00  0.48412624351E+02  0.10396079975E+03  0.92000356998E+02 0.  0.
        -13    1    3    3    0    0  0.40427011211E+02  0.19675809181E+02  0.13219988204E+02  0.46864271711E+02  0.10570000000E+00 0.  1.
         13    1    3    3    0    0 -0.40427011211E+02 -0.19675809181E+02  0.35192636147E+02  0.57096528037E+02  0.10570000000E+00 0. -1.
<mgrwt>
<rscale>  0 0.92000357E+02</rscale>
<asrwt>0</asrwt>
<pdfrwt beam="1">  1        1 0.11721033E-01 0.92000357E+02</pdfrwt>
<pdfrwt beam="2">  1       -1 0.42729366E-02 0.92000357E+02</pdfrwt>
<totfact> 0.97529041E+04</totfact>
</mgrwt>
</event>
<event>
 5    1  0.2734570E+000  0.1023841E+03  0.7818608E-02  0.1275361E+00
         -1   -1    0    0    0  501 -0.00000000000E+00  0.00000000000E+00  0.26280630728E+03  0.26280630732E+03  0.46700000000E-02 0.  1.
          1   -1    0    0  501    0  0.00000000000E+00 -0.00000000000E+00 -0.99717090017E+01  0.99717100952E+01  0.46700000000E-02 0. -1.
         23    2    1    2    0    0  0.00000000000E+00  0.00000000000E+00  0.25283459828E+03  0.27277801742E+03  0.10238414281E+03 0.  0.
        -13    1    3    3    0    0  0.11284154257E+02  0.46439600167E+02  0.17530109797E+03  0.18169880220E+03  0.10570000000E+00 0.  1.
         13    1    3    3    0    0 -0.11284154257E+02 -0.46439600167E+02  0.77533500312E+02  0.91079215215E+02  0.10570000000E+00 0. -1.
<mgrwt>
<rscale>  0 0.10238414E+03</rscale>
<asrwt>0</asrwt>
<pdfrwt beam="2">  1        1 0.15341090E-02 0.10238414E+03</pdfrwt>
<pdfrwt beam="1">  1       -1 0.40431743E-01 0.10238414E+03</pdfrwt>
<totfact> 0.46963741E+04</totfact>
</mgrwt>
</event>
<event>
 5    1  0.2734570E+000  0.9101557E+02  0.7818608E-02  0.1300411E+00
         -1   -1    0    0    0  501 -0.00000000000E+00  0.00000000000E+00  0.16240309453E+03  0.16240309460E+03  0.46700000000E-02 0. -1.
          1   -1    0    0  501    0  0.00000000000E+00 -0.00000000000E+00 -0.12751965381E+02  0.12751966236E+02  0.46700000000E-02 0.  1.
         23    2    1    2    0    0  0.00000000000E+00  0.00000000000E+00  0.14965112915E+03  0.17515506084E+03  0.91015574930E+02 0.  0.
        -13    1    3    3    0    0 -0.50689348808E+01 -0.43210358871E+02  0.49141646015E+02  0.65633389065E+02  0.10570000000E+00 0.  1.
         13    1    3    3    0    0  0.50689348808E+01  0.43210358871E+02  0.10050948314E+03  0.10952167177E+03  0.10570000000E+00 0. -1.
<mgrwt>
<rscale>  0 0.91015575E+02</rscale>
<asrwt>0</asrwt>
<pdfrwt beam="2">  1        1 0.19618411E-02 0.91015575E+02</pdfrwt>
<pdfrwt beam="1">  1       -1 0.24985089E-01 0.91015575E+02</pdfrwt>
<totfact> 0.73712690E+04</totfact>
</mgrwt>
</event>
<event>
 5    1  0.2734570E+000  0.9176528E+02  0.7818608E-02  0.1298632E+00
         -1   -1    0    0    0  501 -0.00000000000E+00  0.00000000000E+00  0.29936182627E+03  0.29936182631E+03  0.46700000000E-02 0.  1.
          1   -1    0    0  501    0  0.00000000000E+00 -0.00000000000E+00 -0.70323470764E+01  0.70323486270E+01  0.46700000000E-02 0. -1.
         23    2    1    2    0    0  0.00000000000E+00  0.00000000000E+00  0.29232947919E+03  0.30639417493E+03  0.91765276807E+02 0.  0.
        -13    1    3    3    0    0  0.36387794807E+02 -0.26464201819E+02  0.11615561230E+03  0.12456549695E+03  0.10570000000E+00 0.  1.
         13    1    3    3    0    0 -0.36387794807E+02  0.26464201819E+02  0.17617386690E+03  0.18182867799E+03  0.10570000000E+00 0. -1.
<mgrwt>
<rscale>  0 0.91765277E+02</rscale>
<asrwt>0</asrwt>
<pdfrwt beam="2">  1        1 0.10818999E-02 0.91765277E+02</pdfrwt>
<pdfrwt beam="1">  1       -1 0.46055657E-01 0.91765277E+02</pdfrwt>
<totfact> 0.59624620E+04</totfact>
</mgrwt>
</event>
<event>
 5    1  0.2734570E+000  0.9418246E+02  0.7818608E-02  0.1293028E+00
         -1   -1    0    0    0  501 -0.00000000000E+00  0.00000000000E+00  0.19796826411E+03  0.19796826417E+03  0.46700000000E-02 0.  1.
          1   -1    0    0  501    0  0.00000000000E+00 -0.00000000000E+00 -0.11201714622E+02  0.11201715596E+02  0.46700000000E-02 0. -1.
         23    2    1    2    0    0  0.00000000000E+00  0.00000000000E+00  0.18676654949E+03  0.20916997976E+03  0.94182463472E+02 0.  0.
        -13    1    3    3    0    0 -0.87858196915E+00 -0.41354822840E+02  0.14336982674E+03  0.14921766541E+03  0.10570000000E+00 0.  1.
         13    1    3    3    0    0  0.87858196915E+00  0.41354822840E+02  0.43396722751E+02  0.59952314354E+02  0.10570000000E+00 0. -1.
<mgrwt>
<rscale>  0 0.94182463E+02</rscale>
<asrwt>0</asrwt>
<pdfrwt beam="2">  1        1 0.17233408E-02 0.94182463E+02</pdfrwt>
<pdfrwt beam="1">  1       -1 0.30456655E-01 0.94182463E+02</pdfrwt>
<totfact> 0.63976494E+04</totfact>
</mgrwt>
</event>
<event>
 5    1  0.2734570E+000  0.9290600E+02  0.7818608E-02  0.1295963E+00
         -1   -1    0    0    0  501 -0.00000000000E+00  0.00000000000E+00  0.87471220868E+02  0.87471220993E+02  0.46700000000E-02 0.  1.
          1   -1    0    0  501    0  0.00000000000E+00 -0.00000000000E+00 -0.24669611212E+02  0.24669611654E+02  0.46700000000E-02 0. -1.
         23    2    1    2    0    0  0.00000000000E+00  0.00000000000E+00  0.62801609657E+02  0.11214083265E+03  0.92905996422E+02 0.  0.
        -13    1    3    3    0    0  0.14220413740E+02 -0.24898490114E+02  0.75514853206E+02  0.80775362606E+02  0.10570000000E+00 0.  1.
         13    1    3    3    0    0 -0.14220413740E+02  0.24898490114E+02 -0.12713243549E+02  0.31365470041E+02  0.10570000000E+00 0. -1.
<mgrwt>
<rscale>  0 0.92905996E+02</rscale>
<asrwt>0</asrwt>
<pdfrwt beam="2">  1        1 0.37953249E-02 0.92905996E+02</pdfrwt>
<pdfrwt beam="1">  1       -1 0.13457111E-01 0.92905996E+02</pdfrwt>
<totfact> 0.79431391E+04</totfact>
</mgrwt>
</event>
<event>
 5    1  0.2734570E+000  0.9674115E+02  0.7818608E-02  0.1287302E+00
         -1   -1    0    0    0  501 -0.00000000000E+00  0.00000000000E+00  0.29634694976E+02  0.29634695344E+02  0.46700000000E-02 0.  1.
          1   -1    0    0  501    0  0.00000000000E+00 -0.00000000000E+00 -0.78951805222E+02  0.78951805360E+02  0.46700000000E-02 0. -1.
         23    2    1    2    0    0  0.00000000000E+00  0.00000000000E+00 -0.49317110246E+02  0.10858650070E+03  0.96741153457E+02 0.  0.
        -13    1    3    3    0    0 -0.35810221192E+02  0.17220558459E+02 -0.55618107670E+02  0.68354258454E+02  0.10570000000E+00 0. -1.
         13    1    3    3    0    0  0.35810221192E+02 -0.17220558459E+02  0.63009974244E+01  0.40232242251E+02  0.10570000000E+00 0.  1.
<mgrwt>
<rscale>  0 0.96741153E+02</rscale>
<asrwt>0</asrwt>
<pdfrwt beam="2">  1        1 0.12146432E-01 0.96741153E+02</pdfrwt>
<pdfrwt beam="1">  1       -1 0.45591839E-02 0.96741153E+02</pdfrwt>
<totfact> 0.85372025E+04</totfact>
</mgrwt>
</event>
<event>
 5    1  0.2734570E+000  0.9110527E+02  0.7818608E-02  0.1300197E+00
         -1   -1    0    0    0  501 -0.00000000000E+00  0.00000000000E+00  0.17059653844E+02  0.17059654483E+02  0.46700000000E-02 0.  1.
          1   -1    0    0  501    0  0.00000000000E+00 -0.00000000000E+00 -0.12163450140E+03  0.12163450149E+03  0.46700000000E-02 0. -1.
         23    2    1    2    0    0  0.00000000000E+00  0.00000000000E+00 -0.10457484756E+03  0.13869415598E+03  0.91105269661E+02 0.  0.
        -13    1    3    3    0    0 -0.13397264235E+02 -0.39411003244E+02 -0.80453685868E+02  0.90584328711E+02  0.10570000000E+00 0. -1.
         13    1    3    3    0    0  0.13397264235E+02  0.39411003244E+02 -0.24121161691E+02  0.48109827266E+02  0.10570000000E+00 0.  1.
<mgrwt>
<rscale>  0 0.91105270E+02</rscale>
<asrwt>0</asrwt>
<pdfrwt beam="2">  1        1 0.18713000E-01 0.91105270E+02</pdfrwt>
<pdfrwt beam="1">  1       -1 0.26245623E-02 0.91105270E+02</pdfrwt>
<totfact> 0.10822311E+05</totfact>
</mgrwt>
</event>
<event>
 5    1  0.2734570E+000  0.9278989E+02  0.7818608E-02  0.1296233E+00
          1   -1    0    0  501    0  0.00000000000E+00  0.00000000000E+00  0.12970530694E+03  0.12970530702E+03  0.46700000000E-02 0. -1.
         -1   -1    0    0    0  501 -0.00000000000E+00 -0.00000000000E+00 -0.16595241368E+02  0.16595242025E+02  0.46700000000E-02 0.  1.
         23    2    1    2    0    0  0.00000000000E+00  0.00000000000E+00  0.11311006557E+03  0.14630054905E+03  0.92789890174E+02 0.  0.
        -13    1    3    3    0    0 -0.42096604573E+02  0.10359336411E+02  0.30502001220E+02  0.53007765642E+02  0.10570000000E+00 0.  1.
         13    1    3    3    0    0  0.42096604573E+02 -0.10359336411E+02  0.82608064352E+02  0.93292783407E+02  0.10570000000E+00 0. -1.
<mgrwt>
<rscale>  0 0.92789890E+02</rscale>
<asrwt>0</asrwt>
<pdfrwt beam="1">  1        1 0.19954663E-01 0.92789890E+02</pdfrwt>
<pdfrwt beam="2">  1       -1 0.25531140E-02 0.92789890E+02</pdfrwt>
<totfact> 0.10414985E+05</totfact>
</mgrwt>
</event>
<event>
 5    1  0.2734570E+000  0.9399773E+02  0.7818608E-02  0.1293450E+00
          1   -1    0    0  501    0  0.00000000000E+00  0.00000000000E+00  0.15541528545E+03  0.15541528552E+03  0.46700000000E-02 0. -1.
         -1   -1    0    0    0  501 -0.00000000000E+00 -0.00000000000E+00 -0.14212844128E+02  0.14212844895E+02  0.46700000000E-02 0.  1.
         23    2    1    2    0    0  0.00000000000E+00  0.00000000000E+00  0.14120244132E+03  0.16962813042E+03  0.93997729723E+02 0.  0.
        -13    1    3    3    0    0 -0.17332015801E+02  0.41158099723E+02  0.44171761949E+02  0.62813562792E+02  0.10570000000E+00 0.  1.
         13    1    3    3    0    0  0.17332015801E+02 -0.41158099723E+02  0.97030679374E+02  0.10681456762E+03  0.10570000000E+00 0. -1.
<mgrwt>
<rscale>  0 0.93997730E+02</rscale>
<asrwt>0</asrwt>
<pdfrwt beam="1">  1        1 0.23910045E-01 0.93997730E+02</pdfrwt>
<pdfrwt beam="2">  1       -1 0.21865914E-02 0.93997730E+02</pdfrwt>
<totfact> 0.10394694E+05</totfact>
</mgrwt>
</event>
<event>
 5    1  0.2734570E+000  0.9233393E+02  0.7818608E-02  0.1297296E+00
         -1   -1    0    0    0  501 -0.00000000000E+00  0.00000000000E+00  0.26866511272E+02  0.26866511678E+02  0.46700000000E-02 0.  1.
          1   -1    0    0  501    0  0.00000000000E+00 -0.00000000000E+00 -0.79332538815E+02  0.79332538953E+02  0.46700000000E-02 0. -1.
         23    2    1    2    0    0  0.00000000000E+00  0.00000000000E+00 -0.52466027543E+02  0.10619905063E+03  0.92333928264E+02 0.  0.
        -13    1    3    3    0    0  0.12710920387E+02 -0.43244815920E+02 -0.37717134805E+02  0.58773080840E+02  0.10570000000E+00 0.  1.
         13    1    3    3    0    0 -0.12710920387E+02  0.43244815920E+02 -0.14748892738E+02  0.47425969790E+02  0.10570000000E+00 0. -1.
<mgrwt>
<rscale>  0 0.92333928E+02</rscale>
<asrwt>0</asrwt>
<pdfrwt beam="2">  1        1 0.12205006E-01 0.92333928E+02</pdfrwt>
<pdfrwt beam="1">  1       -1 0.41333095E-02 0.92333928E+02</pdfrwt>
<totfact> 0.97181119E+04</totfact>
</mgrwt>
</event>
<event>
 5    1  0.2734570E+000  0.9091656E+02  0.7818608E-02  0.1300647E+00
          1   -1    0    0  501    0  0.00000000000E+00  0.00000000000E+00  0.41145868756E+02  0.41145869021E+02  0.46700000000E-02 0.  1.
         -1   -1    0    0    0  501 -0.00000000000E+00 -0.00000000000E+00 -0.50222664834E+02  0.50222665051E+02  0.46700000000E-02 0. -1.
         23    2    1    2    0    0  0.00000000000E+00  0.00000000000E+00 -0.90767960778E+01  0.91368534072E+02  0.90916559501E+02 0.  0.
        -13    1    3    3    0    0  0.20938777479E+02  0.94270915073E+01 -0.43965326813E+02  0.49601044252E+02  0.10570000000E+00 0. -1.
         13    1    3    3    0    0 -0.20938777479E+02 -0.94270915073E+01  0.34888530735E+02  0.41767489821E+02  0.10570000000E+00 0.  1.
<mgrwt>
<rscale>  0 0.90916560E+02</rscale>
<asrwt>0</asrwt>
<pdfrwt beam="1">  1        1 0.63301337E-02 0.90916560E+02</pdfrwt>
<pdfrwt beam="2">  1       -1 0.77265638E-02 0.90916560E+02</pdfrwt>
<totfact> 0.91790190E+04</totfact>
</mgrwt>
</event>
<event>
 5    1  0.2734570E+000  0.9112364E+02  0.7818608E-02  0.1300153E+00
          1   -1    0    0  501    0  0.00000000000E+00  0.00000000000E+00  0.55725225274E+02  0.55725225470E+02  0.46700000000E-02 0. -1.
         -1   -1    0    0    0  501 -0.00000000000E+00 -0.00000000000E+00 -0.37252055626E+02  0.37252055919E+02  0.46700000000E-02 0.  1.
         23    2    1    2    0    0  0.00000000000E+00  0.00000000000E+00  0.18473169648E+02  0.92977281389E+02  0.91123635011E+02 0.  0.
        -13    1    3    3    0    0  0.42088941099E+02  0.41554013095E+01 -0.80527717154E+01  0.43053508889E+02  0.10570000000E+00 0.  1.
         13    1    3    3    0    0 -0.42088941099E+02 -0.41554013095E+01  0.26525941363E+02  0.49923772499E+02  0.10570000000E+00 0. -1.
<mgrwt>
<rscale>  0 0.91123635E+02</rscale>
<asrwt>0</asrwt>
<pdfrwt beam="1">  1        1 0.85731116E-02 0.91123635E+02</pdfrwt>
<pdfrwt beam="2">  1       -1 0.57310855E-02 0.91123635E+02</pdfrwt>
<totfact> 0.95457752E+04</totfact>
</mgrwt>
</event>
<event>
 5    1  0.2734570E+000  0.8731884E+02  0.7818608E-02  0.1309478E+00
          1   -1    0    0  501    0  0.00000000000E+00  0.00000000000E+00  0.11745834073E+03  0.11745834082E+03  0.46700000000E-02 0. -1.
         -1   -1    0    0    0  501 -0.00000000000E+00 -0.00000000000E+00 -0.16228264059E+02  0.16228264731E+02  0.46700000000E-02 0.  1.
         23    2    1    2    0    0  0.00000000000E+00  0.00000000000E+00  0.10123007667E+03  0.13368660555E+03  0.87318841504E+02 0.  0.
        -13    1    3    3    0    0  0.25398807545E+02 -0.10759986325E+02 -0.11970897963E+01  0.27610159849E+02  0.10570000000E+00 0.  1.
         13    1    3    3    0    0 -0.25398807545E+02  0.10759986325E+02  0.10242716646E+03  0.10607644570E+03  0.10570000000E+00 0. -1.
<mgrwt>
<rscale>  0 0.87318842E+02</rscale>
<asrwt>0</asrwt>
<pdfrwt beam="1">  1        1 0.18070514E-01 0.87318842E+02</pdfrwt>
<pdfrwt beam="2">  1       -1 0.24966561E-02 0.87318842E+02</pdfrwt>
<totfact> 0.12065306E+05</totfact>
</mgrwt>
</event>
<event>
 5    1  0.2734570E+000  0.9214646E+02  0.7818608E-02  0.1297735E+00
          1   -1    0    0  501    0  0.00000000000E+00  0.00000000000E+00  0.32178022950E+02  0.32178023288E+02  0.46700000000E-02 0. -1.
         -1   -1    0    0    0  501 -0.00000000000E+00 -0.00000000000E+00 -0.65968702733E+02  0.65968702898E+02  0.46700000000E-02 0.  1.
         23    2    1    2    0    0  0.00000000000E+00  0.00000000000E+00 -0.33790679783E+02  0.98146726186E+02  0.92146458537E+02 0.  0.
        -13    1    3    3    0    0 -0.12057307515E+02  0.28173743782E+02 -0.53538955826E+02  0.61689297829E+02  0.10570000000E+00 0.  1.
         13    1    3    3    0    0  0.12057307515E+02 -0.28173743782E+02  0.19748276044E+02  0.36457428357E+02  0.10570000000E+00 0. -1.
<mgrwt>
<rscale>  0 0.92146459E+02</rscale>
<asrwt>0</asrwt>
<pdfrwt beam="1">  1        1 0.49504651E-02 0.92146459E+02</pdfrwt>
<pdfrwt beam="2">  1       -1 0.10149031E-01 0.92146459E+02</pdfrwt>
<totfact> 0.85044209E+04</totfact>
</mgrwt>
</event>
<event>
 5    1  0.2734570E+000  0.9129700E+02  0.7818608E-02  0.1299741E+00
          1   -1    0    0  501    0  0.00000000000E+00  0.00000000000E+00  0.24156532643E+03  0.24156532647E+03  0.46700000000E-02 0. -1.
         -1   -1    0    0    0  501 -0.00000000000E+00 -0.00000000000E+00 -0.86261780926E+01  0.86261793568E+01  0.46700000000E-02 0.  1.
         23    2    1    2    0    0  0.00000000000E+00  0.00000000000E+00  0.23293914834E+03  0.25019150583E+03  0.91297003030E+02 0.  0.
        -13    1    3    3    0    0 -0.40413707132E+02  0.20677485593E+02  0.10334177003E+03  0.11287319761E+03  0.10570000000E+00 0. -1.
         13    1    3    3    0    0  0.40413707132E+02 -0.20677485593E+02  0.12959737831E+03  0.13731830822E+03  0.10570000000E+00 0.  1.
<mgrwt>
<rscale>  0 0.91297003E+02</rscale>
<asrwt>0</asrwt>
<pdfrwt beam="1">  1        1 0.37163895E-01 0.91297003E+02</pdfrwt>
<pdfrwt beam="2">  1       -1 0.13271045E-02 0.91297003E+02</pdfrwt>
<totfact> 0.12241347E+05</totfact>
</mgrwt>
</event>
<event>
 5    1  0.2734570E+000  0.9089262E+02  0.7818608E-02  0.1300704E+00
         -1   -1    0    0    0  501 -0.00000000000E+00  0.00000000000E+00  0.67520416347E+02  0.67520416508E+02  0.46700000000E-02 0.  1.
          1   -1    0    0  501    0  0.00000000000E+00 -0.00000000000E+00 -0.30588780322E+02  0.30588780678E+02  0.46700000000E-02 0. -1.
         23    2    1    2    0    0  0.00000000000E+00  0.00000000000E+00  0.36931636025E+02  0.98109197187E+02  0.90892622545E+02 0.  0.
        -13    1    3    3    0    0 -0.14173282002E+02 -0.17699337647E+02 -0.24046623151E+02  0.33051470970E+02  0.10570000000E+00 0. -1.
         13    1    3    3    0    0  0.14173282002E+02  0.17699337647E+02  0.60978259176E+02  0.65057726216E+02  0.10570000000E+00 0.  1.
<mgrwt>
<rscale>  0 0.90892623E+02</rscale>
<asrwt>0</asrwt>
<pdfrwt beam="2">  1        1 0.47059662E-02 0.90892623E+02</pdfrwt>
<pdfrwt beam="1">  1       -1 0.10387756E-01 0.90892623E+02</pdfrwt>
<totfact> 0.87737758E+04</totfact>
</mgrwt>
</event>
<event>
 5    1  0.2734570E+000  0.9143123E+02  0.7818608E-02  0.1299422E+00
          1   -1    0    0  501    0  0.00000000000E+00  0.00000000000E+00  0.13874429339E+02  0.13874430125E+02  0.46700000000E-02 0. -1.
         -1   -1    0    0    0  501 -0.00000000000E+00 -0.00000000000E+00 -0.15063086041E+03  0.15063086048E+03  0.46700000000E-02 0.  1.
         23    2    1    2    0    0  0.00000000000E+00  0.00000000000E+00 -0.13675643107E+03  0.16450529061E+03  0.91431226605E+02 0.  0.
        -13    1    3    3    0    0  0.38814417628E+02 -0.20627020230E+02 -0.45771396507E+02  0.63459159229E+02  0.10570000000E+00 0. -1.
         13    1    3    3    0    0 -0.38814417628E+02  0.20627020230E+02 -0.90985034565E+02  0.10104613138E+03  0.10570000000E+00 0.  1.
<mgrwt>
<rscale>  0 0.91431227E+02</rscale>
<asrwt>0</asrwt>
<pdfrwt beam="1">  1        1 0.21345278E-02 0.91431227E+02</pdfrwt>
<pdfrwt beam="2">  1       -1 0.23173977E-01 0.91431227E+02</pdfrwt>
<totfact> 0.74176013E+04</totfact>
</mgrwt>
</event>
<event>
 5    1  0.2734570E+000  0.9516988E+02  0.7818608E-02  0.1290794E+00
         -1   -1    0    0    0  501 -0.00000000000E+00  0.00000000000E+00  0.19063057642E+02  0.19063058214E+02  0.46700000000E-02 0.  1.
          1   -1    0    0  501    0  0.00000000000E+00 -0.00000000000E+00 -0.11878086585E+03  0.11878086594E+03  0.46700000000E-02 0. -1.
         23    2    1    2    0    0  0.00000000000E+00  0.00000000000E+00 -0.99717808205E+02  0.13784392415E+03  0.95169880492E+02 0.  0.
        -13    1    3    3    0    0  0.47326772853E+02 -0.27534366872E+01 -0.43902740340E+02  0.64613207814E+02  0.10570000000E+00 0.  1.
         13    1    3    3    0    0 -0.47326772853E+02  0.27534366872E+01 -0.55815067866E+02  0.73230716340E+02  0.10570000000E+00 0. -1.
<mgrwt>
<rscale>  0 0.95169880E+02</rscale>
<asrwt>0</asrwt>
<pdfrwt beam="2">  1        1 0.18273979E-01 0.95169880E+02</pdfrwt>
<pdfrwt beam="1">  1       -1 0.29327782E-02 0.95169880E+02</pdfrwt>
<totfact> 0.95703385E+04</totfact>
</mgrwt>
</event>
<event>
 5    1  0.2734570E+000  0.9146945E+02  0.7818608E-02  0.1299332E+00
         -1   -1    0    0    0  501 -0.00000000000E+00  0.00000000000E+00  0.15596862110E+03  0.15596862117E+03  0.46700000000E-02 0.  1.
          1   -1    0    0  501    0  0.00000000000E+00 -0.00000000000E+00 -0.13410807157E+02  0.13410807970E+02  0.46700000000E-02 0. -1.
         23    2    1    2    0    0  0.00000000000E+00  0.00000000000E+00  0.14255781395E+03  0.16937942914E+03  0.91469452276E+02 0.  0.
        -13    1    3    3    0    0 -0.13428422856E+02  0.43579492246E+02  0.77736031885E+02  0.90124339168E+02  0.10570000000E+00 0.  1.
         13    1    3    3    0    0  0.13428422856E+02 -0.43579492246E+02  0.64821782060E+02  0.79255089974E+02  0.10570000000E+00 0. -1.
<mgrwt>
<rscale>  0 0.91469452E+02</rscale>
<asrwt>0</asrwt>
<pdfrwt beam="2">  1        1 0.20632013E-02 0.91469452E+02</pdfrwt>
<pdfrwt beam="1">  1       -1 0.23995172E-01 0.91469452E+02</pdfrwt>
<totfact> 0.73485089E+04</totfact>
</mgrwt>
</event>
<event>
 5    1  0.2734570E+000  0.9481758E+02  0.7818608E-02  0.1291587E+00
          1   -1    0    0  501    0  0.00000000000E+00  0.00000000000E+00  0.25706415978E+02  0.25706416402E+02  0.46700000000E-02 0. -1.
         -1   -1    0    0    0  501 -0.00000000000E+00 -0.00000000000E+00 -0.87433174705E+02  0.87433174830E+02  0.46700000000E-02 0.  1.
         23    2    1    2    0    0  0.00000000000E+00  0.00000000000E+00 -0.61726758728E+02  0.11313959123E+03  0.94817584662E+02 0.  0.
        -13    1    3    3    0    0  0.34681582451E+02 -0.20693546139E+01  0.76262971389E+01  0.35570577313E+02  0.10570000000E+00 0. -1.
         13    1    3    3    0    0 -0.34681582451E+02  0.20693546139E+01 -0.69353055867E+02  0.77569013919E+02  0.10570000000E+00 0.  1.
<mgrwt>
<rscale>  0 0.94817585E+02</rscale>
<asrwt>0</asrwt>
<pdfrwt beam="1">  1        1 0.39548333E-02 0.94817585E+02</pdfrwt>
<pdfrwt beam="2">  1       -1 0.13451258E-01 0.94817585E+02</pdfrwt>
<totfact> 0.75386171E+04</totfact>
</mgrwt>
</event>
<event>
 5    1  0.2734570E+000  0.8781012E+02  0.7818608E-02  0.1308243E+00
          1   -1    0    0  501    0  0.00000000000E+00  0.00000000000E+00  0.58176512975E+02  0.58176513162E+02  0.46700000000E-02 0. -1.
         -1   -1    0    0    0  501 -0.00000000000E+00 -0.00000000000E+00 -0.33134579808E+02  0.33134580138E+02  0.46700000000E-02 0.  1.
         23    2    1    2    0    0  0.00000000000E+00  0.00000000000E+00  0.25041933166E+02  0.91311093300E+02  0.87810120959E+02 0.  0.
        -13    1    3    3    0    0 -0.18531331215E+02  0.32049772301E+02 -0.12021833861E+02  0.38924719691E+02  0.10570000000E+00 0.  1.
         13    1    3    3    0    0  0.18531331215E+02 -0.32049772301E+02  0.37063767027E+02  0.52386373609E+02  0.10570000000E+00 0. -1.
<mgrwt>
<rscale>  0 0.87810121E+02</rscale>
<asrwt>0</asrwt>
<pdfrwt beam="1">  1        1 0.89502328E-02 0.87810121E+02</pdfrwt>
<pdfrwt beam="2">  1       -1 0.50976277E-02 0.87810121E+02</pdfrwt>
<totfact> 0.10644714E+05</totfact>
</mgrwt>
</event>
<event>
 5    1  0.2734570E+000  0.9083875E+02  0.7818608E-02  0.1300833E+00
         -1   -1    0    0    0  501 -0.00000000000E+00  0.00000000000E+00  0.74430293746E+02  0.74430293892E+02  0.46700000000E-02 0.  1.
          1   -1    0    0  501    0  0.00000000000E+00 -0.00000000000E+00 -0.27716130744E+02  0.27716131138E+02  0.46700000000E-02 0. -1.
         23    2    1    2    0    0  0.00000000000E+00  0.00000000000E+00  0.46714163002E+02  0.10214642503E+03  0.90838753412E+02 0.  0.
        -13    1    3    3    0    0  0.84743299081E+01  0.25049762853E+02  0.64880786288E+02  0.70063060797E+02  0.10570000000E+00 0.  1.
         13    1    3    3    0    0 -0.84743299081E+01 -0.25049762853E+02 -0.18166623286E+02  0.32083364233E+02  0.10570000000E+00 0. -1.
<mgrwt>
<rscale>  0 0.90838753E+02</rscale>
<asrwt>0</asrwt>
<pdfrwt beam="2">  1        1 0.42640201E-02 0.90838753E+02</pdfrwt>
<pdfrwt beam="1">  1       -1 0.11450815E-01 0.90838753E+02</pdfrwt>
<totfact> 0.86493326E+04</totfact>
</mgrwt>
</event>
<event>
 5    1  0.2734570E+000  0.9078282E+02  0.7818608E-02  0.1300967E+00
          1   -1    0    0  501    0  0.00000000000E+00  0.00000000000E+00  0.11173619762E+02  0.11173620738E+02  0.46700000000E-02 0. -1.
         -1   -1    0    0    0  501 -0.00000000000E+00 -0.00000000000E+00 -0.18439682535E+03  0.18439682541E+03  0.46700000000E-02 0.  1.
         23    2    1    2    0    0  0.00000000000E+00  0.00000000000E+00 -0.17322320559E+03  0.19557044615E+03  0.90782820248E+02 0.  0.
        -13    1    3    3    0    0 -0.28807298520E+02  0.13505530393E+02 -0.15635495383E+03  0.15955921333E+03  0.10570000000E+00 0.  1.
         13    1    3    3    0    0  0.28807298520E+02 -0.13505530393E+02 -0.16868251762E+02  0.36011232820E+02  0.10570000000E+00 0. -1.
<mgrwt>
<rscale>  0 0.90782820E+02</rscale>
<asrwt>0</asrwt>
<pdfrwt beam="1">  1        1 0.17190186E-02 0.90782820E+02</pdfrwt>
<pdfrwt beam="2">  1       -1 0.28368740E-01 0.90782820E+02</pdfrwt>
<totfact> 0.71813970E+04</totfact>
</mgrwt>
</event>
<event>
 5    1  0.2734570E+000  0.8890212E+02  0.7818608E-02  0.1305532E+00
          1   -1    0    0  501    0  0.00000000000E+00  0.00000000000E+00  0.10141510737E+02  0.10141511812E+02  0.46700000000E-02 0. -1.
         -1   -1    0    0    0  501 -0.00000000000E+00 -0.00000000000E+00 -0.19483257921E+03  0.19483257926E+03  0.46700000000E-02 0.  1.
         23    2    1    2    0    0  0.00000000000E+00  0.00000000000E+00 -0.18469106847E+03  0.20497409107E+03  0.88902121683E+02 0.  0.
        -13    1    3    3    0    0 -0.84342084367E+01  0.32002027805E+02 -0.23925842772E+02  0.40837761697E+02  0.10570000000E+00 0. -1.
         13    1    3    3    0    0  0.84342084367E+01 -0.32002027805E+02 -0.16076522570E+03  0.16413632938E+03  0.10570000000E+00 0.  1.
<mgrwt>
<rscale>  0 0.88902122E+02</rscale>
<asrwt>0</asrwt>
<pdfrwt beam="1">  1        1 0.15602327E-02 0.88902122E+02</pdfrwt>
<pdfrwt beam="2">  1       -1 0.29974240E-01 0.88902122E+02</pdfrwt>
<totfact> 0.74691719E+04</totfact>
</mgrwt>
</event>
<event>
 5    1  0.2734570E+000  0.8605099E+02  0.7818608E-02  0.1312707E+00
         -1   -1    0    0    0  501 -0.00000000000E+00  0.00000000000E+00  0.20474073958E+02  0.20474074491E+02  0.46700000000E-02 0.  1.
          1   -1    0    0  501    0  0.00000000000E+00 -0.00000000000E+00 -0.90416457720E+02  0.90416457840E+02  0.46700000000E-02 0. -1.
         23    2    1    2    0    0  0.00000000000E+00  0.00000000000E+00 -0.69942383762E+02  0.11089053233E+03  0.86050991362E+02 0.  0.
        -13    1    3    3    0    0  0.27818180161E+02  0.70208099894E+01 -0.76289585131E+02  0.81506164751E+02  0.10570000000E+00 0. -1.
         13    1    3    3    0    0 -0.27818180161E+02 -0.70208099894E+01  0.63472013695E+01  0.29384367580E+02  0.10570000000E+00 0.  1.
<mgrwt>
<rscale>  0 0.86050991E+02</rscale>
<asrwt>0</asrwt>
<pdfrwt beam="2">  1        1 0.13910224E-01 0.86050991E+02</pdfrwt>
<pdfrwt beam="1">  1       -1 0.31498576E-02 0.86050991E+02</pdfrwt>
<totfact> 0.12025946E+05</totfact>
</mgrwt>
</event>
<event>
 5    1  0.2734570E+000  0.9076681E+02  0.7818608E-02  0.1301005E+00
          1   -1    0    0  501    0  0.00000000000E+00  0.00000000000E+00  0.48906022118E+02  0.48906022341E+02  0.46700000000E-02 0. -1.
         -1   -1    0    0    0  501 -0.00000000000E+00 -0.00000000000E+00 -0.42114516809E+02  0.42114517068E+02  0.46700000000E-02 0.  1.
         23    2    1    2    0    0  0.00000000000E+00  0.00000000000E+00  0.67915053089E+01  0.91020539408E+02  0.90766811390E+02 0.  0.
        -13    1    3    3    0    0 -0.33486782346E+02 -0.18480824668E+02 -0.21100731727E+02  0.43682462433E+02  0.10570000000E+00 0.  1.
         13    1    3    3    0    0  0.33486782346E+02  0.18480824668E+02  0.27892237036E+02  0.47338076975E+02  0.10570000000E+00 0. -1.
<mgrwt>
<rscale>  0 0.90766811E+02</rscale>
<asrwt>0</asrwt>
<pdfrwt beam="1">  1        1 0.75240034E-02 0.90766811E+02</pdfrwt>
<pdfrwt beam="2">  1       -1 0.64791565E-02 0.90766811E+02</pdfrwt>
<totfact> 0.94638296E+04</totfact>
</mgrwt>
</event>
<event>
 5    1  0.2734570E+000  0.9119466E+02  0.7818608E-02  0.1299984E+00
         -1   -1    0    0    0  501 -0.00000000000E+00  0.00000000000E+00  0.19940250526E+02  0.19940251072E+02  0.46700000000E-02 0.  1.
          1   -1    0    0  501    0  0.00000000000E+00 -0.00000000000E+00 -0.10426732199E+03  0.10426732209E+03  0.46700000000E-02 0. -1.
         23    2    1    2    0    0  0.00000000000E+00  0.00000000000E+00 -0.84327071464E+02  0.12420757317E+03  0.91194661304E+02 0.  0.
        -13    1    3    3    0    0 -0.20316117307E+02 -0.30374882388E+02 -0.79307266246E+02  0.87321427808E+02  0.10570000000E+00 0. -1.
         13    1    3    3    0    0  0.20316117307E+02  0.30374882388E+02 -0.50198052185E+01  0.36886145359E+02  0.10570000000E+00 0.  1.
<mgrwt>
<rscale>  0 0.91194661E+02</rscale>
<asrwt>0</asrwt>
<pdfrwt beam="2">  1        1 0.16041126E-01 0.91194661E+02</pdfrwt>
<pdfrwt beam="1">  1       -1 0.30677310E-02 0.91194661E+02</pdfrwt>
<totfact> 0.10512766E+05</totfact>
</mgrwt>
</event>
<event>
 5    1  0.2734570E+000  0.9566937E+02  0.7818608E-02  0.1289676E+00
         -1   -1    0    0    0  501 -0.00000000000E+00  0.00000000000E+00  0.17241918866E+02  0.17241919498E+02  0.46700000000E-02 0.  1.
          1   -1    0    0  501    0  0.00000000000E+00 -0.00000000000E+00 -0.13270896467E+03  0.13270896475E+03  0.46700000000E-02 0. -1.
         23    2    1    2    0    0  0.00000000000E+00  0.00000000000E+00 -0.11546704581E+03  0.14995088425E+03  0.95669373474E+02 0.  0.
        -13    1    3    3    0    0 -0.12636683362E+02  0.18320222521E+02  0.86324748459E+01  0.23871470714E+02  0.10570000000E+00 0.  1.
         13    1    3    3    0    0  0.12636683362E+02 -0.18320222521E+02 -0.12409952065E+03  0.12607941354E+03  0.10570000000E+00 0. -1.
<mgrwt>
<rscale>  0 0.95669373E+02</rscale>
<asrwt>0</asrwt>
<pdfrwt beam="2">  1        1 0.20416763E-01 0.95669373E+02</pdfrwt>
<pdfrwt beam="1">  1       -1 0.26526030E-02 0.95669373E+02</pdfrwt>
<totfact> 0.96242656E+04</totfact>
</mgrwt>
</event>
<event>
 5    1  0.2734570E+000  0.9223077E+02  0.7818608E-02  0.1297538E+00
          1   -1    0    0  501    0  0.00000000000E+00  0.00000000000E+00  0.71533246449E+02  0.71533246602E+02  0.46700000000E-02 0. -1.
         -1   -1    0    0    0  501 -0.00000000000E+00 -0.00000000000E+00 -0.29729234966E+02  0.29729235333E+02  0.46700000000E-02 0.  1.
         23    2    1    2    0    0  0.00000000000E+00  0.00000000000E+00  0.41804011483E+02  0.10126248193E+03  0.92230769657E+02 0.  0.
        -13    1    3    3    0    0 -0.39797567730E+02 -0.30435843782E+01 -0.44576350735E+01  0.40162065261E+02  0.10570000000E+00 0.  1.
         13    1    3    3    0    0  0.39797567730E+02  0.30435843782E+01  0.46261646557E+02  0.61100416674E+02  0.10570000000E+00 0. -1.
<mgrwt>
<rscale>  0 0.92230770E+02</rscale>
<asrwt>0</asrwt>
<pdfrwt beam="1">  1        1 0.11005115E-01 0.92230770E+02</pdfrwt>
<pdfrwt beam="2">  1       -1 0.45737286E-02 0.92230770E+02</pdfrwt>
<totfact> 0.95906323E+04</totfact>
</mgrwt>
</event>
<event>
 5    1  0.2734570E+000  0.9248043E+02  0.7818608E-02  0.1296954E+00
         -1   -1    0    0    0  501 -0.00000000000E+00  0.00000000000E+00  0.14561702133E+02  0.14561702881E+02  0.46700000000E-02 0.  1.
          1   -1    0    0  501    0  0.00000000000E+00 -0.00000000000E+00 -0.14683431421E+03  0.14683431429E+03  0.46700000000E-02 0. -1.
         23    2    1    2    0    0  0.00000000000E+00  0.00000000000E+00 -0.13227261208E+03  0.16139601717E+03  0.92480432802E+02 0.  0.
        -13    1    3    3    0    0  0.17857061635E+01 -0.36526238486E+02 -0.16750435564E+02  0.40223663540E+02  0.10570000000E+00 0.  1.
         13    1    3    3    0    0 -0.17857061635E+01  0.36526238486E+02 -0.11552217651E+03  0.12117235363E+03  0.10570000000E+00 0. -1.
<mgrwt>
<rscale>  0 0.92480433E+02</rscale>
<asrwt>0</asrwt>
<pdfrwt beam="2">  1        1 0.22589894E-01 0.92480433E+02</pdfrwt>
<pdfrwt beam="1">  1       -1 0.22402620E-02 0.92480433E+02</pdfrwt>
<totfact> 0.10748911E+05</totfact>
</mgrwt>
</event>
<event>
 5    1  0.2734570E+000  0.9141893E+02  0.7818608E-02  0.1299451E+00
         -1   -1    0    0    0  501 -0.00000000000E+00  0.00000000000E+00  0.39685048987E+02  0.39685049261E+02  0.46700000000E-02 0.  1.
          1   -1    0    0  501    0  0.00000000000E+00 -0.00000000000E+00 -0.52648417834E+02  0.52648418041E+02  0.46700000000E-02 0. -1.
         23    2    1    2    0    0  0.00000000000E+00  0.00000000000E+00 -0.12963368848E+02  0.92333467303E+02  0.91418927210E+02 0.  0.
        -13    1    3    3    0    0  0.31901591936E+02 -0.16353610822E+02  0.22160281700E+02  0.42145479146E+02  0.10570000000E+00 0.  1.
         13    1    3    3    0    0 -0.31901591936E+02  0.16353610822E+02 -0.35123650548E+02  0.50187988157E+02  0.10570000000E+00 0. -1.
<mgrwt>
<rscale>  0 0.91418927E+02</rscale>
<asrwt>0</asrwt>
<pdfrwt beam="2">  1        1 0.80997566E-02 0.91418927E+02</pdfrwt>
<pdfrwt beam="1">  1       -1 0.61053922E-02 0.91418927E+02</pdfrwt>
<totfact> 0.93796133E+04</totfact>
</mgrwt>
</event>
<event>
 5    1  0.2734570E+000  0.9056755E+02  0.7818608E-02  0.1301483E+00
         -1   -1    0    0    0  501 -0.00000000000E+00  0.00000000000E+00  0.11699702334E+02  0.11699703266E+02  0.46700000000E-02 0.  1.
          1   -1    0    0  501    0  0.00000000000E+00 -0.00000000000E+00 -0.17527112588E+03  0.17527112594E+03  0.46700000000E-02 0. -1.
         23    2    1    2    0    0  0.00000000000E+00  0.00000000000E+00 -0.16357142355E+03  0.18697082921E+03  0.90567545920E+02 0.  0.
        -13    1    3    3    0    0  0.44618251826E+02 -0.59648943574E+01 -0.71621526300E+02  0.84593277290E+02  0.10570000000E+00 0.  1.
         13    1    3    3    0    0 -0.44618251826E+02  0.59648943574E+01 -0.91949897246E+02  0.10237755192E+03  0.10570000000E+00 0. -1.
<mgrwt>
<rscale>  0 0.90567546E+02</rscale>
<asrwt>0</asrwt>
<pdfrwt beam="2">  1        1 0.26964787E-01 0.90567546E+02</pdfrwt>
<pdfrwt beam="1">  1       -1 0.17999544E-02 0.90567546E+02</pdfrwt>
<totfact> 0.11753729E+05</totfact>
</mgrwt>
</event>
<event>
 5    1  0.2734570E+000  0.9165276E+02  0.7818608E-02  0.1298898E+00
          1   -1    0    0  501    0  0.00000000000E+00  0.00000000000E+00  0.29276567406E+02  0.29276567779E+02  0.46700000000E-02 0. -1.
         -1   -1    0    0    0  501 -0.00000000000E+00 -0.00000000000E+00 -0.71731671395E+02  0.71731671547E+02  0.46700000000E-02 0.  1.
         23    2    1    2    0    0  0.00000000000E+00  0.00000000000E+00 -0.42455103988E+02  0.10100823933E+03  0.91652760771E+02 0.  0.
        -13    1    3    3    0    0 -0.16118204557E+02 -0.32958116314E+02 -0.51489744079E+02  0.63223720761E+02  0.10570000000E+00 0.  1.
         13    1    3    3    0    0  0.16118204557E+02  0.32958116314E+02  0.90346400903E+01  0.37784518564E+02  0.10570000000E+00 0. -1.
<mgrwt>
<rscale>  0 0.91652761E+02</rscale>
<asrwt>0</asrwt>
<pdfrwt beam="1">  1        1 0.45040874E-02 0.91652761E+02</pdfrwt>
<pdfrwt beam="2">  1       -1 0.11035642E-01 0.91652761E+02</pdfrwt>
<totfact> 0.85058005E+04</totfact>
</mgrwt>
</event>
<event>
 5    1  0.2734570E+000  0.9416079E+02  0.7818608E-02  0.1293077E+00
         -1   -1    0    0    0  501 -0.00000000000E+00  0.00000000000E+00  0.83078145466E+01  0.83078158591E+01  0.46700000000E-02 0.  1.
          1   -1    0    0  501    0  0.00000000000E+00 -0.00000000000E+00 -0.26680465031E+03  0.26680465035E+03  0.46700000000E-02 0. -1.
         23    2    1    2    0    0  0.00000000000E+00  0.00000000000E+00 -0.25849683576E+03  0.27511246621E+03  0.94160793138E+02 0.  0.
        -13    1    3    3    0    0  0.42095150002E+02 -0.12622483389E+02 -0.79904564200E+02  0.91192539679E+02  0.10570000000E+00 0.  1.
         13    1    3    3    0    0 -0.42095150002E+02  0.12622483389E+02 -0.17859227156E+03  0.18391992653E+03  0.10570000000E+00 0. -1.
<mgrwt>
<rscale>  0 0.94160793E+02</rscale>
<asrwt>0</asrwt>
<pdfrwt beam="2">  1        1 0.41046863E-01 0.94160793E+02</pdfrwt>
<pdfrwt beam="1">  1       -1 0.12781256E-02 0.94160793E+02</pdfrwt>
<totfact> 0.11491296E+05</totfact>
</mgrwt>
</event>
<event>
 5    1  0.2734570E+000  0.9106613E+02  0.7818608E-02  0.1300290E+00
         -1   -1    0    0    0  501 -0.00000000000E+00  0.00000000000E+00  0.16634715725E+02  0.16634716380E+02  0.46700000000E-02 0.  1.
          1   -1    0    0  501    0  0.00000000000E+00 -0.00000000000E+00 -0.12463452360E+03  0.12463452369E+03  0.46700000000E-02 0. -1.
         23    2    1    2    0    0  0.00000000000E+00  0.00000000000E+00 -0.10799980788E+03  0.14126924007E+03  0.91066128107E+02 0.  0.
        -13    1    3    3    0    0 -0.26506485367E+02  0.33506031355E+02 -0.29570249822E+02  0.51958240451E+02  0.10570000000E+00 0.  1.
         13    1    3    3    0    0  0.26506485367E+02 -0.33506031355E+02 -0.78429558054E+02  0.89310999618E+02  0.10570000000E+00 0. -1.
<mgrwt>
<rscale>  0 0.91066128E+02</rscale>
<asrwt>0</asrwt>
<pdfrwt beam="2">  1        1 0.19174542E-01 0.91066128E+02</pdfrwt>
<pdfrwt beam="1">  1       -1 0.25591872E-02 0.91066128E+02</pdfrwt>
<totfact> 0.10881326E+05</totfact>
</mgrwt>
</event>
<event>
 5    1  0.2734570E+000  0.9148360E+02  0.7818608E-02  0.1299298E+00
         -1   -1    0    0    0  501 -0.00000000000E+00  0.00000000000E+00  0.25323561010E+02  0.25323561441E+02  0.46700000000E-02 0.  1.
          1   -1    0    0  501    0  0.00000000000E+00 -0.00000000000E+00 -0.82623137940E+02  0.82623138072E+02  0.46700000000E-02 0. -1.
         23    2    1    2    0    0  0.00000000000E+00  0.00000000000E+00 -0.57299576930E+02  0.10794669951E+03  0.91483596450E+02 0.  0.
        -13    1    3    3    0    0  0.45530694988E+01 -0.45254409873E+02 -0.22916499797E+02  0.50930042118E+02  0.10570000000E+00 0. -1.
         13    1    3    3    0    0 -0.45530694988E+01  0.45254409873E+02 -0.34383077134E+02  0.57016657395E+02  0.10570000000E+00 0.  1.
<mgrwt>
<rscale>  0 0.91483596E+02</rscale>
<asrwt>0</asrwt>
<pdfrwt beam="2">  1        1 0.12711252E-01 0.91483596E+02</pdfrwt>
<pdfrwt beam="1">  1       -1 0.38959326E-02 0.91483596E+02</pdfrwt>
<totfact> 0.10033083E+05</totfact>
</mgrwt>
</event>
<event>
 5    1  0.2734570E+000  0.9063512E+02  0.7818608E-02  0.1301321E+00
          1   -1    0    0  501    0  0.00000000000E+00  0.00000000000E+00  0.17561522942E+03  0.17561522948E+03  0.46700000000E-02 0. -1.
         -1   -1    0    0    0  501 -0.00000000000E+00 -0.00000000000E+00 -0.11694208006E+02  0.11694208939E+02  0.46700000000E-02 0.  1.
         23    2    1    2    0    0  0.00000000000E+00  0.00000000000E+00  0.16392102141E+03  0.18730943842E+03  0.90635117146E+02 0.  0.
        -13    1    3    3    0    0 -0.20019744275E+02  0.22439165756E+02  0.11897001597E+02  0.32339699135E+02  0.10570000000E+00 0.  1.
         13    1    3    3    0    0  0.20019744275E+02 -0.22439165756E+02  0.15202401981E+03  0.15496973928E+03  0.10570000000E+00 0. -1.
<mgrwt>
<rscale>  0 0.90635117E+02</rscale>
<asrwt>0</asrwt>
<pdfrwt beam="1">  1        1 0.27017728E-01 0.90635117E+02</pdfrwt>
<pdfrwt beam="2">  1       -1 0.17991090E-02 0.90635117E+02</pdfrwt>
<totfact> 0.11734571E+05</totfact>
</mgrwt>
</event>
<event>
 5    1  0.2734570E+000  0.9067101E+02  0.7818608E-02  0.1301235E+00
         -1   -1    0    0    0  501 -0.00000000000E+00  0.00000000000E+00  0.59585147530E+01  0.59585165831E+01  0.46700000000E-02 0.  1.
          1   -1    0    0  501    0  0.00000000000E+00 -0.00000000000E+00 -0.34493627533E+03  0.34493627537E+03  0.46700000000E-02 0. -1.
         23    2    1    2    0    0  0.00000000000E+00  0.00000000000E+00 -0.33897776058E+03  0.35089479195E+03  0.90671014378E+02 0.  0.
        -13    1    3    3    0    0 -0.38897944324E+02 -0.23232533011E+02 -0.17560341653E+03  0.18135427133E+03  0.10570000000E+00 0.  1.
         13    1    3    3    0    0  0.38897944324E+02  0.23232533011E+02 -0.16337434405E+03  0.16954052062E+03  0.10570000000E+00 0. -1.
<mgrwt>
<rscale>  0 0.90671014E+02</rscale>
<asrwt>0</asrwt>
<pdfrwt beam="2">  1        1 0.53067104E-01 0.90671014E+02</pdfrwt>
<pdfrwt beam="1">  1       -1 0.91669499E-03 0.90671014E+02</pdfrwt>
<totfact> 0.13344738E+05</totfact>
</mgrwt>
</event>
<event>
 5    1  0.2734570E+000  0.9303869E+02  0.7818608E-02  0.1295656E+00
          1   -1    0    0  501    0  0.00000000000E+00  0.00000000000E+00  0.15202548010E+02  0.15202548727E+02  0.46700000000E-02 0. -1.
         -1   -1    0    0    0  501 -0.00000000000E+00 -0.00000000000E+00 -0.14234782204E+03  0.14234782212E+03  0.46700000000E-02 0.  1.
         23    2    1    2    0    0  0.00000000000E+00  0.00000000000E+00 -0.12714527404E+03  0.15755037085E+03  0.93038694343E+02 0.  0.
        -13    1    3    3    0    0  0.15913269779E+02  0.43014983543E+02 -0.50399281884E+02  0.68144110173E+02  0.10570000000E+00 0. -1.
         13    1    3    3    0    0 -0.15913269779E+02 -0.43014983543E+02 -0.76745992151E+02  0.89406260676E+02  0.10570000000E+00 0.  1.
<mgrwt>
<rscale>  0 0.93038694E+02</rscale>
<asrwt>0</asrwt>
<pdfrwt beam="1">  1        1 0.23388537E-02 0.93038694E+02</pdfrwt>
<pdfrwt beam="2">  1       -1 0.21899664E-01 0.93038694E+02</pdfrwt>
<totfact> 0.71824711E+04</totfact>
</mgrwt>
</event>
<event>
 5    1  0.2734570E+000  0.1147936E+03  0.7818608E-02  0.1251942E+00
          1   -1    0    0  501    0  0.00000000000E+00  0.00000000000E+00  0.21173745580E+02  0.21173746095E+02  0.46700000000E-02 0. -1.
         -1   -1    0    0    0  501 -0.00000000000E+00 -0.00000000000E+00 -0.15558860626E+03  0.15558860633E+03  0.46700000000E-02 0.  1.
         23    2    1    2    0    0  0.00000000000E+00  0.00000000000E+00 -0.13441486068E+03  0.17676235242E+03  0.11479361682E+03 0.  0.
        -13    1    3    3    0    0  0.38528600468E+02 -0.61944048984E+01 -0.23962678439E+01  0.39097020068E+02  0.10570000000E+00 0. -1.
         13    1    3    3    0    0 -0.38528600468E+02  0.61944048984E+01 -0.13201859283E+03  0.13766533235E+03  0.10570000000E+00 0.  1.
<mgrwt>
<rscale>  0 0.11479362E+03</rscale>
<asrwt>0</asrwt>
<pdfrwt beam="1">  1        1 0.32574995E-02 0.11479362E+03</pdfrwt>
<pdfrwt beam="2">  1       -1 0.23936708E-01 0.11479362E+03</pdfrwt>
<totfact> 0.40632614E+04</totfact>
</mgrwt>
</event>
<event>
 5    1  0.2734570E+000  0.9566937E+02  0.7818608E-02  0.1289676E+00
          1   -1    0    0  501    0  0.00000000000E+00  0.00000000000E+00  0.28045062868E+03  0.28045062872E+03  0.46700000000E-02 0. -1.
         -1   -1    0    0    0  501 -0.00000000000E+00 -0.00000000000E+00 -0.81588581533E+01  0.81588594898E+01  0.46700000000E-02 0.  1.
         23    2    1    2    0    0  0.00000000000E+00  0.00000000000E+00  0.27229177052E+03  0.28860948821E+03  0.95669370163E+02 0.  0.
        -13    1    3    3    0    0  0.77574449888E+01  0.38247805727E+02  0.52703017596E+02  0.65579660200E+02  0.10570000000E+00 0.  1.
         13    1    3    3    0    0 -0.77574449888E+01 -0.38247805727E+02  0.21958875293E+03  0.22302982801E+03  0.10570000000E+00 0. -1.
<mgrwt>
<rscale>  0 0.95669370E+02</rscale>
<asrwt>0</asrwt>
<pdfrwt beam="1">  1        1 0.43146252E-01 0.95669370E+02</pdfrwt>
<pdfrwt beam="2">  1       -1 0.12552090E-02 0.95669370E+02</pdfrwt>
<totfact> 0.11120284E+05</totfact>
</mgrwt>
</event>
<event>
 5    1  0.2734570E+000  0.9037955E+02  0.7818608E-02  0.1301935E+00
          1   -1    0    0  501    0  0.00000000000E+00  0.00000000000E+00  0.58651219472E+02  0.58651219658E+02  0.46700000000E-02 0. -1.
         -1   -1    0    0    0  501 -0.00000000000E+00 -0.00000000000E+00 -0.34817961067E+02  0.34817961380E+02  0.46700000000E-02 0.  1.
         23    2    1    2    0    0  0.00000000000E+00  0.00000000000E+00  0.23833258405E+02  0.93469181038E+02  0.90379552985E+02 0.  0.
        -13    1    3    3    0    0  0.16923399925E+01  0.39708571212E+02 -0.10323641603E+02  0.41063650480E+02  0.10570000000E+00 0.  1.
         13    1    3    3    0    0 -0.16923399925E+01 -0.39708571212E+02  0.34156900008E+02  0.52405530558E+02  0.10570000000E+00 0. -1.
<mgrwt>
<rscale>  0 0.90379553E+02</rscale>
<asrwt>0</asrwt>
<pdfrwt beam="1">  1        1 0.90232644E-02 0.90379553E+02</pdfrwt>
<pdfrwt beam="2">  1       -1 0.53566095E-02 0.90379553E+02</pdfrwt>
<totfact> 0.98408012E+04</totfact>
</mgrwt>
</event>
<event>
 5    1  0.2734570E+000  0.9186921E+02  0.7818608E-02  0.1298387E+00
         -1   -1    0    0    0  501 -0.00000000000E+00  0.00000000000E+00  0.28633306267E+02  0.28633306648E+02  0.46700000000E-02 0.  1.
          1   -1    0    0  501    0  0.00000000000E+00 -0.00000000000E+00 -0.73689989497E+02  0.73689989645E+02  0.46700000000E-02 0. -1.
         23    2    1    2    0    0  0.00000000000E+00  0.00000000000E+00 -0.45056683230E+02  0.10232329629E+03  0.91869212801E+02 0.  0.
        -13    1    3    3    0    0  0.16349055476E+02  0.12822375640E+02  0.23100106344E+02  0.31069776594E+02  0.10570000000E+00 0.  1.
         13    1    3    3    0    0 -0.16349055476E+02 -0.12822375640E+02 -0.68156789574E+02  0.71253519699E+02  0.10570000000E+00 0. -1.
<mgrwt>
<rscale>  0 0.91869213E+02</rscale>
<asrwt>0</asrwt>
<pdfrwt beam="2">  1        1 0.11336921E-01 0.91869213E+02</pdfrwt>
<pdfrwt beam="1">  1       -1 0.44051241E-02 0.91869213E+02</pdfrwt>
<totfact> 0.97402802E+04</totfact>
</mgrwt>
</event>
<event>
 5    1  0.2734570E+000  0.9052157E+02  0.7818608E-02  0.1301594E+00
          1   -1    0    0  501    0  0.00000000000E+00  0.00000000000E+00  0.37122345903E+02  0.37122346197E+02  0.46700000000E-02 0. -1.
         -1   -1    0    0    0  501 -0.00000000000E+00 -0.00000000000E+00 -0.55183441643E+02  0.55183441840E+02  0.46700000000E-02 0.  1.
         23    2    1    2    0    0  0.00000000000E+00  0.00000000000E+00 -0.18061095740E+02  0.92305788037E+02  0.90521573814E+02 0.  0.
        -13    1    3    3    0    0 -0.22066237296E+02  0.27301143456E+02  0.20102782727E+02  0.40452494463E+02  0.10570000000E+00 0. -1.
         13    1    3    3    0    0  0.22066237296E+02 -0.27301143456E+02 -0.38163878467E+02  0.51853293574E+02  0.10570000000E+00 0.  1.
<mgrwt>
<rscale>  0 0.90521574E+02</rscale>
<asrwt>0</asrwt>
<pdfrwt beam="1">  1        1 0.57111301E-02 0.90521574E+02</pdfrwt>
<pdfrwt beam="2">  1       -1 0.84897603E-02 0.90521574E+02</pdfrwt>
<totfact> 0.91485432E+04</totfact>
</mgrwt>
</event>
<event>
 5    1  0.2734570E+000  0.9010738E+02  0.7818608E-02  0.1302592E+00
         -1   -1    0    0    0  501 -0.00000000000E+00  0.00000000000E+00  0.23762417993E+02  0.23762418452E+02  0.46700000000E-02 0.  1.
          1   -1    0    0  501    0  0.00000000000E+00 -0.00000000000E+00 -0.85422078006E+02  0.85422078134E+02  0.46700000000E-02 0. -1.
         23    2    1    2    0    0  0.00000000000E+00  0.00000000000E+00 -0.61659660013E+02  0.10918449659E+03  0.90107383836E+02 0.  0.
        -13    1    3    3    0    0 -0.15464260406E+01  0.15203472135E+02  0.20525846788E+02  0.25590204323E+02  0.10570000000E+00 0.  1.
         13    1    3    3    0    0  0.15464260406E+01 -0.15203472135E+02 -0.82185506800E+02  0.83594292263E+02  0.10570000000E+00 0. -1.
<mgrwt>
<rscale>  0 0.90107384E+02</rscale>
<asrwt>0</asrwt>
<pdfrwt beam="2">  1        1 0.13141858E-01 0.90107384E+02</pdfrwt>
<pdfrwt beam="1">  1       -1 0.36557567E-02 0.90107384E+02</pdfrwt>
<totfact> 0.10513846E+05</totfact>
</mgrwt>
</event>
<event>
 5    1  0.2734570E+000  0.9109157E+02  0.7818608E-02  0.1300230E+00
         -1   -1    0    0    0  501 -0.00000000000E+00  0.00000000000E+00  0.64047700505E+01  0.64047717531E+01  0.46700000000E-02 0.  1.
          1   -1    0    0  501    0  0.00000000000E+00 -0.00000000000E+00 -0.32388641975E+03  0.32388641978E+03  0.46700000000E-02 0. -1.
         23    2    1    2    0    0  0.00000000000E+00  0.00000000000E+00 -0.31748164970E+03  0.33029119153E+03  0.91091565530E+02 0.  0.
        -13    1    3    3    0    0 -0.45326108174E+02  0.44330070917E+01 -0.15675640972E+03  0.16323814136E+03  0.10570000000E+00 0.  1.
         13    1    3    3    0    0  0.45326108174E+02 -0.44330070917E+01 -0.16072523998E+03  0.16705305018E+03  0.10570000000E+00 0. -1.
<mgrwt>
<rscale>  0 0.91091566E+02</rscale>
<asrwt>0</asrwt>
<pdfrwt beam="2">  1        1 0.49828667E-01 0.91091566E+02</pdfrwt>
<pdfrwt beam="1">  1       -1 0.98534963E-03 0.91091566E+02</pdfrwt>
<totfact> 0.13030729E+05</totfact>
</mgrwt>
</event>
<event>
 5    1  0.2734570E+000  0.9113548E+02  0.7818608E-02  0.1300125E+00
         -1   -1    0    0    0  501 -0.00000000000E+00  0.00000000000E+00  0.19631621458E+03  0.19631621464E+03  0.46700000000E-02 0.  1.
          1   -1    0    0  501    0  0.00000000000E+00 -0.00000000000E+00 -0.10576908370E+02  0.10576909401E+02  0.46700000000E-02 0. -1.
         23    2    1    2    0    0  0.00000000000E+00  0.00000000000E+00  0.18573930621E+03  0.20689312404E+03  0.91135475542E+02 0.  0.
        -13    1    3    3    0    0  0.41422356348E+02  0.18173368780E+02  0.10537098370E+03  0.11466969223E+03  0.10570000000E+00 0.  1.
         13    1    3    3    0    0 -0.41422356348E+02 -0.18173368780E+02  0.80368322510E+02  0.92223431805E+02  0.10570000000E+00 0. -1.
<mgrwt>
<rscale>  0 0.91135476E+02</rscale>
<asrwt>0</asrwt>
<pdfrwt beam="2">  1        1 0.16272169E-02 0.91135476E+02</pdfrwt>
<pdfrwt beam="1">  1       -1 0.30202493E-01 0.91135476E+02</pdfrwt>
<totfact> 0.69874903E+04</totfact>
</mgrwt>
</event>
<event>
 5    1  0.2734570E+000  0.9273719E+02  0.7818608E-02  0.1296355E+00
          1   -1    0    0  501    0  0.00000000000E+00  0.00000000000E+00  0.41633110726E+03  0.41633110728E+03  0.46700000000E-02 0. -1.
         -1   -1    0    0    0  501 -0.00000000000E+00 -0.00000000000E+00 -0.51642698259E+01  0.51642719374E+01  0.46700000000E-02 0.  1.
         23    2    1    2    0    0  0.00000000000E+00  0.00000000000E+00  0.41116683743E+03  0.42149537922E+03  0.92737190496E+02 0.  0.
        -13    1    3    3    0    0  0.10384171132E+02 -0.44452236869E+02  0.24256436166E+03  0.24682243232E+03  0.10570000000E+00 0. -1.
         13    1    3    3    0    0 -0.10384171132E+02  0.44452236869E+02  0.16860247576E+03  0.17467294690E+03  0.10570000000E+00 0.  1.
<mgrwt>
<rscale>  0 0.92737190E+02</rscale>
<asrwt>0</asrwt>
<pdfrwt beam="1">  1        1 0.64050961E-01 0.92737190E+02</pdfrwt>
<pdfrwt beam="2">  1       -1 0.79450295E-03 0.92737190E+02</pdfrwt>
<totfact> 0.12977465E+05</totfact>
</mgrwt>
</event>
<event>
 5    1  0.2734570E+000  0.8979067E+02  0.7818608E-02  0.1303359E+00
         -1   -1    0    0    0  501 -0.00000000000E+00  0.00000000000E+00  0.97412346213E+01  0.97412357407E+01  0.46700000000E-02 0.  1.
          1   -1    0    0  501    0  0.00000000000E+00 -0.00000000000E+00 -0.20691332046E+03  0.20691332051E+03  0.46700000000E-02 0. -1.
         23    2    1    2    0    0  0.00000000000E+00  0.00000000000E+00 -0.19717208584E+03  0.21665455625E+03  0.89790674968E+02 0.  0.
        -13    1    3    3    0    0 -0.28602675955E+02 -0.22565856893E+02 -0.16188687864E+03  0.16593584187E+03  0.10570000000E+00 0. -1.
         13    1    3    3    0    0  0.28602675955E+02  0.22565856893E+02 -0.35285207200E+02  0.50718714384E+02  0.10570000000E+00 0.  1.
<mgrwt>
<rscale>  0 0.89790675E+02</rscale>
<asrwt>0</asrwt>
<pdfrwt beam="2">  1        1 0.31832815E-01 0.89790675E+02</pdfrwt>
<pdfrwt beam="1">  1       -1 0.14986517E-02 0.89790675E+02</pdfrwt>
<totfact> 0.12417866E+05</totfact>
</mgrwt>
</event>
<event>
 5    1  0.2734570E+000  0.9226494E+02  0.7818608E-02  0.1297458E+00
          1   -1    0    0  501    0  0.00000000000E+00  0.00000000000E+00  0.84448615989E+01  0.84448628902E+01  0.46700000000E-02 0. -1.
         -1   -1    0    0    0  501 -0.00000000000E+00 -0.00000000000E+00 -0.25201178185E+03  0.25201178190E+03  0.46700000000E-02 0.  1.
         23    2    1    2    0    0  0.00000000000E+00  0.00000000000E+00 -0.24356692025E+03  0.26045664479E+03  0.92264940098E+02 0.  0.
        -13    1    3    3    0    0  0.36842644916E+02 -0.27265100857E+02 -0.10699948761E+03  0.11640304004E+03  0.10570000000E+00 0.  1.
         13    1    3    3    0    0 -0.36842644916E+02  0.27265100857E+02 -0.13656743264E+03  0.14405360474E+03  0.10570000000E+00 0. -1.
<mgrwt>
<rscale>  0 0.92264940E+02</rscale>
<asrwt>0</asrwt>
<pdfrwt beam="1">  1        1 0.12992098E-02 0.92264940E+02</pdfrwt>
<pdfrwt beam="2">  1       -1 0.38771038E-01 0.92264940E+02</pdfrwt>
<totfact> 0.62616339E+04</totfact>
</mgrwt>
</event>
<event>
 5    1  0.2734570E+000  0.9171085E+02  0.7818608E-02  0.1298761E+00
         -1   -1    0    0    0  501 -0.00000000000E+00  0.00000000000E+00  0.49845845417E+01  0.49845867294E+01  0.46700000000E-02 0.  1.
          1   -1    0    0  501    0  0.00000000000E+00 -0.00000000000E+00 -0.42184444703E+03  0.42184444706E+03  0.46700000000E-02 0. -1.
         23    2    1    2    0    0  0.00000000000E+00  0.00000000000E+00 -0.41685986249E+03  0.42682903379E+03  0.91710845205E+02 0.  0.
        -13    1    3    3    0    0 -0.17272035514E+02  0.41072567153E+02 -0.25886377826E+03  0.26267041297E+03  0.10570000000E+00 0. -1.
         13    1    3    3    0    0  0.17272035514E+02 -0.41072567153E+02 -0.15799608423E+03  0.16415862081E+03  0.10570000000E+00 0.  1.
<mgrwt>
<rscale>  0 0.91710845E+02</rscale>
<asrwt>0</asrwt>
<pdfrwt beam="2">  1        1 0.64899118E-01 0.91710845E+02</pdfrwt>
<pdfrwt beam="1">  1       -1 0.76685966E-03 0.91710845E+02</pdfrwt>
<totfact> 0.13394683E+05</totfact>
</mgrwt>
</event>
<event>
 5    1  0.2734570E+000  0.9096123E+02  0.7818608E-02  0.1300541E+00
         -1   -1    0    0    0  501 -0.00000000000E+00  0.00000000000E+00  0.99862844138E+02  0.99862844247E+02  0.46700000000E-02 0.  1.
          1   -1    0    0  501    0  0.00000000000E+00 -0.00000000000E+00 -0.20713270564E+02  0.20713271090E+02  0.46700000000E-02 0. -1.
         23    2    1    2    0    0  0.00000000000E+00  0.00000000000E+00  0.79149573574E+02  0.12057611534E+03  0.90961225766E+02 0.  0.
        -13    1    3    3    0    0  0.38605036845E+01 -0.42770427207E+02  0.59425808817E+02  0.73318830175E+02  0.10570000000E+00 0.  1.
         13    1    3    3    0    0 -0.38605036845E+01  0.42770427207E+02  0.19723764757E+02  0.47257285162E+02  0.10570000000E+00 0. -1.
<mgrwt>
<rscale>  0 0.90961226E+02</rscale>
<asrwt>0</asrwt>
<pdfrwt beam="2">  1        1 0.31866571E-02 0.90961226E+02</pdfrwt>
<pdfrwt beam="1">  1       -1 0.15363514E-01 0.90961226E+02</pdfrwt>
<totfact> 0.81889258E+04</totfact>
</mgrwt>
</event>
<event>
 5    1  0.2734570E+000  0.8761421E+02  0.7818608E-02  0.1308734E+00
         -1   -1    0    0    0  501 -0.00000000000E+00  0.00000000000E+00  0.42236402861E+02  0.42236403119E+02  0.46700000000E-02 0.  1.
          1   -1    0    0  501    0  0.00000000000E+00 -0.00000000000E+00 -0.45436219254E+02  0.45436219494E+02  0.46700000000E-02 0. -1.
         23    2    1    2    0    0  0.00000000000E+00  0.00000000000E+00 -0.31998163930E+01  0.87672622613E+02  0.87614210782E+02 0.  0.
        -13    1    3    3    0    0 -0.17340600862E+02 -0.34576641187E+02  0.18976163211E+02  0.43085339696E+02  0.10570000000E+00 0. -1.
         13    1    3    3    0    0  0.17340600862E+02  0.34576641187E+02 -0.22175979604E+02  0.44587282917E+02  0.10570000000E+00 0.  1.
<mgrwt>
<rscale>  0 0.87614211E+02</rscale>
<asrwt>0</asrwt>
<pdfrwt beam="2">  1        1 0.69901877E-02 0.87614211E+02</pdfrwt>
<pdfrwt beam="1">  1       -1 0.64979081E-02 0.87614211E+02</pdfrwt>
<totfact> 0.10332118E+05</totfact>
</mgrwt>
</event>
<event>
 5    1  0.2734570E+000  0.9035243E+02  0.7818608E-02  0.1302000E+00
          1   -1    0    0  501    0  0.00000000000E+00  0.00000000000E+00  0.41324417048E+03  0.41324417051E+03  0.46700000000E-02 0. -1.
         -1   -1    0    0    0  501 -0.00000000000E+00 -0.00000000000E+00 -0.49387025986E+01  0.49387048066E+01  0.46700000000E-02 0.  1.
         23    2    1    2    0    0  0.00000000000E+00  0.00000000000E+00  0.40830546788E+03  0.41818287532E+03  0.90352432747E+02 0.  0.
        -13    1    3    3    0    0  0.52084928675E+01 -0.44598687480E+02  0.18114650390E+03  0.18662861081E+03  0.10570000000E+00 0.  1.
         13    1    3    3    0    0 -0.52084928675E+01  0.44598687480E+02  0.22715896398E+03  0.23155426451E+03  0.10570000000E+00 0. -1.
<mgrwt>
<rscale>  0 0.90352433E+02</rscale>
<asrwt>0</asrwt>
<pdfrwt beam="1">  1        1 0.63576030E-01 0.90352433E+02</pdfrwt>
<pdfrwt beam="2">  1       -1 0.75980053E-03 0.90352433E+02</pdfrwt>
<totfact> 0.13890829E+05</totfact>
</mgrwt>
</event>
<event>
 5    1  0.2734570E+000  0.9212204E+02  0.7818608E-02  0.1297793E+00
          1   -1    0    0  501    0  0.00000000000E+00  0.00000000000E+00  0.14576285037E+02  0.14576285785E+02  0.46700000000E-02 0. -1.
         -1   -1    0    0    0  501 -0.00000000000E+00 -0.00000000000E+00 -0.14555268337E+03  0.14555268345E+03  0.46700000000E-02 0.  1.
         23    2    1    2    0    0  0.00000000000E+00  0.00000000000E+00 -0.13097639834E+03  0.16012896923E+03  0.92122037897E+02 0.  0.
        -13    1    3    3    0    0 -0.28542645533E+01  0.40770267200E+02 -0.10241251585E+03  0.11026647763E+03  0.10570000000E+00 0.  1.
         13    1    3    3    0    0  0.28542645533E+01 -0.40770267200E+02 -0.28563882489E+02  0.49862491605E+02  0.10570000000E+00 0. -1.
<mgrwt>
<rscale>  0 0.92122038E+02</rscale>
<asrwt>0</asrwt>
<pdfrwt beam="1">  1        1 0.22425055E-02 0.92122038E+02</pdfrwt>
<pdfrwt beam="2">  1       -1 0.22392720E-01 0.92122038E+02</pdfrwt>
<totfact> 0.73321739E+04</totfact>
</mgrwt>
</event>
<event>
 5    1  0.2734570E+000  0.9058660E+02  0.7818608E-02  0.1301437E+00
          1   -1    0    0  501    0  0.00000000000E+00  0.00000000000E+00  0.14319743191E+03  0.14319743199E+03  0.46700000000E-02 0. -1.
         -1   -1    0    0    0  501 -0.00000000000E+00 -0.00000000000E+00 -0.14326256667E+02  0.14326257428E+02  0.46700000000E-02 0.  1.
         23    2    1    2    0    0  0.00000000000E+00  0.00000000000E+00  0.12887117525E+03  0.15752368942E+03  0.90586604520E+02 0.  0.
        -13    1    3    3    0    0  0.80798091217E+01 -0.35606891676E+02  0.11104206900E+03  0.11689091629E+03  0.10570000000E+00 0. -1.
         13    1    3    3    0    0 -0.80798091217E+01  0.35606891676E+02  0.17829106248E+02  0.40632773132E+02  0.10570000000E+00 0.  1.
<mgrwt>
<rscale>  0 0.90586605E+02</rscale>
<asrwt>0</asrwt>
<pdfrwt beam="1">  1        1 0.22030375E-01 0.90586605E+02</pdfrwt>
<pdfrwt beam="2">  1       -1 0.22040395E-02 0.90586605E+02</pdfrwt>
<totfact> 0.11315043E+05</totfact>
</mgrwt>
</event>
<event>
 5    1  0.2734570E+000  0.9326451E+02  0.7818608E-02  0.1295133E+00
         -1   -1    0    0    0  501 -0.00000000000E+00  0.00000000000E+00  0.86917648304E+01  0.86917660850E+01  0.46700000000E-02 0.  1.
          1   -1    0    0  501    0  0.00000000000E+00 -0.00000000000E+00 -0.25018704598E+03  0.25018704602E+03  0.46700000000E-02 0. -1.
         23    2    1    2    0    0  0.00000000000E+00  0.00000000000E+00 -0.24149528115E+03  0.25887881211E+03  0.93264508476E+02 0.  0.
        -13    1    3    3    0    0 -0.41037259320E+02  0.17836653917E+02 -0.15718858594E+03  0.16343336745E+03  0.10570000000E+00 0.  1.
         13    1    3    3    0    0  0.41037259320E+02 -0.17836653917E+02 -0.84306695211E+02  0.95445444655E+02  0.10570000000E+00 0. -1.
<mgrwt>
<rscale>  0 0.93264508E+02</rscale>
<asrwt>0</asrwt>
<pdfrwt beam="2">  1        1 0.38490309E-01 0.93264508E+02</pdfrwt>
<pdfrwt beam="1">  1       -1 0.13371949E-02 0.93264508E+02</pdfrwt>
<totfact> 0.11641610E+05</totfact>
</mgrwt>
</event>
<event>
 5    1  0.2734570E+000  0.8801816E+02  0.7818608E-02  0.1307723E+00
          1   -1    0    0  501    0  0.00000000000E+00  0.00000000000E+00  0.97928486776E+02  0.97928486888E+02  0.46700000000E-02 0. -1.
         -1   -1    0    0    0  501 -0.00000000000E+00 -0.00000000000E+00 -0.19777686347E+02  0.19777686898E+02  0.46700000000E-02 0.  1.
         23    2    1    2    0    0  0.00000000000E+00  0.00000000000E+00  0.78150800430E+02  0.11770617379E+03  0.88018155738E+02 0.  0.
        -13    1    3    3    0    0 -0.86479936177E+01 -0.34985463340E+02  0.52966782668E+01  0.36425765769E+02  0.10570000000E+00 0. -1.
         13    1    3    3    0    0  0.86479936177E+01  0.34985463340E+02  0.72854122163E+02  0.81280408017E+02  0.10570000000E+00 0.  1.
<mgrwt>
<rscale>  0 0.88018156E+02</rscale>
<asrwt>0</asrwt>
<pdfrwt beam="1">  1        1 0.15065921E-01 0.88018156E+02</pdfrwt>
<pdfrwt beam="2">  1       -1 0.30427210E-02 0.88018156E+02</pdfrwt>
<totfact> 0.11456351E+05</totfact>
</mgrwt>
</event>
<event>
 5    1  0.2734570E+000  0.9378460E+02  0.7818608E-02  0.1293937E+00
          1   -1    0    0  501    0  0.00000000000E+00  0.00000000000E+00  0.27091611671E+03  0.27091611675E+03  0.46700000000E-02 0. -1.
         -1   -1    0    0    0  501 -0.00000000000E+00 -0.00000000000E+00 -0.81164889445E+01  0.81164902880E+01  0.46700000000E-02 0.  1.
         23    2    1    2    0    0  0.00000000000E+00  0.00000000000E+00  0.26279962777E+03  0.27903260704E+03  0.93784601279E+02 0.  0.
        -13    1    3    3    0    0 -0.31232298716E+02 -0.23161828946E+02  0.20938030169E+03  0.21296020452E+03  0.10570000000E+00 0. -1.
         13    1    3    3    0    0  0.31232298716E+02  0.23161828946E+02  0.53419326084E+02  0.66072402521E+02  0.10570000000E+00 0.  1.
<mgrwt>
<rscale>  0 0.93784601E+02</rscale>
<asrwt>0</asrwt>
<pdfrwt beam="1">  1        1 0.41679402E-01 0.93784601E+02</pdfrwt>
<pdfrwt beam="2">  1       -1 0.12486907E-02 0.93784601E+02</pdfrwt>
<totfact> 0.11650098E+05</totfact>
</mgrwt>
</event>
<event>
 5    1  0.2734570E+000  0.8888317E+02  0.7818608E-02  0.1305579E+00
          1   -1    0    0  501    0  0.00000000000E+00  0.00000000000E+00  0.70508554364E+02  0.70508554519E+02  0.46700000000E-02 0. -1.
         -1   -1    0    0    0  501 -0.00000000000E+00 -0.00000000000E+00 -0.28011556950E+02  0.28011557339E+02  0.46700000000E-02 0.  1.
         23    2    1    2    0    0  0.00000000000E+00  0.00000000000E+00  0.42496997415E+02  0.98520111858E+02  0.88883168548E+02 0.  0.
        -13    1    3    3    0    0  0.30487065939E+01 -0.25334411089E+02 -0.19082188617E+02  0.31863271834E+02  0.10570000000E+00 0.  1.
         13    1    3    3    0    0 -0.30487065939E+01  0.25334411089E+02  0.61579186032E+02  0.66656840023E+02  0.10570000000E+00 0. -1.
<mgrwt>
<rscale>  0 0.88883169E+02</rscale>
<asrwt>0</asrwt>
<pdfrwt beam="1">  1        1 0.10847470E-01 0.88883169E+02</pdfrwt>
<pdfrwt beam="2">  1       -1 0.43094703E-02 0.88883169E+02</pdfrwt>
<totfact> 0.10594596E+05</totfact>
</mgrwt>
</event>
<event>
 5    1  0.2734570E+000  0.8683027E+02  0.7818608E-02  0.1310714E+00
         -1   -1    0    0    0  501 -0.00000000000E+00  0.00000000000E+00  0.19923126078E+03  0.19923126084E+03  0.46700000000E-02 0.  1.
          1   -1    0    0  501    0  0.00000000000E+00 -0.00000000000E+00 -0.94607340230E+01  0.94607351756E+01  0.46700000000E-02 0. -1.
         23    2    1    2    0    0  0.00000000000E+00  0.00000000000E+00  0.18977052676E+03  0.20869199601E+03  0.86830273368E+02 0.  0.
        -13    1    3    3    0    0  0.11048059591E+02  0.33941114625E+02  0.35485382464E+02  0.50331723831E+02  0.10570000000E+00 0. -1.
         13    1    3    3    0    0 -0.11048059591E+02 -0.33941114625E+02  0.15428514429E+03  0.15836027218E+03  0.10570000000E+00 0.  1.
<mgrwt>
<rscale>  0 0.86830273E+02</rscale>
<asrwt>0</asrwt>
<pdfrwt beam="2">  1        1 0.14554978E-02 0.86830273E+02</pdfrwt>
<pdfrwt beam="1">  1       -1 0.30650959E-01 0.86830273E+02</pdfrwt>
<totfact> 0.78911648E+04</totfact>
</mgrwt>
</event>
<event>
 5    1  0.2734570E+000  0.9387733E+02  0.7818608E-02  0.1293725E+00
         -1   -1    0    0    0  501 -0.00000000000E+00  0.00000000000E+00  0.16119379718E+03  0.16119379724E+03  0.46700000000E-02 0.  1.
          1   -1    0    0  501    0  0.00000000000E+00 -0.00000000000E+00 -0.13668257027E+02  0.13668257825E+02  0.46700000000E-02 0. -1.
         23    2    1    2    0    0  0.00000000000E+00  0.00000000000E+00  0.14752554015E+03  0.17486205507E+03  0.93877331166E+02 0.  0.
        -13    1    3    3    0    0  0.41665903439E+02 -0.10213473623E+02  0.10924469276E+03  0.11736599432E+03  0.10570000000E+00 0.  1.
         13    1    3    3    0    0 -0.41665903439E+02  0.10213473623E+02  0.38280847385E+02  0.57496060750E+02  0.10570000000E+00 0. -1.
<mgrwt>
<rscale>  0 0.93877331E+02</rscale>
<asrwt>0</asrwt>
<pdfrwt beam="2">  1        1 0.21028088E-02 0.93877331E+02</pdfrwt>
<pdfrwt beam="1">  1       -1 0.24799046E-01 0.93877331E+02</pdfrwt>
<totfact> 0.68132407E+04</totfact>
</mgrwt>
</event>
<event>
 5    1  0.2734570E+000  0.9050392E+02  0.7818608E-02  0.1301636E+00
         -1   -1    0    0    0  501 -0.00000000000E+00  0.00000000000E+00  0.49920140341E+02  0.49920140559E+02  0.46700000000E-02 0.  1.
          1   -1    0    0  501    0  0.00000000000E+00 -0.00000000000E+00 -0.41020312882E+02  0.41020313148E+02  0.46700000000E-02 0. -1.
         23    2    1    2    0    0  0.00000000000E+00  0.00000000000E+00  0.88998274590E+01  0.90940453707E+02  0.90503918101E+02 0.  0.
        -13    1    3    3    0    0 -0.20610860254E+02  0.23178803251E+02  0.37558259565E+02  0.48710353259E+02  0.10570000000E+00 0.  1.
         13    1    3    3    0    0  0.20610860254E+02 -0.23178803251E+02 -0.28658432106E+02  0.42230100448E+02  0.10570000000E+00 0. -1.
<mgrwt>
<rscale>  0 0.90503918E+02</rscale>
<asrwt>0</asrwt>
<pdfrwt beam="2">  1        1 0.63108174E-02 0.90503918E+02</pdfrwt>
<pdfrwt beam="1">  1       -1 0.76800216E-02 0.90503918E+02</pdfrwt>
<totfact> 0.92930589E+04</totfact>
</mgrwt>
</event>
<event>
 5    1  0.2734570E+000  0.9193020E+02  0.7818608E-02  0.1298244E+00
         -1   -1    0    0    0  501 -0.00000000000E+00  0.00000000000E+00  0.68893289851E+01  0.68893305679E+01  0.46700000000E-02 0.  1.
          1   -1    0    0  501    0  0.00000000000E+00 -0.00000000000E+00 -0.30667577322E+03  0.30667577326E+03  0.46700000000E-02 0. -1.
         23    2    1    2    0    0  0.00000000000E+00  0.00000000000E+00 -0.29978644424E+03  0.31356510383E+03  0.91930202811E+02 0.  0.
        -13    1    3    3    0    0 -0.25417545393E+01  0.39094472692E+02 -0.23189273697E+03  0.23517884885E+03  0.10570000000E+00 0.  1.
         13    1    3    3    0    0  0.25417545393E+01 -0.39094472692E+02 -0.67893707262E+02  0.78386254978E+02  0.10570000000E+00 0. -1.
<mgrwt>
<rscale>  0 0.91930203E+02</rscale>
<asrwt>0</asrwt>
<pdfrwt beam="2">  1        1 0.47180878E-01 0.91930203E+02</pdfrwt>
<pdfrwt beam="1">  1       -1 0.10598971E-02 0.91930203E+02</pdfrwt>
<totfact> 0.12586646E+05</totfact>
</mgrwt>
</event>
<event>
 5    1  0.2734570E+000  0.9082842E+02  0.7818608E-02  0.1300858E+00
         -1   -1    0    0    0  501 -0.00000000000E+00  0.00000000000E+00  0.44010886102E+02  0.44010886349E+02  0.46700000000E-02 0.  1.
          1   -1    0    0  501    0  0.00000000000E+00 -0.00000000000E+00 -0.46862277873E+02  0.46862278106E+02  0.46700000000E-02 0. -1.
         23    2    1    2    0    0  0.00000000000E+00  0.00000000000E+00 -0.28513917716E+01  0.90873164455E+02  0.90828418367E+02 0.  0.
        -13    1    3    3    0    0  0.14129116115E+01  0.33867755299E+02  0.28812000072E+02  0.44487792583E+02  0.10570000000E+00 0.  1.
         13    1    3    3    0    0 -0.14129116115E+01 -0.33867755299E+02 -0.31663391844E+02  0.46385371873E+02  0.10570000000E+00 0. -1.
<mgrwt>
<rscale>  0 0.90828418E+02</rscale>
<asrwt>0</asrwt>
<pdfrwt beam="2">  1        1 0.72095812E-02 0.90828418E+02</pdfrwt>
<pdfrwt beam="1">  1       -1 0.67709056E-02 0.90828418E+02</pdfrwt>
<totfact> 0.93857587E+04</totfact>
</mgrwt>
</event>
<event>
 5    1  0.2734570E+000  0.9133558E+02  0.7818608E-02  0.1299649E+00
         -1   -1    0    0    0  501 -0.00000000000E+00  0.00000000000E+00  0.64837085546E+01  0.64837102364E+01  0.46700000000E-02 0.  1.
          1   -1    0    0  501    0  0.00000000000E+00 -0.00000000000E+00 -0.32165957032E+03  0.32165957035E+03  0.46700000000E-02 0. -1.
         23    2    1    2    0    0  0.00000000000E+00  0.00000000000E+00 -0.31517586176E+03  0.32814328059E+03  0.91335583191E+02 0.  0.
        -13    1    3    3    0    0  0.32947253772E+02  0.25206177626E+02 -0.22619508682E+03  0.22996760945E+03  0.10570000000E+00 0.  1.
         13    1    3    3    0    0 -0.32947253772E+02 -0.25206177626E+02 -0.88980774944E+02  0.98175671140E+02  0.10570000000E+00 0. -1.
<mgrwt>
<rscale>  0 0.91335583E+02</rscale>
<asrwt>0</asrwt>
<pdfrwt beam="2">  1        1 0.49486075E-01 0.91335583E+02</pdfrwt>
<pdfrwt beam="1">  1       -1 0.99749401E-03 0.91335583E+02</pdfrwt>
<totfact> 0.12921621E+05</totfact>
</mgrwt>
</event>
<event>
 5    1  0.2734570E+000  0.9065796E+02  0.7818608E-02  0.1301266E+00
          1   -1    0    0  501    0  0.00000000000E+00  0.00000000000E+00  0.47859934815E+02  0.47859935043E+02  0.46700000000E-02 0. -1.
         -1   -1    0    0    0  501 -0.00000000000E+00 -0.00000000000E+00 -0.42931866792E+02  0.42931867046E+02  0.46700000000E-02 0.  1.
         23    2    1    2    0    0  0.00000000000E+00  0.00000000000E+00  0.49280680236E+01  0.90791802089E+02  0.90657958680E+02 0.  0.
        -13    1    3    3    0    0  0.17612528399E+02  0.25466382405E+01 -0.39287065721E+02  0.43129702392E+02  0.10570000000E+00 0.  1.
         13    1    3    3    0    0 -0.17612528399E+02 -0.25466382405E+01  0.44215133745E+02  0.47662099697E+02  0.10570000000E+00 0. -1.
<mgrwt>
<rscale>  0 0.90657959E+02</rscale>
<asrwt>0</asrwt>
<pdfrwt beam="1">  1        1 0.73630669E-02 0.90657959E+02</pdfrwt>
<pdfrwt beam="2">  1       -1 0.66049026E-02 0.90657959E+02</pdfrwt>
<totfact> 0.94649754E+04</totfact>
</mgrwt>
</event>
<event>
 5    1  0.2734570E+000  0.9196372E+02  0.7818608E-02  0.1298165E+00
          1   -1    0    0  501    0  0.00000000000E+00  0.00000000000E+00  0.32374592865E+02  0.32374593202E+02  0.46700000000E-02 0. -1.
         -1   -1    0    0    0  501 -0.00000000000E+00 -0.00000000000E+00 -0.65308360088E+02  0.65308360255E+02  0.46700000000E-02 0.  1.
         23    2    1    2    0    0  0.00000000000E+00  0.00000000000E+00 -0.32933767223E+02  0.97682953457E+02  0.91963723133E+02 0.  0.
        -13    1    3    3    0    0 -0.27111647494E+02 -0.36007728146E+02 -0.68060617469E+01  0.45584334646E+02  0.10570000000E+00 0.  1.
         13    1    3    3    0    0  0.27111647494E+02  0.36007728146E+02 -0.26127705476E+02  0.52098618811E+02  0.10570000000E+00 0. -1.
<mgrwt>
<rscale>  0 0.91963723E+02</rscale>
<asrwt>0</asrwt>
<pdfrwt beam="1">  1        1 0.49807066E-02 0.91963723E+02</pdfrwt>
<pdfrwt beam="2">  1       -1 0.10047440E-01 0.91963723E+02</pdfrwt>
<totfact> 0.85612757E+04</totfact>
</mgrwt>
</event>
<event>
 5    1  0.2734570E+000  0.9156089E+02  0.7818608E-02  0.1299115E+00
         -1   -1    0    0    0  501 -0.00000000000E+00  0.00000000000E+00  0.19125673461E+03  0.19125673467E+03  0.46700000000E-02 0.  1.
          1   -1    0    0  501    0  0.00000000000E+00 -0.00000000000E+00 -0.10958302050E+02  0.10958303045E+02  0.46700000000E-02 0. -1.
         23    2    1    2    0    0  0.00000000000E+00  0.00000000000E+00  0.18029843256E+03  0.20221503772E+03  0.91560890634E+02 0.  0.
        -13    1    3    3    0    0  0.64639504389E+01 -0.40468570617E+02  0.45084898928E+02  0.60927392418E+02  0.10570000000E+00 0. -1.
         13    1    3    3    0    0 -0.64639504389E+01  0.40468570617E+02  0.13521353364E+03  0.14128764530E+03  0.10570000000E+00 0.  1.
<mgrwt>
<rscale>  0 0.91560891E+02</rscale>
<asrwt>0</asrwt>
<pdfrwt beam="2">  1        1 0.16858926E-02 0.91560891E+02</pdfrwt>
<pdfrwt beam="1">  1       -1 0.29424114E-01 0.91560891E+02</pdfrwt>
<totfact> 0.69537580E+04</totfact>
</mgrwt>
</event>
<event>
 5    1  0.2734570E+000  0.9115639E+02  0.7818608E-02  0.1300075E+00
          1   -1    0    0  501    0  0.00000000000E+00  0.00000000000E+00  0.13501025836E+03  0.13501025844E+03  0.46700000000E-02 0. -1.
         -1   -1    0    0    0  501 -0.00000000000E+00 -0.00000000000E+00 -0.15386769294E+02  0.15386770002E+02  0.46700000000E-02 0.  1.
         23    2    1    2    0    0  0.00000000000E+00  0.00000000000E+00  0.11962348907E+03  0.15039702845E+03  0.91156387753E+02 0.  0.
        -13    1    3    3    0    0 -0.16693423207E+02 -0.41696187709E+02  0.47019259888E+02  0.65023568195E+02  0.10570000000E+00 0.  1.
         13    1    3    3    0    0  0.16693423207E+02  0.41696187709E+02  0.72604229180E+02  0.85373460251E+02  0.10570000000E+00 0. -1.
<mgrwt>
<rscale>  0 0.91156388E+02</rscale>
<asrwt>0</asrwt>
<pdfrwt beam="1">  1        1 0.20770808E-01 0.91156388E+02</pdfrwt>
<pdfrwt beam="2">  1       -1 0.23671954E-02 0.91156388E+02</pdfrwt>
<totfact> 0.11007479E+05</totfact>
</mgrwt>
</event>
<event>
 5    1  0.2734570E+000  0.9152416E+02  0.7818608E-02  0.1299202E+00
         -1   -1    0    0    0  501 -0.00000000000E+00  0.00000000000E+00  0.12255496503E+02  0.12255497392E+02  0.46700000000E-02 0.  1.
          1   -1    0    0  501    0  0.00000000000E+00 -0.00000000000E+00 -0.17087582612E+03  0.17087582618E+03  0.46700000000E-02 0. -1.
         23    2    1    2    0    0  0.00000000000E+00  0.00000000000E+00 -0.15862032962E+03  0.18313132358E+03  0.91524164606E+02 0.  0.
        -13    1    3    3    0    0  0.17116999287E+02  0.40136914238E+02 -0.51715530394E+02  0.67664398361E+02  0.10570000000E+00 0.  1.
         13    1    3    3    0    0 -0.17116999287E+02 -0.40136914238E+02 -0.10690479922E+03  0.11546692521E+03  0.10570000000E+00 0. -1.
<mgrwt>
<rscale>  0 0.91524165E+02</rscale>
<asrwt>0</asrwt>
<pdfrwt beam="2">  1        1 0.26288587E-01 0.91524165E+02</pdfrwt>
<pdfrwt beam="1">  1       -1 0.18854612E-02 0.91524165E+02</pdfrwt>
<totfact> 0.11371643E+05</totfact>
</mgrwt>
</event>
<event>
 5    1  0.2734570E+000  0.8505195E+02  0.7818608E-02  0.1315297E+00
          1   -1    0    0  501    0  0.00000000000E+00  0.00000000000E+00  0.48681702401E+02  0.48681702625E+02  0.46700000000E-02 0. -1.
         -1   -1    0    0    0  501 -0.00000000000E+00 -0.00000000000E+00 -0.37148631083E+02  0.37148631376E+02  0.46700000000E-02 0.  1.
         23    2    1    2    0    0  0.00000000000E+00  0.00000000000E+00  0.11533071318E+02  0.85830334001E+02  0.85051951775E+02 0.  0.
        -13    1    3    3    0    0  0.13418197846E+02  0.22023579660E+02 -0.28356548204E+02  0.38330028607E+02  0.10570000000E+00 0.  1.
         13    1    3    3    0    0 -0.13418197846E+02 -0.22023579660E+02  0.39889619522E+02  0.47500305394E+02  0.10570000000E+00 0. -1.
<mgrwt>
<rscale>  0 0.85051952E+02</rscale>
<asrwt>0</asrwt>
<pdfrwt beam="1">  1        1 0.74894927E-02 0.85051952E+02</pdfrwt>
<pdfrwt beam="2">  1       -1 0.57151741E-02 0.85051952E+02</pdfrwt>
<totfact> 0.11331121E+05</totfact>
</mgrwt>
</event>
<event>
 5    1  0.2734570E+000  0.9213636E+02  0.7818608E-02  0.1297759E+00
          1   -1    0    0  501    0  0.00000000000E+00  0.00000000000E+00  0.50853617938E+02  0.50853618152E+02  0.46700000000E-02 0. -1.
         -1   -1    0    0    0  501 -0.00000000000E+00 -0.00000000000E+00 -0.41733066249E+02  0.41733066511E+02  0.46700000000E-02 0.  1.
         23    2    1    2    0    0  0.00000000000E+00  0.00000000000E+00  0.91205516887E+01  0.92586684663E+02  0.92136364774E+02 0.  0.
        -13    1    3    3    0    0 -0.41992086883E+02 -0.18945461863E+02  0.45796047690E+01  0.46295246390E+02  0.10570000000E+00 0.  1.
         13    1    3    3    0    0  0.41992086883E+02  0.18945461863E+02  0.45409469197E+01  0.46291438273E+02  0.10570000000E+00 0. -1.
<mgrwt>
<rscale>  0 0.92136365E+02</rscale>
<asrwt>0</asrwt>
<pdfrwt beam="1">  1        1 0.78236335E-02 0.92136365E+02</pdfrwt>
<pdfrwt beam="2">  1       -1 0.64204718E-02 0.92136365E+02</pdfrwt>
<totfact> 0.91288672E+04</totfact>
</mgrwt>
</event>
<event>
 5    1  0.2734570E+000  0.9158337E+02  0.7818608E-02  0.1299062E+00
          1   -1    0    0  501    0  0.00000000000E+00  0.00000000000E+00  0.98688186780E+01  0.98688197829E+01  0.46700000000E-02 0. -1.
         -1   -1    0    0    0  501 -0.00000000000E+00 -0.00000000000E+00 -0.21247509425E+03  0.21247509430E+03  0.46700000000E-02 0.  1.
         23    2    1    2    0    0  0.00000000000E+00  0.00000000000E+00 -0.20260627557E+03  0.22234391409E+03  0.91583367645E+02 0.  0.
        -13    1    3    3    0    0 -0.33703994531E+02  0.55021843130E+01 -0.17536558554E+03  0.17865982493E+03  0.10570000000E+00 0.  1.
         13    1    3    3    0    0  0.33703994531E+02 -0.55021843130E+01 -0.27240690038E+02  0.43684089161E+02  0.10570000000E+00 0. -1.
<mgrwt>
<rscale>  0 0.91583368E+02</rscale>
<asrwt>0</asrwt>
<pdfrwt beam="1">  1        1 0.15182800E-02 0.91583368E+02</pdfrwt>
<pdfrwt beam="2">  1       -1 0.32688473E-01 0.91583368E+02</pdfrwt>
<totfact> 0.67419368E+04</totfact>
</mgrwt>
</event>
<event>
 5    1  0.2734570E+000  0.9053686E+02  0.7818608E-02  0.1301557E+00
         -1   -1    0    0    0  501 -0.00000000000E+00  0.00000000000E+00  0.10338455995E+03  0.10338456005E+03  0.46700000000E-02 0.  1.
          1   -1    0    0  501    0  0.00000000000E+00 -0.00000000000E+00 -0.19821437734E+02  0.19821438284E+02  0.46700000000E-02 0. -1.
         23    2    1    2    0    0  0.00000000000E+00  0.00000000000E+00  0.83563122214E+02  0.12320599834E+03  0.90536857864E+02 0.  0.
        -13    1    3    3    0    0 -0.33243082010E+02 -0.24153653696E+02  0.15935739665E+02  0.44073353169E+02  0.10570000000E+00 0. -1.
         13    1    3    3    0    0  0.33243082010E+02  0.24153653696E+02  0.67627382548E+02  0.79132645167E+02  0.10570000000E+00 0.  1.
<mgrwt>
<rscale>  0 0.90536858E+02</rscale>
<asrwt>0</asrwt>
<pdfrwt beam="2">  1        1 0.30494521E-02 0.90536858E+02</pdfrwt>
<pdfrwt beam="1">  1       -1 0.15905317E-01 0.90536858E+02</pdfrwt>
<totfact> 0.82344746E+04</totfact>
</mgrwt>
</event>
<event>
 5    1  0.2734570E+000  0.9343831E+02  0.7818608E-02  0.1294733E+00
         -1   -1    0    0    0  501 -0.00000000000E+00  0.00000000000E+00  0.31119730685E+02  0.31119731036E+02  0.46700000000E-02 0.  1.
          1   -1    0    0  501    0  0.00000000000E+00 -0.00000000000E+00 -0.70138119847E+02  0.70138120003E+02  0.46700000000E-02 0. -1.
         23    2    1    2    0    0  0.00000000000E+00  0.00000000000E+00 -0.39018389162E+02  0.10125785104E+03  0.93438309617E+02 0.  0.
        -13    1    3    3    0    0  0.14145146770E+01 -0.13725748021E+02  0.28861014690E+02  0.31990097717E+02  0.10570000000E+00 0.  1.
         13    1    3    3    0    0 -0.14145146770E+01  0.13725748021E+02 -0.67879403851E+02  0.69267753322E+02  0.10570000000E+00 0. -1.
<mgrwt>
<rscale>  0 0.93438310E+02</rscale>
<asrwt>0</asrwt>
<pdfrwt beam="2">  1        1 0.10790480E-01 0.93438310E+02</pdfrwt>
<pdfrwt beam="1">  1       -1 0.47876509E-02 0.93438310E+02</pdfrwt>
<totfact> 0.92232113E+04</totfact>
</mgrwt>
</event>
<event>
 5    1  0.2734570E+000  0.9094432E+02  0.7818608E-02  0.1300581E+00
         -1   -1    0    0    0  501 -0.00000000000E+00  0.00000000000E+00  0.23225323889E+02  0.23225324359E+02  0.46700000000E-02 0.  1.
          1   -1    0    0  501    0  0.00000000000E+00 -0.00000000000E+00 -0.89028567814E+02  0.89028567936E+02  0.46700000000E-02 0. -1.
         23    2    1    2    0    0  0.00000000000E+00  0.00000000000E+00 -0.65803243924E+02  0.11225389229E+03  0.90944320463E+02 0.  0.
        -13    1    3    3    0    0  0.88777672799E+01 -0.25312921137E+02 -0.78222104429E+02  0.82693817920E+02  0.10570000000E+00 0. -1.
         13    1    3    3    0    0 -0.88777672799E+01  0.25312921137E+02  0.12418860505E+02  0.29560074375E+02  0.10570000000E+00 0.  1.
<mgrwt>
<rscale>  0 0.90944320E+02</rscale>
<asrwt>0</asrwt>
<pdfrwt beam="2">  1        1 0.13696703E-01 0.90944320E+02</pdfrwt>
<pdfrwt beam="1">  1       -1 0.35731269E-02 0.90944320E+02</pdfrwt>
<totfact> 0.10319847E+05</totfact>
</mgrwt>
</event>
<event>
 5    1  0.2734570E+000  0.9144291E+02  0.7818608E-02  0.1299395E+00
         -1   -1    0    0    0  501 -0.00000000000E+00  0.00000000000E+00  0.84616225747E+01  0.84616238634E+01  0.46700000000E-02 0.  1.
          1   -1    0    0  501    0  0.00000000000E+00 -0.00000000000E+00 -0.24705089117E+03  0.24705089121E+03  0.46700000000E-02 0. -1.
         23    2    1    2    0    0  0.00000000000E+00  0.00000000000E+00 -0.23858926859E+03  0.25551251508E+03  0.91442912641E+02 0.  0.
        -13    1    3    3    0    0 -0.20213344649E+02  0.40640558301E+02 -0.10393752203E+03  0.11341628604E+03  0.10570000000E+00 0. -1.
         13    1    3    3    0    0  0.20213344649E+02 -0.40640558301E+02 -0.13465174657E+03  0.14209622904E+03  0.10570000000E+00 0.  1.
<mgrwt>
<rscale>  0 0.91442913E+02</rscale>
<asrwt>0</asrwt>
<pdfrwt beam="2">  1        1 0.38007824E-01 0.91442913E+02</pdfrwt>
<pdfrwt beam="1">  1       -1 0.13017884E-02 0.91442913E+02</pdfrwt>
<totfact> 0.12242667E+05</totfact>
</mgrwt>
</event>
<event>
 5    1  0.2734570E+000  0.9259068E+02  0.7818608E-02  0.1296697E+00
          1   -1    0    0  501    0  0.00000000000E+00  0.00000000000E+00  0.58919812384E+02  0.58919812569E+02  0.46700000000E-02 0. -1.
         -1   -1    0    0    0  501 -0.00000000000E+00 -0.00000000000E+00 -0.36375855981E+02  0.36375856281E+02  0.46700000000E-02 0.  1.
         23    2    1    2    0    0  0.00000000000E+00  0.00000000000E+00  0.22543956403E+02  0.95295668850E+02  0.92590682745E+02 0.  0.
        -13    1    3    3    0    0 -0.37859639701E+02  0.91980759582E+01  0.37008319393E+02  0.53736242857E+02  0.10570000000E+00 0. -1.
         13    1    3    3    0    0  0.37859639701E+02 -0.91980759582E+01 -0.14464362990E+02  0.41559425992E+02  0.10570000000E+00 0.  1.
<mgrwt>
<rscale>  0 0.92590683E+02</rscale>
<asrwt>0</asrwt>
<pdfrwt beam="1">  1        1 0.90645865E-02 0.92590683E+02</pdfrwt>
<pdfrwt beam="2">  1       -1 0.55962856E-02 0.92590683E+02</pdfrwt>
<totfact> 0.92079976E+04</totfact>
</mgrwt>
</event>
<event>
 5    1  0.2734570E+000  0.9194344E+02  0.7818608E-02  0.1298212E+00
         -1   -1    0    0    0  501 -0.00000000000E+00  0.00000000000E+00  0.48278223984E+02  0.48278224210E+02  0.46700000000E-02 0.  1.
          1   -1    0    0  501    0  0.00000000000E+00 -0.00000000000E+00 -0.43775407919E+02  0.43775408168E+02  0.46700000000E-02 0. -1.
         23    2    1    2    0    0  0.00000000000E+00  0.00000000000E+00  0.45028160646E+01  0.92053632378E+02  0.91943438491E+02 0.  0.
        -13    1    3    3    0    0 -0.10747315460E+01  0.10079092155E+02 -0.42642545241E+02  0.43830822302E+02  0.10570000000E+00 0. -1.
         13    1    3    3    0    0  0.10747315460E+01 -0.10079092155E+02  0.47145361305E+02  0.48222810076E+02  0.10570000000E+00 0.  1.
<mgrwt>
<rscale>  0 0.91943438E+02</rscale>
<asrwt>0</asrwt>
<pdfrwt beam="2">  1        1 0.67346782E-02 0.91943438E+02</pdfrwt>
<pdfrwt beam="1">  1       -1 0.74274191E-02 0.91943438E+02</pdfrwt>
<totfact> 0.89766749E+04</totfact>
</mgrwt>
</event>
<event>
 4    1  0.2734570E+000  0.1555816E+03  0.7818608E-02  0.1193777E+00
          1   -1    0    0  501    0  0.00000000000E+00  0.00000000000E+00  0.10164029981E+02  0.10164031054E+02  0.46700000000E-02 0. -1.
         -1   -1    0    0    0  501 -0.00000000000E+00 -0.00000000000E+00 -0.59537516225E+03  0.59537516227E+03  0.46700000000E-02 0.  1.
        -13    1    1    2    0    0 -0.74823475148E+02  0.21279605833E+02 -0.29323434308E+03  0.30337726545E+03  0.10570000000E+00 0.  1.
         13    1    1    2    0    0  0.74823475148E+02 -0.21279605833E+02 -0.29197678918E+03  0.30216192787E+03  0.10570000000E+00 0. -1.
<mgrwt>
<rscale>  0 0.15558164E+03</rscale>
<asrwt>0</asrwt>
<pdfrwt beam="1">  1        1 0.15636975E-02 0.15558164E+03</pdfrwt>
<pdfrwt beam="2">  1       -1 0.91596151E-01 0.15558164E+03</pdfrwt>
<totfact> 0.10019902E+04</totfact>
</mgrwt>
</event>
<event>
 5    1  0.2734570E+000  0.9090886E+02  0.7818608E-02  0.1300666E+00
          1   -1    0    0  501    0  0.00000000000E+00  0.00000000000E+00  0.13313194451E+02  0.13313195270E+02  0.46700000000E-02 0. -1.
         -1   -1    0    0    0  501 -0.00000000000E+00 -0.00000000000E+00 -0.15519227924E+03  0.15519227931E+03  0.46700000000E-02 0.  1.
         23    2    1    2    0    0  0.00000000000E+00  0.00000000000E+00 -0.14187908479E+03  0.16850547458E+03  0.90908856900E+02 0.  0.
        -13    1    3    3    0    0  0.11666865971E+02  0.43903682031E+02 -0.73837771160E+02  0.86693002485E+02  0.10570000000E+00 0. -1.
         13    1    3    3    0    0 -0.11666865971E+02 -0.43903682031E+02 -0.68041313628E+02  0.81812472094E+02  0.10570000000E+00 0.  1.
<mgrwt>
<rscale>  0 0.90908857E+02</rscale>
<asrwt>0</asrwt>
<pdfrwt beam="1">  1        1 0.20481839E-02 0.90908857E+02</pdfrwt>
<pdfrwt beam="2">  1       -1 0.23875734E-01 0.90908857E+02</pdfrwt>
<totfact> 0.74757731E+04</totfact>
</mgrwt>
</event>
<event>
 5    1  0.2734570E+000  0.9095181E+02  0.7818608E-02  0.1300563E+00
          1   -1    0    0  501    0  0.00000000000E+00  0.00000000000E+00  0.24261973492E+02  0.24261973941E+02  0.46700000000E-02 0. -1.
         -1   -1    0    0    0  501 -0.00000000000E+00 -0.00000000000E+00 -0.85238656934E+02  0.85238657062E+02  0.46700000000E-02 0.  1.
         23    2    1    2    0    0  0.00000000000E+00  0.00000000000E+00 -0.60976683442E+02  0.10950063100E+03  0.90951812881E+02 0.  0.
        -13    1    3    3    0    0 -0.17122945533E+02 -0.25069967464E+02  0.10274417083E+02  0.32051105305E+02  0.10570000000E+00 0. -1.
         13    1    3    3    0    0  0.17122945533E+02  0.25069967464E+02 -0.71251100525E+02  0.77449525698E+02  0.10570000000E+00 0.  1.
<mgrwt>
<rscale>  0 0.90951813E+02</rscale>
<asrwt>0</asrwt>
<pdfrwt beam="1">  1        1 0.37326114E-02 0.90951813E+02</pdfrwt>
<pdfrwt beam="2">  1       -1 0.13113639E-01 0.90951813E+02</pdfrwt>
<totfact> 0.84269038E+04</totfact>
</mgrwt>
</event>
<event>
 5    1  0.2734570E+000  0.9214514E+02  0.7818608E-02  0.1297739E+00
          1   -1    0    0  501    0  0.00000000000E+00  0.00000000000E+00  0.20959139117E+03  0.20959139123E+03  0.46700000000E-02 0. -1.
         -1   -1    0    0    0  501 -0.00000000000E+00 -0.00000000000E+00 -0.10127714253E+02  0.10127715329E+02  0.46700000000E-02 0.  1.
         23    2    1    2    0    0  0.00000000000E+00  0.00000000000E+00  0.19946367692E+03  0.21971910655E+03  0.92145142978E+02 0.  0.
        -13    1    3    3    0    0  0.49416850177E+01  0.37973816672E+02  0.38647958442E+02  0.54406864159E+02  0.10570000000E+00 0.  1.
         13    1    3    3    0    0 -0.49416850177E+01 -0.37973816672E+02  0.16081571848E+03  0.16531224240E+03  0.10570000000E+00 0. -1.
<mgrwt>
<rscale>  0 0.92145143E+02</rscale>
<asrwt>0</asrwt>
<pdfrwt beam="1">  1        1 0.32244827E-01 0.92145143E+02</pdfrwt>
<pdfrwt beam="2">  1       -1 0.15581101E-02 0.92145143E+02</pdfrwt>
<totfact> 0.11614942E+05</totfact>
</mgrwt>
</event>
<event>
 5    1  0.2734570E+000  0.9290390E+02  0.7818608E-02  0.1295968E+00
         -1   -1    0    0    0  501 -0.00000000000E+00  0.00000000000E+00  0.16741717455E+02  0.16741718107E+02  0.46700000000E-02 0.  1.
          1   -1    0    0  501    0  0.00000000000E+00 -0.00000000000E+00 -0.12888664066E+03  0.12888664075E+03  0.46700000000E-02 0. -1.
         23    2    1    2    0    0  0.00000000000E+00  0.00000000000E+00 -0.11214492321E+03  0.14562835886E+03  0.92903902509E+02 0.  0.
        -13    1    3    3    0    0 -0.69630094368E+01  0.39875768712E+02 -0.91790239356E+02  0.10031958754E+03  0.10570000000E+00 0. -1.
         13    1    3    3    0    0  0.69630094368E+01 -0.39875768712E+02 -0.20354683853E+02  0.45308771314E+02  0.10570000000E+00 0.  1.
<mgrwt>
<rscale>  0 0.92903903E+02</rscale>
<asrwt>0</asrwt>
<pdfrwt beam="2">  1        1 0.19828713E-01 0.92903903E+02</pdfrwt>
<pdfrwt beam="1">  1       -1 0.25756490E-02 0.92903903E+02</pdfrwt>
<totfact> 0.10368570E+05</totfact>
</mgrwt>
</event>
<event>
 5    1  0.2734570E+000  0.9771342E+02  0.7818608E-02  0.1285179E+00
          1   -1    0    0  501    0  0.00000000000E+00  0.00000000000E+00  0.69571662367E+01  0.69571678041E+01  0.46700000000E-02 0. -1.
         -1   -1    0    0    0  501 -0.00000000000E+00 -0.00000000000E+00 -0.34309627510E+03  0.34309627514E+03  0.46700000000E-02 0.  1.
         23    2    1    2    0    0  0.00000000000E+00  0.00000000000E+00 -0.33613910887E+03  0.35005344294E+03  0.97713419774E+02 0.  0.
        -13    1    3    3    0    0  0.48196374573E+02 -0.11853754130E+01 -0.13970901656E+03  0.14779349146E+03  0.10570000000E+00 0.  1.
         13    1    3    3    0    0 -0.48196374573E+02  0.11853754130E+01 -0.19643009231E+03  0.20225995148E+03  0.10570000000E+00 0. -1.
<mgrwt>
<rscale>  0 0.97713420E+02</rscale>
<asrwt>0</asrwt>
<pdfrwt beam="1">  1        1 0.10703337E-02 0.97713420E+02</pdfrwt>
<pdfrwt beam="2">  1       -1 0.52784029E-01 0.97713420E+02</pdfrwt>
<totfact> 0.47769885E+04</totfact>
</mgrwt>
</event>
<event>
 5    1  0.2734570E+000  0.9379121E+02  0.7818608E-02  0.1293922E+00
          1   -1    0    0  501    0  0.00000000000E+00  0.00000000000E+00  0.44708967300E+02  0.44708967544E+02  0.46700000000E-02 0. -1.
         -1   -1    0    0    0  501 -0.00000000000E+00 -0.00000000000E+00 -0.49189190107E+02  0.49189190329E+02  0.46700000000E-02 0.  1.
         23    2    1    2    0    0  0.00000000000E+00  0.00000000000E+00 -0.44802228070E+01  0.93898157872E+02  0.93791213103E+02 0.  0.
        -13    1    3    3    0    0  0.39169529856E+02  0.56236487641E+01 -0.27434442571E+02  0.48151192158E+02  0.10570000000E+00 0.  1.
         13    1    3    3    0    0 -0.39169529856E+02 -0.56236487641E+01  0.22954219764E+02  0.45746965714E+02  0.10570000000E+00 0. -1.
<mgrwt>
<rscale>  0 0.93791213E+02</rscale>
<asrwt>0</asrwt>
<pdfrwt beam="1">  1        1 0.68783027E-02 0.93791213E+02</pdfrwt>
<pdfrwt beam="2">  1       -1 0.75675678E-02 0.93791213E+02</pdfrwt>
<totfact> 0.85139771E+04</totfact>
</mgrwt>
</event>
<event>
 5    1  0.2734570E+000  0.9215192E+02  0.7818608E-02  0.1297723E+00
          1   -1    0    0  501    0  0.00000000000E+00  0.00000000000E+00  0.43274337539E+02  0.43274337791E+02  0.46700000000E-02 0. -1.
         -1   -1    0    0    0  501 -0.00000000000E+00 -0.00000000000E+00 -0.49058956790E+02  0.49058957012E+02  0.46700000000E-02 0.  1.
         23    2    1    2    0    0  0.00000000000E+00  0.00000000000E+00 -0.57846192508E+01  0.92333294804E+02  0.92151915387E+02 0.  0.
        -13    1    3    3    0    0 -0.12534002228E+02 -0.17795830793E+02 -0.43582460460E+02  0.48715858175E+02  0.10570000000E+00 0.  1.
         13    1    3    3    0    0  0.12534002228E+02  0.17795830793E+02  0.37797841210E+02  0.43617436629E+02  0.10570000000E+00 0. -1.
<mgrwt>
<rscale>  0 0.92151915E+02</rscale>
<asrwt>0</asrwt>
<pdfrwt beam="1">  1        1 0.66575905E-02 0.92151915E+02</pdfrwt>
<pdfrwt beam="2">  1       -1 0.75475318E-02 0.92151915E+02</pdfrwt>
<totfact> 0.89039204E+04</totfact>
</mgrwt>
</event>
<event>
 5    1  0.2734570E+000  0.9054111E+02  0.7818608E-02  0.1301547E+00
         -1   -1    0    0    0  501 -0.00000000000E+00  0.00000000000E+00  0.34632636128E+02  0.34632636442E+02  0.46700000000E-02 0.  1.
          1   -1    0    0  501    0  0.00000000000E+00 -0.00000000000E+00 -0.59176068616E+02  0.59176068800E+02  0.46700000000E-02 0. -1.
         23    2    1    2    0    0  0.00000000000E+00  0.00000000000E+00 -0.24543432488E+02  0.93808705242E+02  0.90541112766E+02 0.  0.
        -13    1    3    3    0    0 -0.16014366788E+02 -0.18280436401E+02  0.27300637936E+02  0.36550927524E+02  0.10570000000E+00 0.  1.
         13    1    3    3    0    0  0.16014366788E+02  0.18280436401E+02 -0.51844070424E+02  0.57257777719E+02  0.10570000000E+00 0. -1.
<mgrwt>
<rscale>  0 0.90541113E+02</rscale>
<asrwt>0</asrwt>
<pdfrwt beam="2">  1        1 0.91040106E-02 0.90541113E+02</pdfrwt>
<pdfrwt beam="1">  1       -1 0.53280979E-02 0.90541113E+02</pdfrwt>
<totfact> 0.98053578E+04</totfact>
</mgrwt>
</event>
<event>
 5    1  0.2734570E+000  0.8142721E+02  0.7818608E-02  0.1325049E+00
          1   -1    0    0  501    0  0.00000000000E+00  0.00000000000E+00  0.21354258324E+03  0.21354258329E+03  0.46700000000E-02 0. -1.
         -1   -1    0    0    0  501 -0.00000000000E+00 -0.00000000000E+00 -0.77623742910E+01  0.77623756958E+01  0.46700000000E-02 0.  1.
         23    2    1    2    0    0  0.00000000000E+00  0.00000000000E+00  0.20578020895E+03  0.22130495898E+03  0.81427209685E+02 0.  0.
        -13    1    3    3    0    0  0.20776278085E+02 -0.26566726232E+02  0.40905696185E+02  0.53016335470E+02  0.10570000000E+00 0.  1.
         13    1    3    3    0    0 -0.20776278085E+02  0.26566726232E+02  0.16487451276E+03  0.16828862351E+03  0.10570000000E+00 0. -1.
<mgrwt>
<rscale>  0 0.81427210E+02</rscale>
<asrwt>0</asrwt>
<pdfrwt beam="1">  1        1 0.32852706E-01 0.81427210E+02</pdfrwt>
<pdfrwt beam="2">  1       -1 0.11942115E-02 0.81427210E+02</pdfrwt>
<totfact> 0.16203111E+05</totfact>
</mgrwt>
</event>
<event>
 5    1  0.2734570E+000  0.9169021E+02  0.7818608E-02  0.1298809E+00
         -1   -1    0    0    0  501 -0.00000000000E+00  0.00000000000E+00  0.11084218578E+02  0.11084219562E+02  0.46700000000E-02 0.  1.
          1   -1    0    0  501    0  0.00000000000E+00 -0.00000000000E+00 -0.18961854897E+03  0.18961854903E+03  0.46700000000E-02 0. -1.
         23    2    1    2    0    0  0.00000000000E+00  0.00000000000E+00 -0.17853433039E+03  0.20070276859E+03  0.91690207716E+02 0.  0.
        -13    1    3    3    0    0  0.20324221978E+02  0.26630451220E+02 -0.15777405913E+03  0.16129141278E+03  0.10570000000E+00 0. -1.
         13    1    3    3    0    0 -0.20324221978E+02 -0.26630451220E+02 -0.20760271268E+02  0.39411355810E+02  0.10570000000E+00 0.  1.
<mgrwt>
<rscale>  0 0.91690208E+02</rscale>
<asrwt>0</asrwt>
<pdfrwt beam="2">  1        1 0.29172082E-01 0.91690208E+02</pdfrwt>
<pdfrwt beam="1">  1       -1 0.17052646E-02 0.91690208E+02</pdfrwt>
<totfact> 0.11543678E+05</totfact>
</mgrwt>
</event>
<event>
 5    1  0.2734570E+000  0.8964376E+02  0.7818608E-02  0.1303717E+00
         -1   -1    0    0    0  501 -0.00000000000E+00  0.00000000000E+00  0.53341009393E+02  0.53341009597E+02  0.46700000000E-02 0.  1.
          1   -1    0    0  501    0  0.00000000000E+00 -0.00000000000E+00 -0.37663344090E+02  0.37663344380E+02  0.46700000000E-02 0. -1.
         23    2    1    2    0    0  0.00000000000E+00  0.00000000000E+00  0.15677665303E+02  0.91004353977E+02  0.89643757470E+02 0.  0.
        -13    1    3    3    0    0  0.70334986628E+01  0.21059755952E+02 -0.31688054168E+02  0.38692730243E+02  0.10570000000E+00 0. -1.
         13    1    3    3    0    0 -0.70334986628E+01 -0.21059755952E+02  0.47365719471E+02  0.52311623734E+02  0.10570000000E+00 0.  1.
<mgrwt>
<rscale>  0 0.89643757E+02</rscale>
<asrwt>0</asrwt>
<pdfrwt beam="2">  1        1 0.57943607E-02 0.89643757E+02</pdfrwt>
<pdfrwt beam="1">  1       -1 0.82063092E-02 0.89643757E+02</pdfrwt>
<totfact> 0.94246211E+04</totfact>
</mgrwt>
</event>
<event>
 5    1  0.2734570E+000  0.8851462E+02  0.7818608E-02  0.1306489E+00
         -1   -1    0    0    0  501 -0.00000000000E+00  0.00000000000E+00  0.98231461668E+02  0.98231461779E+02  0.46700000000E-02 0.  1.
          1   -1    0    0  501    0  0.00000000000E+00 -0.00000000000E+00 -0.19939737125E+02  0.19939737672E+02  0.46700000000E-02 0. -1.
         23    2    1    2    0    0  0.00000000000E+00  0.00000000000E+00  0.78291724543E+02  0.11817119945E+03  0.88514621660E+02 0.  0.
        -13    1    3    3    0    0  0.88075601345E+01  0.43227038438E+02  0.43875100367E+02  0.62218852227E+02  0.10570000000E+00 0.  1.
         13    1    3    3    0    0 -0.88075601345E+01 -0.43227038438E+02  0.34416624176E+02  0.55952347223E+02  0.10570000000E+00 0. -1.
<mgrwt>
<rscale>  0 0.88514622E+02</rscale>
<asrwt>0</asrwt>
<pdfrwt beam="2">  1        1 0.30676520E-02 0.88514622E+02</pdfrwt>
<pdfrwt beam="1">  1       -1 0.15112532E-01 0.88514622E+02</pdfrwt>
<totfact> 0.88101719E+04</totfact>
</mgrwt>
</event>
<event>
 5    1  0.2734570E+000  0.9039478E+02  0.7818608E-02  0.1301898E+00
         -1   -1    0    0    0  501 -0.00000000000E+00  0.00000000000E+00  0.17671016582E+02  0.17671017199E+02  0.46700000000E-02 0.  1.
          1   -1    0    0  501    0  0.00000000000E+00 -0.00000000000E+00 -0.11560194600E+03  0.11560194610E+03  0.46700000000E-02 0. -1.
         23    2    1    2    0    0  0.00000000000E+00  0.00000000000E+00 -0.97930929423E+02  0.13327296330E+03  0.90394777551E+02 0.  0.
        -13    1    3    3    0    0  0.36326121933E+02  0.24017337410E+02 -0.66802777235E+02  0.79743600682E+02  0.10570000000E+00 0. -1.
         13    1    3    3    0    0 -0.36326121933E+02 -0.24017337410E+02 -0.31128152188E+02  0.53529362616E+02  0.10570000000E+00 0.  1.
<mgrwt>
<rscale>  0 0.90394778E+02</rscale>
<asrwt>0</asrwt>
<pdfrwt beam="2">  1        1 0.17784914E-01 0.90394778E+02</pdfrwt>
<pdfrwt beam="1">  1       -1 0.27186181E-02 0.90394778E+02</pdfrwt>
<totfact> 0.10957531E+05</totfact>
</mgrwt>
</event>
<event>
 5    1  0.2734570E+000  0.9015253E+02  0.7818608E-02  0.1302483E+00
         -1   -1    0    0    0  501 -0.00000000000E+00  0.00000000000E+00  0.63366104876E+02  0.63366105048E+02  0.46700000000E-02 0.  1.
          1   -1    0    0  501    0  0.00000000000E+00 -0.00000000000E+00 -0.32065557511E+02  0.32065557851E+02  0.46700000000E-02 0. -1.
         23    2    1    2    0    0  0.00000000000E+00  0.00000000000E+00  0.31300547366E+02  0.95431662899E+02  0.90152526411E+02 0.  0.
        -13    1    3    3    0    0  0.28245791472E+02 -0.23532520840E+02  0.43259240874E+02  0.56771272370E+02  0.10570000000E+00 0.  1.
         13    1    3    3    0    0 -0.28245791472E+02  0.23532520840E+02 -0.11958693508E+02  0.38660390529E+02  0.10570000000E+00 0. -1.
<mgrwt>
<rscale>  0 0.90152526E+02</rscale>
<asrwt>0</asrwt>
<pdfrwt beam="2">  1        1 0.49331628E-02 0.90152526E+02</pdfrwt>
<pdfrwt beam="1">  1       -1 0.97486315E-02 0.90152526E+02</pdfrwt>
<totfact> 0.90483514E+04</totfact>
</mgrwt>
</event>
<event>
 5    1  0.2734570E+000  0.9190027E+02  0.7818608E-02  0.1298314E+00
         -1   -1    0    0    0  501 -0.00000000000E+00  0.00000000000E+00  0.28380898544E+02  0.28380898928E+02  0.46700000000E-02 0.  1.
          1   -1    0    0  501    0  0.00000000000E+00 -0.00000000000E+00 -0.74395633452E+02  0.74395633599E+02  0.46700000000E-02 0. -1.
         23    2    1    2    0    0  0.00000000000E+00  0.00000000000E+00 -0.46014734908E+02  0.10277653253E+03  0.91900270999E+02 0.  0.
        -13    1    3    3    0    0 -0.40781347613E+02  0.75064849976E+01 -0.86694320890E+00  0.41475636139E+02  0.10570000000E+00 0.  1.
         13    1    3    3    0    0  0.40781347613E+02 -0.75064849976E+01 -0.45147791700E+02  0.61300896388E+02  0.10570000000E+00 0. -1.
<mgrwt>
<rscale>  0 0.91900271E+02</rscale>
<asrwt>0</asrwt>
<pdfrwt beam="2">  1        1 0.11445482E-01 0.91900271E+02</pdfrwt>
<pdfrwt beam="1">  1       -1 0.43662921E-02 0.91900271E+02</pdfrwt>
<totfact> 0.97457318E+04</totfact>
</mgrwt>
</event>
<event>
 5    1  0.2734570E+000  0.9183903E+02  0.7818608E-02  0.1298458E+00
         -1   -1    0    0    0  501 -0.00000000000E+00  0.00000000000E+00  0.13782234510E+03  0.13782234518E+03  0.46700000000E-02 0.  1.
          1   -1    0    0  501    0  0.00000000000E+00 -0.00000000000E+00 -0.15299417991E+02  0.15299418704E+02  0.46700000000E-02 0. -1.
         23    2    1    2    0    0  0.00000000000E+00  0.00000000000E+00  0.12252292711E+03  0.15312176389E+03  0.91839027149E+02 0.  0.
        -13    1    3    3    0    0 -0.27957077252E+02  0.31241668391E+02  0.92495823265E+02  0.10155357456E+03  0.10570000000E+00 0.  1.
         13    1    3    3    0    0  0.27957077252E+02 -0.31241668391E+02  0.30027103847E+02  0.51568189325E+02  0.10570000000E+00 0. -1.
<mgrwt>
<rscale>  0 0.91839027E+02</rscale>
<asrwt>0</asrwt>
<pdfrwt beam="2">  1        1 0.23537566E-02 0.91839027E+02</pdfrwt>
<pdfrwt beam="1">  1       -1 0.21203438E-01 0.91839027E+02</pdfrwt>
<totfact> 0.74828037E+04</totfact>
</mgrwt>
</event>
<event>
 5    1  0.2734570E+000  0.9079994E+02  0.7818608E-02  0.1300926E+00
          1   -1    0    0  501    0  0.00000000000E+00  0.00000000000E+00  0.20037341745E+02  0.20037342289E+02  0.46700000000E-02 0. -1.
         -1   -1    0    0    0  501 -0.00000000000E+00 -0.00000000000E+00 -0.10286580730E+03  0.10286580741E+03  0.46700000000E-02 0.  1.
         23    2    1    2    0    0  0.00000000000E+00  0.00000000000E+00 -0.82828465557E+02  0.12290314970E+03  0.90799942174E+02 0.  0.
        -13    1    3    3    0    0 -0.19944483557E+02  0.19967980464E+02 -0.89549291381E+02  0.93891370357E+02  0.10570000000E+00 0.  1.
         13    1    3    3    0    0  0.19944483557E+02 -0.19967980464E+02  0.67208258244E+01  0.29011779339E+02  0.10570000000E+00 0. -1.
<mgrwt>
<rscale>  0 0.90799942E+02</rscale>
<asrwt>0</asrwt>
<pdfrwt beam="1">  1        1 0.30826681E-02 0.90799942E+02</pdfrwt>
<pdfrwt beam="2">  1       -1 0.15825509E-01 0.90799942E+02</pdfrwt>
<totfact> 0.81809571E+04</totfact>
</mgrwt>
</event>
<event>
 5    1  0.2734570E+000  0.9029550E+02  0.7818608E-02  0.1302138E+00
         -1   -1    0    0    0  501 -0.00000000000E+00  0.00000000000E+00  0.10078209138E+02  0.10078210220E+02  0.46700000000E-02 0.  1.
          1   -1    0    0  501    0  0.00000000000E+00 -0.00000000000E+00 -0.20225014495E+03  0.20225014500E+03  0.46700000000E-02 0. -1.
         23    2    1    2    0    0  0.00000000000E+00  0.00000000000E+00 -0.19217193581E+03  0.21232835522E+03  0.90295501096E+02 0.  0.
        -13    1    3    3    0    0  0.19645640048E+01 -0.37303953031E+02 -0.36464678638E+02  0.52202762227E+02  0.10570000000E+00 0.  1.
         13    1    3    3    0    0 -0.19645640048E+01  0.37303953031E+02 -0.15570725717E+03  0.16012559299E+03  0.10570000000E+00 0. -1.
<mgrwt>
<rscale>  0 0.90295501E+02</rscale>
<asrwt>0</asrwt>
<pdfrwt beam="2">  1        1 0.31115404E-01 0.90295501E+02</pdfrwt>
<pdfrwt beam="1">  1       -1 0.15504939E-02 0.90295501E+02</pdfrwt>
<totfact> 0.12179107E+05</totfact>
</mgrwt>
</event>
<event>
 5    1  0.2734570E+000  0.8970527E+02  0.7818608E-02  0.1303567E+00
          1   -1    0    0  501    0  0.00000000000E+00  0.00000000000E+00  0.14750381987E+02  0.14750382726E+02  0.46700000000E-02 0. -1.
         -1   -1    0    0    0  501 -0.00000000000E+00 -0.00000000000E+00 -0.13638690304E+03  0.13638690312E+03  0.46700000000E-02 0.  1.
         23    2    1    2    0    0  0.00000000000E+00  0.00000000000E+00 -0.12163652106E+03  0.15113728585E+03  0.89705272528E+02 0.  0.
        -13    1    3    3    0    0 -0.30755226123E+02 -0.32582932619E+02 -0.57358681253E+02  0.72784345291E+02  0.10570000000E+00 0. -1.
         13    1    3    3    0    0  0.30755226123E+02  0.32582932619E+02 -0.64277839804E+02  0.78352940559E+02  0.10570000000E+00 0.  1.
<mgrwt>
<rscale>  0 0.89705273E+02</rscale>
<asrwt>0</asrwt>
<pdfrwt beam="1">  1        1 0.22692897E-02 0.89705273E+02</pdfrwt>
<pdfrwt beam="2">  1       -1 0.20982600E-01 0.89705273E+02</pdfrwt>
<totfact> 0.79710772E+04</totfact>
</mgrwt>
</event>
<event>
 5    1  0.2734570E+000  0.9176163E+02  0.7818608E-02  0.1298641E+00
         -1   -1    0    0    0  501 -0.00000000000E+00  0.00000000000E+00  0.18367167879E+02  0.18367168473E+02  0.46700000000E-02 0.  1.
          1   -1    0    0  501    0  0.00000000000E+00 -0.00000000000E+00 -0.11460935529E+03  0.11460935539E+03  0.46700000000E-02 0. -1.
         23    2    1    2    0    0  0.00000000000E+00  0.00000000000E+00 -0.96242187416E+02  0.13297652386E+03  0.91761632833E+02 0.  0.
        -13    1    3    3    0    0  0.23644114563E+02  0.20424621266E+02 -0.96809761348E+02  0.10172684195E+03  0.10570000000E+00 0. -1.
         13    1    3    3    0    0 -0.23644114563E+02 -0.20424621266E+02  0.56757393277E+00  0.31249681918E+02  0.10570000000E+00 0.  1.
<mgrwt>
<rscale>  0 0.91761633E+02</rscale>
<asrwt>0</asrwt>
<pdfrwt beam="2">  1        1 0.17632208E-01 0.91761633E+02</pdfrwt>
<pdfrwt beam="1">  1       -1 0.28257183E-02 0.91761633E+02</pdfrwt>
<totfact> 0.10504479E+05</totfact>
</mgrwt>
</event>
<event>
 5    1  0.2734570E+000  0.9009312E+02  0.7818608E-02  0.1302626E+00
          1   -1    0    0  501    0  0.00000000000E+00  0.00000000000E+00  0.10657055272E+03  0.10657055282E+03  0.46700000000E-02 0. -1.
         -1   -1    0    0    0  501 -0.00000000000E+00 -0.00000000000E+00 -0.19040837637E+02  0.19040838210E+02  0.46700000000E-02 0.  1.
         23    2    1    2    0    0  0.00000000000E+00  0.00000000000E+00  0.87529715079E+02  0.12561139103E+03  0.90093121460E+02 0.  0.
        -13    1    3    3    0    0  0.22083302170E+01  0.29411028280E+02 -0.37068210362E+01  0.29726032388E+02  0.10570000000E+00 0.  1.
         13    1    3    3    0    0 -0.22083302170E+01 -0.29411028280E+02  0.91236536116E+02  0.95885358641E+02  0.10570000000E+00 0. -1.
<mgrwt>
<rscale>  0 0.90093121E+02</rscale>
<asrwt>0</asrwt>
<pdfrwt beam="1">  1        1 0.16395470E-01 0.90093121E+02</pdfrwt>
<pdfrwt beam="2">  1       -1 0.29293597E-02 0.90093121E+02</pdfrwt>
<totfact> 0.10905777E+05</totfact>
</mgrwt>
</event>
<event>
 5    1  0.2734570E+000  0.8411618E+02  0.7818608E-02  0.1317760E+00
          1   -1    0    0  501    0  0.00000000000E+00  0.00000000000E+00  0.21102309906E+03  0.21102309912E+03  0.46700000000E-02 0. -1.
         -1   -1    0    0    0  501 -0.00000000000E+00 -0.00000000000E+00 -0.83824122340E+01  0.83824135348E+01  0.46700000000E-02 0.  1.
         23    2    1    2    0    0  0.00000000000E+00  0.00000000000E+00  0.20264068683E+03  0.21940551265E+03  0.84116175748E+02 0.  0.
        -13    1    3    3    0    0 -0.15616903529E+02 -0.36051990343E+02  0.14046646583E+03  0.14585771450E+03  0.10570000000E+00 0. -1.
         13    1    3    3    0    0  0.15616903529E+02  0.36051990343E+02  0.62174220999E+02  0.73547798151E+02  0.10570000000E+00 0.  1.
<mgrwt>
<rscale>  0 0.84116176E+02</rscale>
<asrwt>0</asrwt>
<pdfrwt beam="1">  1        1 0.32465092E-01 0.84116176E+02</pdfrwt>
<pdfrwt beam="2">  1       -1 0.12896020E-02 0.84116176E+02</pdfrwt>
<totfact> 0.14832862E+05</totfact>
</mgrwt>
</event>
<event>
 5    1  0.2734570E+000  0.9436447E+02  0.7818608E-02  0.1292614E+00
          1   -1    0    0  501    0  0.00000000000E+00  0.00000000000E+00  0.79873510571E+02  0.79873510707E+02  0.46700000000E-02 0. -1.
         -1   -1    0    0    0  501 -0.00000000000E+00 -0.00000000000E+00 -0.27871108870E+02  0.27871109261E+02  0.46700000000E-02 0.  1.
         23    2    1    2    0    0  0.00000000000E+00  0.00000000000E+00  0.52002401701E+02  0.10774461997E+03  0.94364470801E+02 0.  0.
        -13    1    3    3    0    0 -0.34134504439E+02  0.29313601972E+02  0.42217083180E+02  0.61698824450E+02  0.10570000000E+00 0. -1.
         13    1    3    3    0    0  0.34134504439E+02 -0.29313601972E+02  0.97853185208E+01  0.46045795518E+02  0.10570000000E+00 0.  1.
<mgrwt>
<rscale>  0 0.94364471E+02</rscale>
<asrwt>0</asrwt>
<pdfrwt beam="1">  1        1 0.12288233E-01 0.94364471E+02</pdfrwt>
<pdfrwt beam="2">  1       -1 0.42878629E-02 0.94364471E+02</pdfrwt>
<totfact> 0.91624433E+04</totfact>
</mgrwt>
</event>
<event>
 5    1  0.2734570E+000  0.9053763E+02  0.7818608E-02  0.1301555E+00
          1   -1    0    0  501    0  0.00000000000E+00  0.00000000000E+00  0.56100808856E+02  0.56100809050E+02  0.46700000000E-02 0. -1.
         -1   -1    0    0    0  501 -0.00000000000E+00 -0.00000000000E+00 -0.36528268069E+02  0.36528268367E+02  0.46700000000E-02 0.  1.
         23    2    1    2    0    0  0.00000000000E+00  0.00000000000E+00  0.19572540787E+02  0.92629077417E+02  0.90537625495E+02 0.  0.
        -13    1    3    3    0    0 -0.89062142249E+01  0.42534959204E+02  0.22756295258E+02  0.49055107305E+02  0.10570000000E+00 0. -1.
         13    1    3    3    0    0  0.89062142249E+01 -0.42534959204E+02 -0.31837544705E+01  0.43573970112E+02  0.10570000000E+00 0.  1.
<mgrwt>
<rscale>  0 0.90537625E+02</rscale>
<asrwt>0</asrwt>
<pdfrwt beam="1">  1        1 0.86308937E-02 0.90537625E+02</pdfrwt>
<pdfrwt beam="2">  1       -1 0.56197336E-02 0.90537625E+02</pdfrwt>
<totfact> 0.97282054E+04</totfact>
</mgrwt>
</event>
<event>
 5    1  0.2734570E+000  0.8976872E+02  0.7818608E-02  0.1303413E+00
          1   -1    0    0  501    0  0.00000000000E+00  0.00000000000E+00  0.13938759025E+03  0.13938759032E+03  0.46700000000E-02 0. -1.
         -1   -1    0    0    0  501 -0.00000000000E+00 -0.00000000000E+00 -0.14453265014E+02  0.14453265769E+02  0.46700000000E-02 0.  1.
         23    2    1    2    0    0  0.00000000000E+00  0.00000000000E+00  0.12493432523E+03  0.15384085609E+03  0.89768721625E+02 0.  0.
        -13    1    3    3    0    0  0.39930041566E+02 -0.29400002619E+00  0.27341623604E+02  0.48394939914E+02  0.10570000000E+00 0.  1.
         13    1    3    3    0    0 -0.39930041566E+02  0.29400002619E+00  0.97592701627E+02  0.10544591618E+03  0.10570000000E+00 0. -1.
<mgrwt>
<rscale>  0 0.89768722E+02</rscale>
<asrwt>0</asrwt>
<pdfrwt beam="1">  1        1 0.21444245E-01 0.89768722E+02</pdfrwt>
<pdfrwt beam="2">  1       -1 0.22235793E-02 0.89768722E+02</pdfrwt>
<totfact> 0.11538710E+05</totfact>
</mgrwt>
</event>
<event>
 5    1  0.2734570E+000  0.8949451E+02  0.7818608E-02  0.1304080E+00
          1   -1    0    0  501    0  0.00000000000E+00  0.00000000000E+00  0.74793664098E+02  0.74793664243E+02  0.46700000000E-02 0. -1.
         -1   -1    0    0    0  501 -0.00000000000E+00 -0.00000000000E+00 -0.26771208032E+02  0.26771208439E+02  0.46700000000E-02 0.  1.
         23    2    1    2    0    0  0.00000000000E+00  0.00000000000E+00  0.48022456066E+02  0.10156487268E+03  0.89494508639E+02 0.  0.
        -13    1    3    3    0    0 -0.13532071891E+02 -0.10913401006E+02 -0.22781958947E+02  0.28657426911E+02  0.10570000000E+00 0.  1.
         13    1    3    3    0    0  0.13532071891E+02  0.10913401006E+02  0.70804415013E+02  0.72907445772E+02  0.10570000000E+00 0. -1.
<mgrwt>
<rscale>  0 0.89494509E+02</rscale>
<asrwt>0</asrwt>
<pdfrwt beam="1">  1        1 0.11506718E-01 0.89494509E+02</pdfrwt>
<pdfrwt beam="2">  1       -1 0.41186474E-02 0.89494509E+02</pdfrwt>
<totfact> 0.10491570E+05</totfact>
</mgrwt>
</event>
<event>
 5    1  0.2734570E+000  0.9025114E+02  0.7818608E-02  0.1302245E+00
          1   -1    0    0  501    0  0.00000000000E+00  0.00000000000E+00  0.37440379625E+02  0.37440379916E+02  0.46700000000E-02 0. -1.
         -1   -1    0    0    0  501 -0.00000000000E+00 -0.00000000000E+00 -0.54388255885E+02  0.54388256086E+02  0.46700000000E-02 0.  1.
         23    2    1    2    0    0  0.00000000000E+00  0.00000000000E+00 -0.16947876261E+02  0.91828636002E+02  0.90251137834E+02 0.  0.
        -13    1    3    3    0    0 -0.80662097405E+01 -0.43948023235E+02 -0.14894005708E+02  0.47099204499E+02  0.10570000000E+00 0.  1.
         13    1    3    3    0    0  0.80662097405E+01  0.43948023235E+02 -0.20538705524E+01  0.44729431503E+02  0.10570000000E+00 0. -1.
<mgrwt>
<rscale>  0 0.90251138E+02</rscale>
<asrwt>0</asrwt>
<pdfrwt beam="1">  1        1 0.57600584E-02 0.90251138E+02</pdfrwt>
<pdfrwt beam="2">  1       -1 0.83674241E-02 0.90251138E+02</pdfrwt>
<totfact> 0.92382658E+04</totfact>
</mgrwt>
</event>
<event>
 5    1  0.2734570E+000  0.9083442E+02  0.7818608E-02  0.1300844E+00
         -1   -1    0    0    0  501 -0.00000000000E+00  0.00000000000E+00  0.24710591699E+02  0.24710592140E+02  0.46700000000E-02 0.  1.
          1   -1    0    0  501    0  0.00000000000E+00 -0.00000000000E+00 -0.83475259695E+02  0.83475259826E+02  0.46700000000E-02 0. -1.
         23    2    1    2    0    0  0.00000000000E+00  0.00000000000E+00 -0.58764667997E+02  0.10818585197E+03  0.90834422775E+02 0.  0.
        -13    1    3    3    0    0 -0.17929775234E+02  0.28839344672E+02  0.65369666901E+01  0.34582188292E+02  0.10570000000E+00 0.  1.
         13    1    3    3    0    0  0.17929775234E+02 -0.28839344672E+02 -0.65301634687E+02  0.73603663674E+02  0.10570000000E+00 0. -1.
<mgrwt>
<rscale>  0 0.90834423E+02</rscale>
<asrwt>0</asrwt>
<pdfrwt beam="2">  1        1 0.12842348E-01 0.90834423E+02</pdfrwt>
<pdfrwt beam="1">  1       -1 0.38016296E-02 0.90834423E+02</pdfrwt>
<totfact> 0.10247663E+05</totfact>
</mgrwt>
</event>
<event>
 5    1  0.2734570E+000  0.8994372E+02  0.7818608E-02  0.1302988E+00
         -1   -1    0    0    0  501 -0.00000000000E+00  0.00000000000E+00  0.94650284105E+02  0.94650284220E+02  0.46700000000E-02 0.  1.
          1   -1    0    0  501    0  0.00000000000E+00 -0.00000000000E+00 -0.21367797171E+02  0.21367797682E+02  0.46700000000E-02 0. -1.
         23    2    1    2    0    0  0.00000000000E+00  0.00000000000E+00  0.73282486933E+02  0.11601808190E+03  0.89943718163E+02 0.  0.
        -13    1    3    3    0    0  0.38640358538E+02  0.19367133470E+02  0.52663697694E+02  0.68129577968E+02  0.10570000000E+00 0. -1.
         13    1    3    3    0    0 -0.38640358538E+02 -0.19367133470E+02  0.20618789239E+02  0.47888503933E+02  0.10570000000E+00 0.  1.
<mgrwt>
<rscale>  0 0.89943718E+02</rscale>
<asrwt>0</asrwt>
<pdfrwt beam="2">  1        1 0.32873535E-02 0.89943718E+02</pdfrwt>
<pdfrwt beam="1">  1       -1 0.14561582E-01 0.89943718E+02</pdfrwt>
<totfact> 0.85122512E+04</totfact>
</mgrwt>
</event>
<event>
 5    1  0.2734570E+000  0.9058603E+02  0.7818608E-02  0.1301439E+00
         -1   -1    0    0    0  501 -0.00000000000E+00  0.00000000000E+00  0.95022595181E+01  0.95022606657E+01  0.46700000000E-02 0.  1.
          1   -1    0    0  501    0  0.00000000000E+00 -0.00000000000E+00 -0.21589151139E+03  0.21589151144E+03  0.46700000000E-02 0. -1.
         23    2    1    2    0    0  0.00000000000E+00  0.00000000000E+00 -0.20638925188E+03  0.22539377211E+03  0.90586032125E+02 0.  0.
        -13    1    3    3    0    0 -0.62949943652E+01  0.31016206960E+02 -0.22575725203E+02  0.38875526867E+02  0.10570000000E+00 0.  1.
         13    1    3    3    0    0  0.62949943652E+01 -0.31016206960E+02 -0.18381352667E+03  0.18651824524E+03  0.10570000000E+00 0. -1.
<mgrwt>
<rscale>  0 0.90586032E+02</rscale>
<asrwt>0</asrwt>
<pdfrwt beam="2">  1        1 0.33214075E-01 0.90586032E+02</pdfrwt>
<pdfrwt beam="1">  1       -1 0.14618863E-02 0.90586032E+02</pdfrwt>
<totfact> 0.12228961E+05</totfact>
</mgrwt>
</event>
<event>
 5    1  0.2734570E+000  0.9127743E+02  0.7818608E-02  0.1299787E+00
         -1   -1    0    0    0  501 -0.00000000000E+00  0.00000000000E+00  0.14547741821E+02  0.14547742571E+02  0.46700000000E-02 0.  1.
          1   -1    0    0  501    0  0.00000000000E+00 -0.00000000000E+00 -0.14317632527E+03  0.14317632534E+03  0.46700000000E-02 0. -1.
         23    2    1    2    0    0  0.00000000000E+00  0.00000000000E+00 -0.12862858344E+03  0.15772406791E+03  0.91277429412E+02 0.  0.
        -13    1    3    3    0    0  0.25002731508E+02  0.30522274719E+01  0.14489312677E+01  0.25230205106E+02  0.10570000000E+00 0.  1.
         13    1    3    3    0    0 -0.25002731508E+02 -0.30522274719E+01 -0.13007751471E+03  0.13249386281E+03  0.10570000000E+00 0. -1.
<mgrwt>
<rscale>  0 0.91277429E+02</rscale>
<asrwt>0</asrwt>
<pdfrwt beam="2">  1        1 0.22027126E-01 0.91277429E+02</pdfrwt>
<pdfrwt beam="1">  1       -1 0.22381143E-02 0.91277429E+02</pdfrwt>
<totfact> 0.11085092E+05</totfact>
</mgrwt>
</event>
<event>
 5    1  0.2734570E+000  0.9470219E+02  0.7818608E-02  0.1291848E+00
         -1   -1    0    0    0  501 -0.00000000000E+00  0.00000000000E+00  0.45515680150E+03  0.45515680152E+03  0.46700000000E-02 0.  1.
          1   -1    0    0  501    0  0.00000000000E+00 -0.00000000000E+00 -0.49260512908E+01  0.49260535044E+01  0.46700000000E-02 0. -1.
         23    2    1    2    0    0  0.00000000000E+00  0.00000000000E+00  0.45023075021E+03  0.46008285503E+03  0.94702191406E+02 0.  0.
        -13    1    3    3    0    0  0.67002115483E+01 -0.46865691173E+02  0.22069134377E+03  0.22571213134E+03  0.10570000000E+00 0. -1.
         13    1    3    3    0    0 -0.67002115483E+01  0.46865691173E+02  0.22953940643E+03  0.23437072369E+03  0.10570000000E+00 0.  1.
<mgrwt>
<rscale>  0 0.94702191E+02</rscale>
<asrwt>0</asrwt>
<pdfrwt beam="2">  1        1 0.75785383E-03 0.94702191E+02</pdfrwt>
<pdfrwt beam="1">  1       -1 0.70024159E-01 0.94702191E+02</pdfrwt>
<totfact> 0.45013665E+04</totfact>
</mgrwt>
</event>
<event>
 5    1  0.2734570E+000  0.8889187E+02  0.7818608E-02  0.1305558E+00
          1   -1    0    0  501    0  0.00000000000E+00  0.00000000000E+00  0.23584965997E+02  0.23584966459E+02  0.46700000000E-02 0. -1.
         -1   -1    0    0    0  501 -0.00000000000E+00 -0.00000000000E+00 -0.83758485706E+02  0.83758485836E+02  0.46700000000E-02 0.  1.
         23    2    1    2    0    0  0.00000000000E+00  0.00000000000E+00 -0.60173519709E+02  0.10734345230E+03  0.88891868450E+02 0.  0.
        -13    1    3    3    0    0  0.26638782149E+02  0.34970920874E+02 -0.22182929251E+02  0.49241075778E+02  0.10570000000E+00 0.  1.
         13    1    3    3    0    0 -0.26638782149E+02 -0.34970920874E+02 -0.37990590458E+02  0.58102376517E+02  0.10570000000E+00 0. -1.
<mgrwt>
<rscale>  0 0.88891868E+02</rscale>
<asrwt>0</asrwt>
<pdfrwt beam="1">  1        1 0.36284564E-02 0.88891868E+02</pdfrwt>
<pdfrwt beam="2">  1       -1 0.12885921E-01 0.88891868E+02</pdfrwt>
<totfact> 0.89629103E+04</totfact>
</mgrwt>
</event>
<event>
 5    1  0.2734570E+000  0.8744206E+02  0.7818608E-02  0.1309167E+00
         -1   -1    0    0    0  501 -0.00000000000E+00  0.00000000000E+00  0.32629657430E+03  0.32629657434E+03  0.46700000000E-02 0.  1.
          1   -1    0    0  501    0  0.00000000000E+00 -0.00000000000E+00 -0.58582541129E+01  0.58582559743E+01  0.46700000000E-02 0. -1.
         23    2    1    2    0    0  0.00000000000E+00  0.00000000000E+00  0.32043832019E+03  0.33215483031E+03  0.87442062261E+02 0.  0.
        -13    1    3    3    0    0  0.33017896510E+01 -0.43042575418E+02  0.18652334195E+03  0.19145373692E+03  0.10570000000E+00 0.  1.
         13    1    3    3    0    0 -0.33017896510E+01  0.43042575418E+02  0.13391497824E+03  0.14070109340E+03  0.10570000000E+00 0. -1.
<mgrwt>
<rscale>  0 0.87442062E+02</rscale>
<asrwt>0</asrwt>
<pdfrwt beam="2">  1        1 0.90127002E-03 0.87442062E+02</pdfrwt>
<pdfrwt beam="1">  1       -1 0.50199473E-01 0.87442062E+02</pdfrwt>
<totfact> 0.65302716E+04</totfact>
</mgrwt>
</event>
<event>
 5    1  0.2734570E+000  0.9070071E+02  0.7818608E-02  0.1301164E+00
         -1   -1    0    0    0  501 -0.00000000000E+00  0.00000000000E+00  0.83255087923E+01  0.83255101021E+01  0.46700000000E-02 0.  1.
          1   -1    0    0  501    0  0.00000000000E+00 -0.00000000000E+00 -0.24703048111E+03  0.24703048116E+03  0.46700000000E-02 0. -1.
         23    2    1    2    0    0  0.00000000000E+00  0.00000000000E+00 -0.23870497232E+03  0.25535599126E+03  0.90700708164E+02 0.  0.
        -13    1    3    3    0    0 -0.13317719896E+02  0.38511703592E+02 -0.17538685654E+03  0.18005852825E+03  0.10570000000E+00 0.  1.
         13    1    3    3    0    0  0.13317719896E+02 -0.38511703592E+02 -0.63318115780E+02  0.75297463007E+02  0.10570000000E+00 0. -1.
<mgrwt>
<rscale>  0 0.90700708E+02</rscale>
<asrwt>0</asrwt>
<pdfrwt beam="2">  1        1 0.38004684E-01 0.90700708E+02</pdfrwt>
<pdfrwt beam="1">  1       -1 0.12808478E-02 0.90700708E+02</pdfrwt>
<totfact> 0.12511972E+05</totfact>
</mgrwt>
</event>
<event>
 5    1  0.2734570E+000  0.9097899E+02  0.7818608E-02  0.1300498E+00
         -1   -1    0    0    0  501 -0.00000000000E+00  0.00000000000E+00  0.52324574022E+02  0.52324574231E+02  0.46700000000E-02 0. -1.
          1   -1    0    0  501    0  0.00000000000E+00 -0.00000000000E+00 -0.39547269212E+02  0.39547269488E+02  0.46700000000E-02 0.  1.
         23    2    1    2    0    0  0.00000000000E+00  0.00000000000E+00  0.12777304810E+02  0.91871843719E+02  0.90978987410E+02 0.  0.
        -13    1    3    3    0    0 -0.33327673655E+02  0.24407195711E+02  0.25623892628E+02  0.48611110660E+02  0.10570000000E+00 0. -1.
         13    1    3    3    0    0  0.33327673655E+02 -0.24407195711E+02 -0.12846587818E+02  0.43260733059E+02  0.10570000000E+00 0.  1.
<mgrwt>
<rscale>  0 0.90978987E+02</rscale>
<asrwt>0</asrwt>
<pdfrwt beam="2">  1        1 0.60841953E-02 0.90978987E+02</pdfrwt>
<pdfrwt beam="1">  1       -1 0.80499345E-02 0.90978987E+02</pdfrwt>
<totfact> 0.91064472E+04</totfact>
</mgrwt>
</event>
<event>
 5    1  0.2734570E+000  0.9647765E+02  0.7818608E-02  0.1287882E+00
          1   -1    0    0  501    0  0.00000000000E+00  0.00000000000E+00  0.11734927654E+02  0.11734928583E+02  0.46700000000E-02 0. -1.
         -1   -1    0    0    0  501 -0.00000000000E+00 -0.00000000000E+00 -0.19829558133E+03  0.19829558139E+03  0.46700000000E-02 0.  1.
         23    2    1    2    0    0  0.00000000000E+00  0.00000000000E+00 -0.18656065368E+03  0.21003050997E+03  0.96477653463E+02 0.  0.
        -13    1    3    3    0    0  0.47963425150E+02  0.32171520160E+01 -0.84536261521E+02  0.97248295119E+02  0.10570000000E+00 0. -1.
         13    1    3    3    0    0 -0.47963425150E+02 -0.32171520160E+01 -0.10202439216E+03  0.11278221485E+03  0.10570000000E+00 0.  1.
<mgrwt>
<rscale>  0 0.96477653E+02</rscale>
<asrwt>0</asrwt>
<pdfrwt beam="1">  1        1 0.18053737E-02 0.96477653E+02</pdfrwt>
<pdfrwt beam="2">  1       -1 0.30507010E-01 0.96477653E+02</pdfrwt>
<totfact> 0.60046907E+04</totfact>
</mgrwt>
</event>
<event>
 5    1  0.2734570E+000  0.8276615E+02  0.7818608E-02  0.1321380E+00
          1   -1    0    0  501    0  0.00000000000E+00  0.00000000000E+00  0.97550859397E+02  0.97550859509E+02  0.46700000000E-02 0. -1.
         -1   -1    0    0    0  501 -0.00000000000E+00 -0.00000000000E+00 -0.17555550281E+02  0.17555550902E+02  0.46700000000E-02 0.  1.
         23    2    1    2    0    0  0.00000000000E+00  0.00000000000E+00  0.79995309116E+02  0.11510641041E+03  0.82766153935E+02 0.  0.
        -13    1    3    3    0    0  0.35837020385E+02 -0.13838371544E+01  0.68713738246E+02  0.77509973756E+02  0.10570000000E+00 0. -1.
         13    1    3    3    0    0 -0.35837020385E+02  0.13838371544E+01  0.11281570869E+02  0.37596436655E+02  0.10570000000E+00 0.  1.
<mgrwt>
<rscale>  0 0.82766154E+02</rscale>
<asrwt>0</asrwt>
<pdfrwt beam="1">  1        1 0.15007824E-01 0.82766154E+02</pdfrwt>
<pdfrwt beam="2">  1       -1 0.27008540E-02 0.82766154E+02</pdfrwt>
<totfact> 0.13520608E+05</totfact>
</mgrwt>
</event>
<event>
 5    1  0.2734570E+000  0.9078432E+02  0.7818608E-02  0.1300963E+00
         -1   -1    0    0    0  501 -0.00000000000E+00  0.00000000000E+00  0.22335219583E+03  0.22335219588E+03  0.46700000000E-02 0.  1.
          1   -1    0    0  501    0  0.00000000000E+00 -0.00000000000E+00 -0.92251080053E+01  0.92251091873E+01  0.46700000000E-02 0. -1.
         23    2    1    2    0    0  0.00000000000E+00  0.00000000000E+00  0.21412708783E+03  0.23257730507E+03  0.90784321838E+02 0.  0.
        -13    1    3    3    0    0 -0.41618785378E+02 -0.48576684904E+01  0.15178384544E+03  0.15746131953E+03  0.10570000000E+00 0.  1.
         13    1    3    3    0    0  0.41618785378E+02  0.48576684904E+01  0.62343242391E+02  0.75115985541E+02  0.10570000000E+00 0. -1.
<mgrwt>
<rscale>  0 0.90784322E+02</rscale>
<asrwt>0</asrwt>
<pdfrwt beam="2">  1        1 0.14192476E-02 0.90784322E+02</pdfrwt>
<pdfrwt beam="1">  1       -1 0.34361875E-01 0.90784322E+02</pdfrwt>
<totfact> 0.67936891E+04</totfact>
</mgrwt>
</event>
<event>
 5    1  0.2734570E+000  0.9084144E+02  0.7818608E-02  0.1300827E+00
          1   -1    0    0  501    0  0.00000000000E+00  0.00000000000E+00  0.13927166570E+03  0.13927166578E+03  0.46700000000E-02 0. -1.
         -1   -1    0    0    0  501 -0.00000000000E+00 -0.00000000000E+00 -0.14813076461E+02  0.14813077197E+02  0.46700000000E-02 0.  1.
         23    2    1    2    0    0  0.00000000000E+00  0.00000000000E+00  0.12445858924E+03  0.15408474298E+03  0.90841441989E+02 0.  0.
        -13    1    3    3    0    0 -0.33119650558E+02  0.13496600862E+02  0.14737026270E+02  0.38681527939E+02  0.10570000000E+00 0.  1.
         13    1    3    3    0    0  0.33119650558E+02 -0.13496600862E+02  0.10972156297E+03  0.11540321504E+03  0.10570000000E+00 0. -1.
<mgrwt>
<rscale>  0 0.90841442E+02</rscale>
<asrwt>0</asrwt>
<pdfrwt beam="1">  1        1 0.21426410E-01 0.90841442E+02</pdfrwt>
<pdfrwt beam="2">  1       -1 0.22789349E-02 0.90841442E+02</pdfrwt>
<totfact> 0.11173242E+05</totfact>
</mgrwt>
</event>
<event>
 5    1  0.2734570E+000  0.9062000E+02  0.7818608E-02  0.1301357E+00
          1   -1    0    0  501    0  0.00000000000E+00  0.00000000000E+00  0.79427979246E+02  0.79427979384E+02  0.46700000000E-02 0. -1.
         -1   -1    0    0    0  501 -0.00000000000E+00 -0.00000000000E+00 -0.25847266984E+02  0.25847267406E+02  0.46700000000E-02 0.  1.
         23    2    1    2    0    0  0.00000000000E+00  0.00000000000E+00  0.53580712263E+02  0.10527524679E+03  0.90620002538E+02 0.  0.
        -13    1    3    3    0    0 -0.55785184687E+01 -0.44707171467E+02  0.32377984379E+02  0.55481493255E+02  0.10570000000E+00 0. -1.
         13    1    3    3    0    0  0.55785184687E+01  0.44707171467E+02  0.21202727884E+02  0.49793753534E+02  0.10570000000E+00 0.  1.
<mgrwt>
<rscale>  0 0.90620003E+02</rscale>
<asrwt>0</asrwt>
<pdfrwt beam="1">  1        1 0.12219689E-01 0.90620003E+02</pdfrwt>
<pdfrwt beam="2">  1       -1 0.39765027E-02 0.90620003E+02</pdfrwt>
<totfact> 0.10233539E+05</totfact>
</mgrwt>
</event>
<event>
 5    1  0.2734570E+000  0.8983289E+02  0.7818608E-02  0.1303257E+00
          1   -1    0    0  501    0  0.00000000000E+00  0.00000000000E+00  0.24303210536E+02  0.24303210985E+02  0.46700000000E-02 0. -1.
         -1   -1    0    0    0  501 -0.00000000000E+00 -0.00000000000E+00 -0.83013181488E+02  0.83013181619E+02  0.46700000000E-02 0.  1.
         23    2    1    2    0    0  0.00000000000E+00  0.00000000000E+00 -0.58709970951E+02  0.10731639260E+03  0.89832886141E+02 0.  0.
        -13    1    3    3    0    0  0.37079188543E+02 -0.72320352828E+01 -0.33015268225E+00  0.37779474992E+02  0.10570000000E+00 0. -1.
         13    1    3    3    0    0 -0.37079188543E+02  0.72320352828E+01 -0.58379818269E+02  0.69536917612E+02  0.10570000000E+00 0.  1.
<mgrwt>
<rscale>  0 0.89832886E+02</rscale>
<asrwt>0</asrwt>
<pdfrwt beam="1">  1        1 0.37389555E-02 0.89832886E+02</pdfrwt>
<pdfrwt beam="2">  1       -1 0.12771259E-01 0.89832886E+02</pdfrwt>
<totfact> 0.87378837E+04</totfact>
</mgrwt>
</event>
<event>
 5    1  0.2734570E+000  0.8997069E+02  0.7818608E-02  0.1302923E+00
         -1   -1    0    0    0  501 -0.00000000000E+00  0.00000000000E+00  0.12628462609E+02  0.12628463473E+02  0.46700000000E-02 0.  1.
          1   -1    0    0  501    0  0.00000000000E+00 -0.00000000000E+00 -0.16024762840E+03  0.16024762847E+03  0.46700000000E-02 0. -1.
         23    2    1    2    0    0  0.00000000000E+00  0.00000000000E+00 -0.14761916580E+03  0.17287609195E+03  0.89970689984E+02 0.  0.
        -13    1    3    3    0    0  0.37931061262E+02 -0.40268546085E+01 -0.11963129865E+03  0.12556528085E+03  0.10570000000E+00 0. -1.
         13    1    3    3    0    0 -0.37931061262E+02  0.40268546085E+01 -0.27987867149E+02  0.47310811096E+02  0.10570000000E+00 0.  1.
<mgrwt>
<rscale>  0 0.89970690E+02</rscale>
<asrwt>0</asrwt>
<pdfrwt beam="2">  1        1 0.24653480E-01 0.89970690E+02</pdfrwt>
<pdfrwt beam="1">  1       -1 0.19428406E-02 0.89970690E+02</pdfrwt>
<totfact> 0.11765240E+05</totfact>
</mgrwt>
</event>
<event>
 5    1  0.2734570E+000  0.9078307E+02  0.7818608E-02  0.1300966E+00
          1   -1    0    0  501    0  0.00000000000E+00  0.00000000000E+00  0.47098777254E+02  0.47098777486E+02  0.46700000000E-02 0. -1.
         -1   -1    0    0    0  501 -0.00000000000E+00 -0.00000000000E+00 -0.43746179988E+02  0.43746180237E+02  0.46700000000E-02 0.  1.
         23    2    1    2    0    0  0.00000000000E+00  0.00000000000E+00  0.33525972663E+01  0.90844957723E+02  0.90783073506E+02 0.  0.
        -13    1    3    3    0    0  0.10401443409E+02  0.30867552108E+02 -0.29958296453E+02  0.44255016630E+02  0.10570000000E+00 0.  1.
         13    1    3    3    0    0 -0.10401443409E+02 -0.30867552108E+02  0.33310893719E+02  0.46589941092E+02  0.10570000000E+00 0. -1.
<mgrwt>
<rscale>  0 0.90783074E+02</rscale>
<asrwt>0</asrwt>
<pdfrwt beam="1">  1        1 0.72459657E-02 0.90783074E+02</pdfrwt>
<pdfrwt beam="2">  1       -1 0.67301816E-02 0.90783074E+02</pdfrwt>
<totfact> 0.94059675E+04</totfact>
</mgrwt>
</event>
<event>
 5    1  0.2734570E+000  0.8932086E+02  0.7818608E-02  0.1304505E+00
          1   -1    0    0  501    0  0.00000000000E+00  0.00000000000E+00  0.26795152078E+02  0.26795152485E+02  0.46700000000E-02 0. -1.
         -1   -1    0    0    0  501 -0.00000000000E+00 -0.00000000000E+00 -0.74437125759E+02  0.74437125905E+02  0.46700000000E-02 0.  1.
         23    2    1    2    0    0  0.00000000000E+00  0.00000000000E+00 -0.47641973681E+02  0.10123227839E+03  0.89320862803E+02 0.  0.
        -13    1    3    3    0    0  0.25722908858E+02 -0.34217479866E+02 -0.38247981411E+02  0.57405776913E+02  0.10570000000E+00 0.  1.
         13    1    3    3    0    0 -0.25722908858E+02  0.34217479866E+02 -0.93939922702E+01  0.43826501478E+02  0.10570000000E+00 0. -1.
<mgrwt>
<rscale>  0 0.89320863E+02</rscale>
<asrwt>0</asrwt>
<pdfrwt beam="1">  1        1 0.41223312E-02 0.89320863E+02</pdfrwt>
<pdfrwt beam="2">  1       -1 0.11451865E-01 0.89320863E+02</pdfrwt>
<totfact> 0.90291059E+04</totfact>
</mgrwt>
</event>
<event>
 5    1  0.2734570E+000  0.8863964E+02  0.7818608E-02  0.1306180E+00
         -1   -1    0    0    0  501 -0.00000000000E+00  0.00000000000E+00  0.74958155154E+02  0.74958155299E+02  0.46700000000E-02 0.  1.
          1   -1    0    0  501    0  0.00000000000E+00 -0.00000000000E+00 -0.26204571367E+02  0.26204571783E+02  0.46700000000E-02 0. -1.
         23    2    1    2    0    0  0.00000000000E+00  0.00000000000E+00  0.48753583787E+02  0.10116272708E+03  0.88639637966E+02 0.  0.
        -13    1    3    3    0    0  0.32767656253E+02  0.91562564202E+01 -0.80379741264E+01  0.34959641424E+02  0.10570000000E+00 0.  1.
         13    1    3    3    0    0 -0.32767656253E+02 -0.91562564202E+01  0.56791557913E+02  0.66203085658E+02  0.10570000000E+00 0. -1.
<mgrwt>
<rscale>  0 0.88639638E+02</rscale>
<asrwt>0</asrwt>
<pdfrwt beam="2">  1        1 0.40314726E-02 0.88639638E+02</pdfrwt>
<pdfrwt beam="1">  1       -1 0.11532024E-01 0.88639638E+02</pdfrwt>
<totfact> 0.91966932E+04</totfact>
</mgrwt>
</event>
<event>
 5    1  0.2734570E+000  0.9123918E+02  0.7818608E-02  0.1299878E+00
         -1   -1    0    0    0  501 -0.00000000000E+00  0.00000000000E+00  0.17815612941E+03  0.17815612947E+03  0.46700000000E-02 0.  1.
          1   -1    0    0  501    0  0.00000000000E+00 -0.00000000000E+00 -0.11681591295E+02  0.11681592228E+02  0.46700000000E-02 0. -1.
         23    2    1    2    0    0  0.00000000000E+00  0.00000000000E+00  0.16647453812E+03  0.18983772170E+03  0.91239184232E+02 0.  0.
        -13    1    3    3    0    0  0.18209753117E+02 -0.29590307090E+02  0.21727292244E+02  0.40978869957E+02  0.10570000000E+00 0. -1.
         13    1    3    3    0    0 -0.18209753117E+02  0.29590307090E+02  0.14474724587E+03  0.14885885174E+03  0.10570000000E+00 0.  1.
<mgrwt>
<rscale>  0 0.91239184E+02</rscale>
<asrwt>0</asrwt>
<pdfrwt beam="2">  1        1 0.17971681E-02 0.91239184E+02</pdfrwt>
<pdfrwt beam="1">  1       -1 0.27408633E-01 0.91239184E+02</pdfrwt>
<totfact> 0.71536713E+04</totfact>
</mgrwt>
</event>
<event>
 5    1  0.2734570E+000  0.1014487E+03  0.7818608E-02  0.1277279E+00
         -1   -1    0    0    0  501 -0.00000000000E+00  0.00000000000E+00  0.14380552633E+03  0.14380552641E+03  0.46700000000E-02 0.  1.
          1   -1    0    0  501    0  0.00000000000E+00 -0.00000000000E+00 -0.17891950228E+02  0.17891950838E+02  0.46700000000E-02 0. -1.
         23    2    1    2    0    0  0.00000000000E+00  0.00000000000E+00  0.12591357611E+03  0.16169747725E+03  0.10144873336E+03 0.  0.
        -13    1    3    3    0    0  0.13593040143E+02 -0.19093753800E+02  0.13465689642E+03  0.13668150241E+03  0.10570000000E+00 0.  1.
         13    1    3    3    0    0 -0.13593040143E+02  0.19093753800E+02 -0.87433203152E+01  0.25015974839E+02  0.10570000000E+00 0. -1.
<mgrwt>
<rscale>  0 0.10144873E+03</rscale>
<asrwt>0</asrwt>
<pdfrwt beam="2">  1        1 0.27526077E-02 0.10144873E+03</pdfrwt>
<pdfrwt beam="1">  1       -1 0.22123928E-01 0.10144873E+03</pdfrwt>
<totfact> 0.57208906E+04</totfact>
</mgrwt>
</event>
<event>
 5    1  0.2734570E+000  0.9179047E+02  0.7818608E-02  0.1298573E+00
          1   -1    0    0  501    0  0.00000000000E+00  0.00000000000E+00  0.18158673951E+02  0.18158674551E+02  0.46700000000E-02 0. -1.
         -1   -1    0    0    0  501 -0.00000000000E+00 -0.00000000000E+00 -0.11599815483E+03  0.11599815492E+03  0.46700000000E-02 0.  1.
         23    2    1    2    0    0  0.00000000000E+00  0.00000000000E+00 -0.97839480875E+02  0.13415682947E+03  0.91790472685E+02 0.  0.
        -13    1    3    3    0    0 -0.40023161518E+02 -0.94818548202E-02 -0.81748101985E+02  0.91019870899E+02  0.10570000000E+00 0.  1.
         13    1    3    3    0    0  0.40023161518E+02  0.94818548202E-02 -0.16091378890E+02  0.43136958572E+02  0.10570000000E+00 0. -1.
<mgrwt>
<rscale>  0 0.91790473E+02</rscale>
<asrwt>0</asrwt>
<pdfrwt beam="1">  1        1 0.27936423E-02 0.91790473E+02</pdfrwt>
<pdfrwt beam="2">  1       -1 0.17845870E-01 0.91790473E+02</pdfrwt>
<totfact> 0.77712271E+04</totfact>
</mgrwt>
</event>
<event>
 5    1  0.2734570E+000  0.9078573E+02  0.7818608E-02  0.1300960E+00
          1   -1    0    0  501    0  0.00000000000E+00  0.00000000000E+00  0.20099927941E+03  0.20099927947E+03  0.46700000000E-02 0. -1.
         -1   -1    0    0    0  501 -0.00000000000E+00 -0.00000000000E+00 -0.10251341341E+02  0.10251342404E+02  0.46700000000E-02 0.  1.
         23    2    1    2    0    0  0.00000000000E+00  0.00000000000E+00  0.19074793807E+03  0.21125062187E+03  0.90785733253E+02 0.  0.
        -13    1    3    3    0    0 -0.18267540900E+02 -0.31870997457E+02  0.33326126425E+02  0.49599449638E+02  0.10570000000E+00 0.  1.
         13    1    3    3    0    0  0.18267540900E+02  0.31870997457E+02  0.15742181165E+03  0.16165117223E+03  0.10570000000E+00 0. -1.
<mgrwt>
<rscale>  0 0.90785733E+02</rscale>
<asrwt>0</asrwt>
<pdfrwt beam="1">  1        1 0.30922967E-01 0.90785733E+02</pdfrwt>
<pdfrwt beam="2">  1       -1 0.15771295E-02 0.90785733E+02</pdfrwt>
<totfact> 0.11989410E+05</totfact>
</mgrwt>
</event>
<event>
 5    1  0.2734570E+000  0.9086065E+02  0.7818608E-02  0.1300781E+00
         -1   -1    0    0    0  501 -0.00000000000E+00  0.00000000000E+00  0.47520822339E+02  0.47520822569E+02  0.46700000000E-02 0.  1.
          1   -1    0    0  501    0  0.00000000000E+00 -0.00000000000E+00 -0.43431789883E+02  0.43431790134E+02  0.46700000000E-02 0. -1.
         23    2    1    2    0    0  0.00000000000E+00  0.00000000000E+00  0.40890324567E+01  0.90952612703E+02  0.90860649189E+02 0.  0.
        -13    1    3    3    0    0  0.12859769595E+02 -0.42141687725E+02  0.13128559684E+02  0.45974620936E+02  0.10570000000E+00 0.  1.
         13    1    3    3    0    0 -0.12859769595E+02  0.42141687725E+02 -0.90395272276E+01  0.44977991766E+02  0.10570000000E+00 0. -1.
<mgrwt>
<rscale>  0 0.90860649E+02</rscale>
<asrwt>0</asrwt>
<pdfrwt beam="2">  1        1 0.66818139E-02 0.90860649E+02</pdfrwt>
<pdfrwt beam="1">  1       -1 0.73108958E-02 0.90860649E+02</pdfrwt>
<totfact> 0.92701299E+04</totfact>
</mgrwt>
</event>
<event>
 5    1  0.2734570E+000  0.9072902E+02  0.7818608E-02  0.1301096E+00
          1   -1    0    0  501    0  0.00000000000E+00  0.00000000000E+00  0.28612931168E+03  0.28612931172E+03  0.46700000000E-02 0. -1.
         -1   -1    0    0    0  501 -0.00000000000E+00 -0.00000000000E+00 -0.71923375619E+01  0.71923390781E+01  0.46700000000E-02 0.  1.
         23    2    1    2    0    0  0.00000000000E+00  0.00000000000E+00  0.27893697412E+03  0.29332165080E+03  0.90729021243E+02 0.  0.
        -13    1    3    3    0    0  0.38044697419E+02 -0.84366384673E+01  0.21455016215E+03  0.21806044832E+03  0.10570000000E+00 0. -1.
         13    1    3    3    0    0 -0.38044697419E+02  0.84366384673E+01  0.64386811972E+02  0.75261202480E+02  0.10570000000E+00 0.  1.
<mgrwt>
<rscale>  0 0.90729021E+02</rscale>
<asrwt>0</asrwt>
<pdfrwt beam="1">  1        1 0.44019900E-01 0.90729021E+02</pdfrwt>
<pdfrwt beam="2">  1       -1 0.11065135E-02 0.90729021E+02</pdfrwt>
<totfact> 0.12864054E+05</totfact>
</mgrwt>
</event>
<event>
 5    1  0.2734570E+000  0.8863679E+02  0.7818608E-02  0.1306187E+00
          1   -1    0    0  501    0  0.00000000000E+00  0.00000000000E+00  0.27229627844E+02  0.27229628244E+02  0.46700000000E-02 0. -1.
         -1   -1    0    0    0  501 -0.00000000000E+00 -0.00000000000E+00 -0.72131732413E+02  0.72131732565E+02  0.46700000000E-02 0.  1.
         23    2    1    2    0    0  0.00000000000E+00  0.00000000000E+00 -0.44902104570E+02  0.99361360809E+02  0.88636792738E+02 0.  0.
        -13    1    3    3    0    0 -0.16415017933E+02 -0.21337308094E+02 -0.61915402870E+02  0.67514900692E+02  0.10570000000E+00 0.  1.
         13    1    3    3    0    0  0.16415017933E+02  0.21337308094E+02  0.17013298300E+02  0.31846460117E+02  0.10570000000E+00 0. -1.
<mgrwt>
<rscale>  0 0.88636793E+02</rscale>
<asrwt>0</asrwt>
<pdfrwt beam="1">  1        1 0.41891736E-02 0.88636793E+02</pdfrwt>
<pdfrwt beam="2">  1       -1 0.11097190E-01 0.88636793E+02</pdfrwt>
<totfact> 0.92549171E+04</totfact>
</mgrwt>
</event>
<event>
 5    1  0.2734570E+000  0.8898183E+02  0.7818608E-02  0.1305336E+00
         -1   -1    0    0    0  501 -0.00000000000E+00  0.00000000000E+00  0.32869287825E+02  0.32869288157E+02  0.46700000000E-02 0.  1.
          1   -1    0    0  501    0  0.00000000000E+00 -0.00000000000E+00 -0.60221618227E+02  0.60221618408E+02  0.46700000000E-02 0. -1.
         23    2    1    2    0    0  0.00000000000E+00  0.00000000000E+00 -0.27352330402E+02  0.93090906565E+02  0.88981834701E+02 0.  0.
        -13    1    3    3    0    0 -0.24733430891E+02  0.34560535457E+02  0.94398676296E-01  0.42499332916E+02  0.10570000000E+00 0.  1.
         13    1    3    3    0    0  0.24733430891E+02 -0.34560535457E+02 -0.27446729079E+02  0.50591573649E+02  0.10570000000E+00 0. -1.
<mgrwt>
<rscale>  0 0.88981835E+02</rscale>
<asrwt>0</asrwt>
<pdfrwt beam="2">  1        1 0.92648644E-02 0.88981835E+02</pdfrwt>
<pdfrwt beam="1">  1       -1 0.50568136E-02 0.88981835E+02</pdfrwt>
<totfact> 0.10314857E+05</totfact>
</mgrwt>
</event>
<event>
 5    1  0.2734570E+000  0.9202434E+02  0.7818608E-02  0.1298022E+00
          1   -1    0    0  501    0  0.00000000000E+00  0.00000000000E+00  0.18222233577E+03  0.18222233583E+03  0.46700000000E-02 0. -1.
         -1   -1    0    0    0  501 -0.00000000000E+00 -0.00000000000E+00 -0.11618333631E+02  0.11618334569E+02  0.46700000000E-02 0.  1.
         23    2    1    2    0    0  0.00000000000E+00  0.00000000000E+00  0.17060400214E+03  0.19384067040E+03  0.92024344359E+02 0.  0.
        -13    1    3    3    0    0 -0.30667642988E+02  0.30374548437E+02  0.51731981911E+02  0.67374525186E+02  0.10570000000E+00 0.  1.
         13    1    3    3    0    0  0.30667642988E+02 -0.30374548437E+02  0.11887202023E+03  0.12646614521E+03  0.10570000000E+00 0. -1.
<mgrwt>
<rscale>  0 0.92024344E+02</rscale>
<asrwt>0</asrwt>
<pdfrwt beam="1">  1        1 0.28034204E-01 0.92024344E+02</pdfrwt>
<pdfrwt beam="2">  1       -1 0.17874361E-02 0.92024344E+02</pdfrwt>
<totfact> 0.11344018E+05</totfact>
</mgrwt>
</event>
<event>
 5    1  0.2734570E+000  0.9057296E+02  0.7818608E-02  0.1301470E+00
         -1   -1    0    0    0  501 -0.00000000000E+00  0.00000000000E+00  0.24052667988E+02  0.24052668441E+02  0.46700000000E-02 0.  1.
          1   -1    0    0  501    0  0.00000000000E+00 -0.00000000000E+00 -0.85265604379E+02  0.85265604507E+02  0.46700000000E-02 0. -1.
         23    2    1    2    0    0  0.00000000000E+00  0.00000000000E+00 -0.61212936391E+02  0.10931827295E+03  0.90572960749E+02 0.  0.
        -13    1    3    3    0    0 -0.15808282473E+02 -0.28337746339E+02  0.75214447352E+01  0.33309352527E+02  0.10570000000E+00 0.  1.
         13    1    3    3    0    0  0.15808282473E+02  0.28337746339E+02 -0.68734381126E+02  0.76008920422E+02  0.10570000000E+00 0. -1.
<mgrwt>
<rscale>  0 0.90572961E+02</rscale>
<asrwt>0</asrwt>
<pdfrwt beam="2">  1        1 0.13117785E-01 0.90572961E+02</pdfrwt>
<pdfrwt beam="1">  1       -1 0.37004106E-02 0.90572961E+02</pdfrwt>
<totfact> 0.10363767E+05</totfact>
</mgrwt>
</event>
<event>
 5    1  0.2734570E+000  0.8983934E+02  0.7818608E-02  0.1303241E+00
          1   -1    0    0  501    0  0.00000000000E+00  0.00000000000E+00  0.20278420069E+03  0.20278420074E+03  0.46700000000E-02 0. -1.
         -1   -1    0    0    0  501 -0.00000000000E+00 -0.00000000000E+00 -0.99503642130E+01  0.99503653089E+01  0.46700000000E-02 0.  1.
         23    2    1    2    0    0  0.00000000000E+00  0.00000000000E+00  0.19283383647E+03  0.21273456605E+03  0.89839340509E+02 0.  0.
        -13    1    3    3    0    0 -0.10032987282E+02 -0.29593317528E+02  0.17283002374E+03  0.17563215410E+03  0.10570000000E+00 0. -1.
         13    1    3    3    0    0  0.10032987282E+02  0.29593317528E+02  0.20003812739E+02  0.37102411952E+02  0.10570000000E+00 0.  1.
<mgrwt>
<rscale>  0 0.89839341E+02</rscale>
<asrwt>0</asrwt>
<pdfrwt beam="1">  1        1 0.31197570E-01 0.89839341E+02</pdfrwt>
<pdfrwt beam="2">  1       -1 0.15308253E-02 0.89839341E+02</pdfrwt>
<totfact> 0.12351575E+05</totfact>
</mgrwt>
</event>
<event>
 5    1  0.2734570E+000  0.9089307E+02  0.7818608E-02  0.1300703E+00
         -1   -1    0    0    0  501 -0.00000000000E+00  0.00000000000E+00  0.20086948836E+02  0.20086949379E+02  0.46700000000E-02 0.  1.
          1   -1    0    0  501    0  0.00000000000E+00 -0.00000000000E+00 -0.10282236858E+03  0.10282236868E+03  0.46700000000E-02 0. -1.
         23    2    1    2    0    0  0.00000000000E+00  0.00000000000E+00 -0.82735419741E+02  0.12290931806E+03  0.90893073371E+02 0.  0.
        -13    1    3    3    0    0 -0.84721739799E+01 -0.39313717250E+02 -0.69990223825E+02  0.80721674286E+02  0.10570000000E+00 0.  1.
         13    1    3    3    0    0  0.84721739799E+01  0.39313717250E+02 -0.12745195916E+02  0.42187643777E+02  0.10570000000E+00 0. -1.
<mgrwt>
<rscale>  0 0.90893073E+02</rscale>
<asrwt>0</asrwt>
<pdfrwt beam="2">  1        1 0.15818826E-01 0.90893073E+02</pdfrwt>
<pdfrwt beam="1">  1       -1 0.30902999E-02 0.90893073E+02</pdfrwt>
<totfact> 0.10583247E+05</totfact>
</mgrwt>
</event>
<event>
 5    1  0.2734570E+000  0.1170247E+03  0.7818608E-02  0.1248088E+00
         -1   -1    0    0    0  501 -0.00000000000E+00  0.00000000000E+00  0.41196551896E+02  0.41196552161E+02  0.46700000000E-02 0.  1.
          1   -1    0    0  501    0  0.00000000000E+00 -0.00000000000E+00 -0.83106368780E+02  0.83106368911E+02  0.46700000000E-02 0. -1.
         23    2    1    2    0    0  0.00000000000E+00  0.00000000000E+00 -0.41909816884E+02  0.12430292107E+03  0.11702471293E+03 0.  0.
        -13    1    3    3    0    0 -0.92369637442E+01  0.24363545949E+02  0.34694119793E+02  0.43388904009E+02  0.10570000000E+00 0.  1.
         13    1    3    3    0    0  0.92369637442E+01 -0.24363545949E+02 -0.76603936677E+02  0.80914017063E+02  0.10570000000E+00 0. -1.
<mgrwt>
<rscale>  0 0.11702471E+03</rscale>
<asrwt>0</asrwt>
<pdfrwt beam="2">  1        1 0.12785595E-01 0.11702471E+03</pdfrwt>
<pdfrwt beam="1">  1       -1 0.63379311E-02 0.11702471E+03</pdfrwt>
<totfact> 0.50486860E+04</totfact>
</mgrwt>
</event>
<event>
 5    1  0.2734570E+000  0.8720169E+02  0.7818608E-02  0.1309773E+00
          1   -1    0    0  501    0  0.00000000000E+00  0.00000000000E+00  0.37348690296E+03  0.37348690299E+03  0.46700000000E-02 0. -1.
         -1   -1    0    0    0  501 -0.00000000000E+00 -0.00000000000E+00 -0.50899601427E+01  0.50899622850E+01  0.46700000000E-02 0.  1.
         23    2    1    2    0    0  0.00000000000E+00  0.00000000000E+00  0.36839694282E+03  0.37857686528E+03  0.87201694042E+02 0.  0.
        -13    1    3    3    0    0  0.12759112227E+02  0.41553134600E+02  0.19896224056E+03  0.20365520440E+03  0.10570000000E+00 0. -1.
         13    1    3    3    0    0 -0.12759112227E+02 -0.41553134600E+02  0.16943470226E+03  0.17492166087E+03  0.10570000000E+00 0.  1.
<mgrwt>
<rscale>  0 0.87201694E+02</rscale>
<asrwt>0</asrwt>
<pdfrwt beam="1">  1        1 0.57459542E-01 0.87201694E+02</pdfrwt>
<pdfrwt beam="2">  1       -1 0.78307070E-03 0.87201694E+02</pdfrwt>
<totfact> 0.15006136E+05</totfact>
</mgrwt>
</event>
<event>
 5    1  0.2734570E+000  0.9162871E+02  0.7818608E-02  0.1298955E+00
          1   -1    0    0  501    0  0.00000000000E+00  0.00000000000E+00  0.96708333066E+02  0.96708333179E+02  0.46700000000E-02 0. -1.
         -1   -1    0    0    0  501 -0.00000000000E+00 -0.00000000000E+00 -0.21703972273E+02  0.21703972775E+02  0.46700000000E-02 0.  1.
         23    2    1    2    0    0  0.00000000000E+00  0.00000000000E+00  0.75004360793E+02  0.11841230595E+03  0.91628707638E+02 0.  0.
        -13    1    3    3    0    0  0.24526044903E+02  0.30059559095E+02  0.68994159481E+02  0.79153706083E+02  0.10570000000E+00 0. -1.
         13    1    3    3    0    0 -0.24526044903E+02 -0.30059559095E+02  0.60102013115E+01  0.39258599871E+02  0.10570000000E+00 0.  1.
<mgrwt>
<rscale>  0 0.91628708E+02</rscale>
<asrwt>0</asrwt>
<pdfrwt beam="1">  1        1 0.14878205E-01 0.91628708E+02</pdfrwt>
<pdfrwt beam="2">  1       -1 0.33390726E-02 0.91628708E+02</pdfrwt>
<totfact> 0.10248080E+05</totfact>
</mgrwt>
</event>
<event>
 5    1  0.2734570E+000  0.9002703E+02  0.7818608E-02  0.1302786E+00
          1   -1    0    0  501    0  0.00000000000E+00  0.00000000000E+00  0.89927011687E+02  0.89927011809E+02  0.46700000000E-02 0. -1.
         -1   -1    0    0    0  501 -0.00000000000E+00 -0.00000000000E+00 -0.22531790641E+02  0.22531791125E+02  0.46700000000E-02 0.  1.
         23    2    1    2    0    0  0.00000000000E+00  0.00000000000E+00  0.67395221046E+02  0.11245880293E+03  0.90027032260E+02 0.  0.
        -13    1    3    3    0    0 -0.61212232379E+01 -0.32376616069E+02  0.72006344780E+02  0.79187369593E+02  0.10570000000E+00 0. -1.
         13    1    3    3    0    0  0.61212232379E+01  0.32376616069E+02 -0.46111237339E+01  0.33271433341E+02  0.10570000000E+00 0.  1.
<mgrwt>
<rscale>  0 0.90027032E+02</rscale>
<asrwt>0</asrwt>
<pdfrwt beam="1">  1        1 0.13834925E-01 0.90027032E+02</pdfrwt>
<pdfrwt beam="2">  1       -1 0.34664294E-02 0.90027032E+02</pdfrwt>
<totfact> 0.10626599E+05</totfact>
</mgrwt>
</event>
<event>
 5    1  0.2734570E+000  0.9105829E+02  0.7818608E-02  0.1300309E+00
          1   -1    0    0  501    0  0.00000000000E+00  0.00000000000E+00  0.22922011077E+03  0.22922011081E+03  0.46700000000E-02 0. -1.
         -1   -1    0    0    0  501 -0.00000000000E+00 -0.00000000000E+00 -0.90432845340E+01  0.90432857398E+01  0.46700000000E-02 0.  1.
         23    2    1    2    0    0  0.00000000000E+00  0.00000000000E+00  0.22017682623E+03  0.23826339655E+03  0.91058285332E+02 0.  0.
        -13    1    3    3    0    0 -0.10855956541E+02  0.36501608990E+02  0.44795255582E+02  0.58794943205E+02  0.10570000000E+00 0.  1.
         13    1    3    3    0    0  0.10855956541E+02 -0.36501608990E+02  0.17538157065E+03  0.17946845335E+03  0.10570000000E+00 0. -1.
<mgrwt>
<rscale>  0 0.91058285E+02</rscale>
<asrwt>0</asrwt>
<pdfrwt beam="1">  1        1 0.35264633E-01 0.91058285E+02</pdfrwt>
<pdfrwt beam="2">  1       -1 0.13912746E-02 0.91058285E+02</pdfrwt>
<totfact> 0.12201856E+05</totfact>
</mgrwt>
</event>
<event>
 5    1  0.2734570E+000  0.9113567E+02  0.7818608E-02  0.1300125E+00
          1   -1    0    0  501    0  0.00000000000E+00  0.00000000000E+00  0.17582813395E+03  0.17582813401E+03  0.46700000000E-02 0. -1.
         -1   -1    0    0    0  501 -0.00000000000E+00 -0.00000000000E+00 -0.11809415311E+02  0.11809416234E+02  0.46700000000E-02 0.  1.
         23    2    1    2    0    0  0.00000000000E+00  0.00000000000E+00  0.16401871864E+03  0.18763755024E+03  0.91135669186E+02 0.  0.
        -13    1    3    3    0    0 -0.40104343823E+02  0.19381088575E+02  0.62215015586E+02  0.76516039656E+02  0.10570000000E+00 0.  1.
         13    1    3    3    0    0  0.40104343823E+02 -0.19381088575E+02  0.10180370305E+03  0.11112151059E+03  0.10570000000E+00 0. -1.
<mgrwt>
<rscale>  0 0.91135669E+02</rscale>
<asrwt>0</asrwt>
<pdfrwt beam="1">  1        1 0.27050481E-01 0.91135669E+02</pdfrwt>
<pdfrwt beam="2">  1       -1 0.18168333E-02 0.91135669E+02</pdfrwt>
<totfact> 0.11564899E+05</totfact>
</mgrwt>
</event>
<event>
 5    1  0.2734570E+000  0.9654051E+02  0.7818608E-02  0.1287744E+00
         -1   -1    0    0    0  501 -0.00000000000E+00  0.00000000000E+00  0.24818361888E+02  0.24818362327E+02  0.46700000000E-02 0.  1.
          1   -1    0    0  501    0  0.00000000000E+00 -0.00000000000E+00 -0.93882806872E+02  0.93882806988E+02  0.46700000000E-02 0. -1.
         23    2    1    2    0    0  0.00000000000E+00  0.00000000000E+00 -0.69064444984E+02  0.11870116931E+03  0.96540509817E+02 0.  0.
        -13    1    3    3    0    0  0.11555359550E+02 -0.37422692408E+02  0.15807071032E+00  0.39166572485E+02  0.10570000000E+00 0. -1.
         13    1    3    3    0    0 -0.11555359550E+02  0.37422692408E+02 -0.69222515694E+02  0.79534596830E+02  0.10570000000E+00 0.  1.
<mgrwt>
<rscale>  0 0.96540510E+02</rscale>
<asrwt>0</asrwt>
<pdfrwt beam="2">  1        1 0.14443509E-01 0.96540510E+02</pdfrwt>
<pdfrwt beam="1">  1       -1 0.38182096E-02 0.96540510E+02</pdfrwt>
<totfact> 0.88365392E+04</totfact>
</mgrwt>
</event>
<event>
 5    1  0.2734570E+000  0.9066864E+02  0.7818608E-02  0.1301241E+00
         -1   -1    0    0    0  501 -0.00000000000E+00  0.00000000000E+00  0.84671921696E+02  0.84671921824E+02  0.46700000000E-02 0.  1.
          1   -1    0    0  501    0  0.00000000000E+00 -0.00000000000E+00 -0.24272516009E+02  0.24272516458E+02  0.46700000000E-02 0. -1.
         23    2    1    2    0    0  0.00000000000E+00  0.00000000000E+00  0.60399405687E+02  0.10894443828E+03  0.90668640805E+02 0.  0.
        -13    1    3    3    0    0 -0.20350668445E+02  0.23332187043E+01  0.78794072652E+02  0.81413209452E+02  0.10570000000E+00 0.  1.
         13    1    3    3    0    0  0.20350668445E+02 -0.23332187043E+01 -0.18394666965E+02  0.27531228831E+02  0.10570000000E+00 0. -1.
<mgrwt>
<rscale>  0 0.90668641E+02</rscale>
<asrwt>0</asrwt>
<pdfrwt beam="2">  1        1 0.37342332E-02 0.90668641E+02</pdfrwt>
<pdfrwt beam="1">  1       -1 0.13026450E-01 0.90668641E+02</pdfrwt>
<totfact> 0.85042797E+04</totfact>
</mgrwt>
</event>
<event>
 5    1  0.2734570E+000  0.8974368E+02  0.7818608E-02  0.1303474E+00
          1   -1    0    0  501    0  0.00000000000E+00  0.00000000000E+00  0.63839207813E+01  0.63839224894E+01  0.46700000000E-02 0. -1.
         -1   -1    0    0    0  501 -0.00000000000E+00 -0.00000000000E+00 -0.31539889476E+03  0.31539889479E+03  0.46700000000E-02 0.  1.
         23    2    1    2    0    0  0.00000000000E+00  0.00000000000E+00 -0.30901497397E+03  0.32178281728E+03  0.89743675855E+02 0.  0.
        -13    1    3    3    0    0 -0.37105233634E+02  0.24751460397E+02 -0.13692809905E+03  0.14400954356E+03  0.10570000000E+00 0. -1.
         13    1    3    3    0    0  0.37105233634E+02 -0.24751460397E+02 -0.17208687492E+03  0.17777327372E+03  0.10570000000E+00 0.  1.
<mgrwt>
<rscale>  0 0.89743676E+02</rscale>
<asrwt>0</asrwt>
<pdfrwt beam="1">  1        1 0.98214204E-03 0.89743676E+02</pdfrwt>
<pdfrwt beam="2">  1       -1 0.48522895E-01 0.89743676E+02</pdfrwt>
<totfact> 0.61889780E+04</totfact>
</mgrwt>
</event>
<event>
 5    1  0.2734570E+000  0.9144673E+02  0.7818608E-02  0.1299386E+00
         -1   -1    0    0    0  501 -0.00000000000E+00  0.00000000000E+00  0.17721868195E+02  0.17721868810E+02  0.46700000000E-02 0.  1.
          1   -1    0    0  501    0  0.00000000000E+00 -0.00000000000E+00 -0.11796871379E+03  0.11796871388E+03  0.46700000000E-02 0. -1.
         23    2    1    2    0    0  0.00000000000E+00  0.00000000000E+00 -0.10024684560E+03  0.13569058269E+03  0.91446728644E+02 0.  0.
        -13    1    3    3    0    0 -0.14706917505E+02  0.36814517739E+02 -0.16319232328E+02  0.42871093467E+02  0.10570000000E+00 0.  1.
         13    1    3    3    0    0  0.14706917505E+02 -0.36814517739E+02 -0.83927613268E+02  0.92819489226E+02  0.10570000000E+00 0. -1.
<mgrwt>
<rscale>  0 0.91446729E+02</rscale>
<asrwt>0</asrwt>
<pdfrwt beam="2">  1        1 0.18149032E-01 0.91446729E+02</pdfrwt>
<pdfrwt beam="1">  1       -1 0.27264414E-02 0.91446729E+02</pdfrwt>
<totfact> 0.10656136E+05</totfact>
</mgrwt>
</event>
<event>
 5    1  0.2734570E+000  0.9389301E+02  0.7818608E-02  0.1293689E+00
          1   -1    0    0  501    0  0.00000000000E+00  0.00000000000E+00  0.14065019957E+03  0.14065019965E+03  0.46700000000E-02 0. -1.
         -1   -1    0    0    0  501 -0.00000000000E+00 -0.00000000000E+00 -0.15669898700E+02  0.15669899396E+02  0.46700000000E-02 0.  1.
         23    2    1    2    0    0  0.00000000000E+00  0.00000000000E+00  0.12498030087E+03  0.15632009904E+03  0.93893012304E+02 0.  0.
        -13    1    3    3    0    0 -0.46793706184E+02 -0.12798772517E+01  0.68417254703E+02  0.82898859689E+02  0.10570000000E+00 0. -1.
         13    1    3    3    0    0  0.46793706184E+02  0.12798772517E+01  0.56563046168E+02  0.73421239356E+02  0.10570000000E+00 0.  1.
<mgrwt>
<rscale>  0 0.93893012E+02</rscale>
<asrwt>0</asrwt>
<pdfrwt beam="1">  1        1 0.21638493E-01 0.93893012E+02</pdfrwt>
<pdfrwt beam="2">  1       -1 0.24107536E-02 0.93893012E+02</pdfrwt>
<totfact> 0.10235246E+05</totfact>
</mgrwt>
</event>
<event>
 5    1  0.2734570E+000  0.9234304E+02  0.7818608E-02  0.1297275E+00
          1   -1    0    0  501    0  0.00000000000E+00  0.00000000000E+00  0.94846635691E+01  0.94846647188E+01  0.46700000000E-02 0. -1.
         -1   -1    0    0    0  501 -0.00000000000E+00 -0.00000000000E+00 -0.22476379403E+03  0.22476379408E+03  0.46700000000E-02 0.  1.
         23    2    1    2    0    0  0.00000000000E+00  0.00000000000E+00 -0.21527913046E+03  0.23424845880E+03  0.92343036753E+02 0.  0.
        -13    1    3    3    0    0 -0.21772391823E+02 -0.37272479968E+02 -0.66071152781E+02  0.78922007140E+02  0.10570000000E+00 0. -1.
         13    1    3    3    0    0  0.21772391823E+02  0.37272479968E+02 -0.14920797768E+03  0.15532645166E+03  0.10570000000E+00 0.  1.
<mgrwt>
<rscale>  0 0.92343037E+02</rscale>
<asrwt>0</asrwt>
<pdfrwt beam="1">  1        1 0.14591793E-02 0.92343037E+02</pdfrwt>
<pdfrwt beam="2">  1       -1 0.34579041E-01 0.92343037E+02</pdfrwt>
<totfact> 0.64856219E+04</totfact>
</mgrwt>
</event>
<event>
 5    1  0.2734570E+000  0.9395588E+02  0.7818608E-02  0.1293545E+00
          1   -1    0    0  501    0  0.00000000000E+00  0.00000000000E+00  0.23132444432E+02  0.23132444903E+02  0.46700000000E-02 0. -1.
         -1   -1    0    0    0  501 -0.00000000000E+00 -0.00000000000E+00 -0.95403960680E+02  0.95403960795E+02  0.46700000000E-02 0.  1.
         23    2    1    2    0    0  0.00000000000E+00  0.00000000000E+00 -0.72271516249E+02  0.11853640570E+03  0.93955880150E+02 0.  0.
        -13    1    3    3    0    0  0.36969212056E+02 -0.15990322727E+02 -0.66637245669E+02  0.77864926275E+02  0.10570000000E+00 0.  1.
         13    1    3    3    0    0 -0.36969212056E+02  0.15990322727E+02 -0.56342705794E+01  0.40671479422E+02  0.10570000000E+00 0. -1.
<mgrwt>
<rscale>  0 0.93955880E+02</rscale>
<asrwt>0</asrwt>
<pdfrwt beam="1">  1        1 0.35588377E-02 0.93955880E+02</pdfrwt>
<pdfrwt beam="2">  1       -1 0.14677532E-01 0.93955880E+02</pdfrwt>
<totfact> 0.75969642E+04</totfact>
</mgrwt>
</event>
<event>
 5    1  0.2734570E+000  0.8909748E+02  0.7818608E-02  0.1305052E+00
          1   -1    0    0  501    0  0.00000000000E+00  0.00000000000E+00  0.53272115482E+02  0.53272115687E+02  0.46700000000E-02 0. -1.
         -1   -1    0    0    0  501 -0.00000000000E+00 -0.00000000000E+00 -0.37253825155E+02  0.37253825447E+02  0.46700000000E-02 0.  1.
         23    2    1    2    0    0  0.00000000000E+00  0.00000000000E+00  0.16018290327E+02  0.90525941134E+02  0.89097476918E+02 0.  0.
        -13    1    3    3    0    0 -0.79740437616E+01 -0.42700452930E+02 -0.20318517659E+01  0.43486246658E+02  0.10570000000E+00 0.  1.
         13    1    3    3    0    0  0.79740437616E+01  0.42700452930E+02  0.18050142093E+02  0.47039694476E+02  0.10570000000E+00 0. -1.
<mgrwt>
<rscale>  0 0.89097477E+02</rscale>
<asrwt>0</asrwt>
<pdfrwt beam="1">  1        1 0.81957101E-02 0.89097477E+02</pdfrwt>
<pdfrwt beam="2">  1       -1 0.57313578E-02 0.89097477E+02</pdfrwt>
<totfact> 0.10092984E+05</totfact>
</mgrwt>
</event>
<event>
 5    1  0.2734570E+000  0.9092339E+02  0.7818608E-02  0.1300631E+00
         -1   -1    0    0    0  501 -0.00000000000E+00  0.00000000000E+00  0.25501729003E+03  0.25501729008E+03  0.46700000000E-02 0. -1.
          1   -1    0    0  501    0  0.00000000000E+00 -0.00000000000E+00 -0.81044140559E+01  0.81044154014E+01  0.46700000000E-02 0.  1.
         23    2    1    2    0    0  0.00000000000E+00  0.00000000000E+00  0.24691287598E+03  0.26312170548E+03  0.90923393964E+02 0.  0.
        -13    1    3    3    0    0  0.43541396116E+01  0.43189215433E+02  0.84363525775E+02  0.94876143024E+02  0.10570000000E+00 0.  1.
         13    1    3    3    0    0 -0.43541396116E+01 -0.43189215433E+02  0.16254935020E+03  0.16824556245E+03  0.10570000000E+00 0. -1.
<mgrwt>
<rscale>  0 0.90923394E+02</rscale>
<asrwt>0</asrwt>
<pdfrwt beam="2">  1        1 0.12468331E-02 0.90923394E+02</pdfrwt>
<pdfrwt beam="1">  1       -1 0.39233426E-01 0.90923394E+02</pdfrwt>
<totfact> 0.64796347E+04</totfact>
</mgrwt>
</event>
<event>
 5    1  0.2734570E+000  0.9012817E+02  0.7818608E-02  0.1302542E+00
         -1   -1    0    0    0  501 -0.00000000000E+00  0.00000000000E+00  0.82354421278E+01  0.82354434519E+01  0.46700000000E-02 0.  1.
          1   -1    0    0  501    0  0.00000000000E+00 -0.00000000000E+00 -0.24658925111E+03  0.24658925116E+03  0.46700000000E-02 0. -1.
         23    2    1    2    0    0  0.00000000000E+00  0.00000000000E+00 -0.23835380899E+03  0.25482469461E+03  0.90128168321E+02 0.  0.
        -13    1    3    3    0    0  0.37003458862E+02  0.18253890244E+02 -0.67947839441E+02  0.79494531473E+02  0.10570000000E+00 0.  1.
         13    1    3    3    0    0 -0.37003458862E+02 -0.18253890244E+02 -0.17040596954E+03  0.17533016314E+03  0.10570000000E+00 0. -1.
<mgrwt>
<rscale>  0 0.90128168E+02</rscale>
<asrwt>0</asrwt>
<pdfrwt beam="2">  1        1 0.37936802E-01 0.90128168E+02</pdfrwt>
<pdfrwt beam="1">  1       -1 0.12669914E-02 0.90128168E+02</pdfrwt>
<totfact> 0.12720710E+05</totfact>
</mgrwt>
</event>
<event>
 5    1  0.2734570E+000  0.9180122E+02  0.7818608E-02  0.1298547E+00
          1   -1    0    0  501    0  0.00000000000E+00  0.00000000000E+00  0.25448674969E+03  0.25448674974E+03  0.46700000000E-02 0. -1.
         -1   -1    0    0    0  501 -0.00000000000E+00 -0.00000000000E+00 -0.82788827494E+01  0.82788840666E+01  0.46700000000E-02 0.  1.
         23    2    1    2    0    0  0.00000000000E+00  0.00000000000E+00  0.24620786695E+03  0.26276563380E+03  0.91801223100E+02 0.  0.
        -13    1    3    3    0    0  0.34848745843E+02 -0.29200826406E+02  0.14114608084E+03  0.14828806648E+03  0.10570000000E+00 0. -1.
         13    1    3    3    0    0 -0.34848745843E+02  0.29200826406E+02  0.10506178610E+03  0.11447756733E+03  0.10570000000E+00 0.  1.
<mgrwt>
<rscale>  0 0.91801223E+02</rscale>
<asrwt>0</asrwt>
<pdfrwt beam="1">  1        1 0.39151806E-01 0.91801223E+02</pdfrwt>
<pdfrwt beam="2">  1       -1 0.12736744E-02 0.91801223E+02</pdfrwt>
<totfact> 0.12185500E+05</totfact>
</mgrwt>
</event>
<event>
 5    1  0.2734570E+000  0.9176195E+02  0.7818608E-02  0.1298640E+00
          1   -1    0    0  501    0  0.00000000000E+00  0.00000000000E+00  0.22031703077E+03  0.22031703082E+03  0.46700000000E-02 0. -1.
         -1   -1    0    0    0  501 -0.00000000000E+00 -0.00000000000E+00 -0.95547036672E+01  0.95547048085E+01  0.46700000000E-02 0.  1.
         23    2    1    2    0    0  0.00000000000E+00  0.00000000000E+00  0.21076232710E+03  0.22987173562E+03  0.91761954614E+02 0.  0.
        -13    1    3    3    0    0  0.34969943448E+02  0.16981522268E+02  0.44337988520E+02  0.58967257370E+02  0.10570000000E+00 0.  1.
         13    1    3    3    0    0 -0.34969943448E+02 -0.16981522268E+02  0.16642433858E+03  0.17090447825E+03  0.10570000000E+00 0. -1.
<mgrwt>
<rscale>  0 0.91761955E+02</rscale>
<asrwt>0</asrwt>
<pdfrwt beam="1">  1        1 0.33894927E-01 0.91761955E+02</pdfrwt>
<pdfrwt beam="2">  1       -1 0.14699546E-02 0.91761955E+02</pdfrwt>
<totfact> 0.11860615E+05</totfact>
</mgrwt>
</event>
<event>
 5    1  0.2734570E+000  0.9258366E+02  0.7818608E-02  0.1296713E+00
          1   -1    0    0  501    0  0.00000000000E+00  0.00000000000E+00  0.12197420385E+03  0.12197420394E+03  0.46700000000E-02 0. -1.
         -1   -1    0    0    0  501 -0.00000000000E+00 -0.00000000000E+00 -0.17568745048E+02  0.17568745668E+02  0.46700000000E-02 0.  1.
         23    2    1    2    0    0  0.00000000000E+00  0.00000000000E+00  0.10440545880E+03  0.13954294961E+03  0.92583664635E+02 0.  0.
        -13    1    3    3    0    0  0.14364683907E+02 -0.35652661685E+02  0.91083647587E+02  0.98862017273E+02  0.10570000000E+00 0. -1.
         13    1    3    3    0    0 -0.14364683907E+02  0.35652661685E+02  0.13321811214E+02  0.40680932333E+02  0.10570000000E+00 0.  1.
<mgrwt>
<rscale>  0 0.92583665E+02</rscale>
<asrwt>0</asrwt>
<pdfrwt beam="1">  1        1 0.18765262E-01 0.92583665E+02</pdfrwt>
<pdfrwt beam="2">  1       -1 0.27028840E-02 0.92583665E+02</pdfrwt>
<totfact> 0.10364434E+05</totfact>
</mgrwt>
</event>
<event>
 5    1  0.2734570E+000  0.9086999E+02  0.7818608E-02  0.1300758E+00
          1   -1    0    0  501    0  0.00000000000E+00  0.00000000000E+00  0.17243079573E+02  0.17243080206E+02  0.46700000000E-02 0. -1.
         -1   -1    0    0    0  501 -0.00000000000E+00 -0.00000000000E+00 -0.11971983275E+03  0.11971983284E+03  0.46700000000E-02 0.  1.
         23    2    1    2    0    0  0.00000000000E+00  0.00000000000E+00 -0.10247675318E+03  0.13696291305E+03  0.90869987393E+02 0.  0.
        -13    1    3    3    0    0  0.41618151716E+02 -0.13818556668E+02 -0.69155174231E+02  0.81886948630E+02  0.10570000000E+00 0.  1.
         13    1    3    3    0    0 -0.41618151716E+02  0.13818556668E+02 -0.33321578950E+02  0.55075964420E+02  0.10570000000E+00 0. -1.
<mgrwt>
<rscale>  0 0.90869987E+02</rscale>
<asrwt>0</asrwt>
<pdfrwt beam="1">  1        1 0.26527816E-02 0.90869987E+02</pdfrwt>
<pdfrwt beam="2">  1       -1 0.18418435E-01 0.90869987E+02</pdfrwt>
<totfact> 0.79255813E+04</totfact>
</mgrwt>
</event>
<event>
 5    1  0.2734570E+000  0.8792340E+02  0.7818608E-02  0.1307960E+00
          1   -1    0    0  501    0  0.00000000000E+00  0.00000000000E+00  0.18737578302E+03  0.18737578308E+03  0.46700000000E-02 0. -1.
         -1   -1    0    0    0  501 -0.00000000000E+00 -0.00000000000E+00 -0.10314198004E+02  0.10314199061E+02  0.46700000000E-02 0.  1.
         23    2    1    2    0    0  0.00000000000E+00  0.00000000000E+00  0.17706158502E+03  0.19768998214E+03  0.87923399330E+02 0.  0.
        -13    1    3    3    0    0  0.19412962379E+02 -0.20738076007E+02  0.16396865860E+03  0.16641112667E+03  0.10570000000E+00 0. -1.
         13    1    3    3    0    0 -0.19412962379E+02  0.20738076007E+02  0.13092926419E+02  0.31278855470E+02  0.10570000000E+00 0.  1.
<mgrwt>
<rscale>  0 0.87923399E+02</rscale>
<asrwt>0</asrwt>
<pdfrwt beam="1">  1        1 0.28827045E-01 0.87923399E+02</pdfrwt>
<pdfrwt beam="2">  1       -1 0.15867997E-02 0.87923399E+02</pdfrwt>
<totfact> 0.12887220E+05</totfact>
</mgrwt>
</event>
<event>
 5    1  0.2734570E+000  0.8394104E+02  0.7818608E-02  0.1318225E+00
          1   -1    0    0  501    0  0.00000000000E+00  0.00000000000E+00  0.17582691160E+03  0.17582691166E+03  0.46700000000E-02 0. -1.
         -1   -1    0    0    0  501 -0.00000000000E+00 -0.00000000000E+00 -0.10018515100E+02  0.10018516189E+02  0.46700000000E-02 0.  1.
         23    2    1    2    0    0  0.00000000000E+00  0.00000000000E+00  0.16580839650E+03  0.18584542785E+03  0.83941043019E+02 0.  0.
        -13    1    3    3    0    0 -0.38049781084E+02 -0.10832326251E+02  0.11393088517E+03  0.12060424081E+03  0.10570000000E+00 0. -1.
         13    1    3    3    0    0  0.38049781084E+02  0.10832326251E+02  0.51877511327E+02  0.65241187040E+02  0.10570000000E+00 0.  1.
<mgrwt>
<rscale>  0 0.83941043E+02</rscale>
<asrwt>0</asrwt>
<pdfrwt beam="1">  1        1 0.27050293E-01 0.83941043E+02</pdfrwt>
<pdfrwt beam="2">  1       -1 0.15413102E-02 0.83941043E+02</pdfrwt>
<totfact> 0.14409538E+05</totfact>
</mgrwt>
</event>
<event>
 5    1  0.2734570E+000  0.9159259E+02  0.7818608E-02  0.1299040E+00
         -1   -1    0    0    0  501 -0.00000000000E+00  0.00000000000E+00  0.32869842921E+02  0.32869843253E+02  0.46700000000E-02 0.  1.
          1   -1    0    0  501    0  0.00000000000E+00 -0.00000000000E+00 -0.63806218695E+02  0.63806218866E+02  0.46700000000E-02 0. -1.
         23    2    1    2    0    0  0.00000000000E+00  0.00000000000E+00 -0.30936375773E+02  0.96676062119E+02  0.91592585076E+02 0.  0.
        -13    1    3    3    0    0  0.29863081498E+02 -0.29171741557E+02 -0.35341202467E+02  0.54697403104E+02  0.10570000000E+00 0. -1.
         13    1    3    3    0    0 -0.29863081498E+02  0.29171741557E+02  0.44048266937E+01  0.41978659015E+02  0.10570000000E+00 0.  1.
<mgrwt>
<rscale>  0 0.91592585E+02</rscale>
<asrwt>0</asrwt>
<pdfrwt beam="2">  1        1 0.98163414E-02 0.91592585E+02</pdfrwt>
<pdfrwt beam="1">  1       -1 0.50568990E-02 0.91592585E+02</pdfrwt>
<totfact> 0.96056882E+04</totfact>
</mgrwt>
</event>
<event>
 5    1  0.2734570E+000  0.7893011E+02  0.7818608E-02  0.1332115E+00
         -1   -1    0    0    0  501 -0.00000000000E+00  0.00000000000E+00  0.97505437509E+01  0.97505448693E+01  0.46700000000E-02 0.  1.
          1   -1    0    0  501    0  0.00000000000E+00 -0.00000000000E+00 -0.15973368602E+03  0.15973368609E+03  0.46700000000E-02 0. -1.
         23    2    1    2    0    0  0.00000000000E+00  0.00000000000E+00 -0.14998314227E+03  0.16948423096E+03  0.78930105654E+02 0.  0.
        -13    1    3    3    0    0  0.22720880250E+02 -0.24035528198E+02 -0.12122195584E+03  0.12565316855E+03  0.10570000000E+00 0.  1.
         13    1    3    3    0    0 -0.22720880250E+02  0.24035528198E+02 -0.28761186432E+02  0.43831062416E+02  0.10570000000E+00 0. -1.
<mgrwt>
<rscale>  0 0.78930106E+02</rscale>
<asrwt>0</asrwt>
<pdfrwt beam="2">  1        1 0.24574411E-01 0.78930106E+02</pdfrwt>
<pdfrwt beam="1">  1       -1 0.15000839E-02 0.78930106E+02</pdfrwt>
<totfact> 0.16674979E+05</totfact>
</mgrwt>
</event>
<event>
 5    1  0.2734570E+000  0.9903971E+02  0.7818608E-02  0.1282328E+00
         -1   -1    0    0    0  501 -0.00000000000E+00  0.00000000000E+00  0.38659190945E+03  0.38659190947E+03  0.46700000000E-02 0. -1.
          1   -1    0    0  501    0  0.00000000000E+00 -0.00000000000E+00 -0.63431636600E+01  0.63431653791E+01  0.46700000000E-02 0.  1.
         23    2    1    2    0    0  0.00000000000E+00  0.00000000000E+00  0.38024874579E+03  0.39293507485E+03  0.99039711117E+02 0.  0.
        -13    1    3    3    0    0  0.39974079068E+02 -0.25239489855E+02  0.24860168515E+03  0.25305684713E+03  0.10570000000E+00 0. -1.
         13    1    3    3    0    0 -0.39974079068E+02  0.25239489855E+02  0.13164706063E+03  0.13987822772E+03  0.10570000000E+00 0.  1.
<mgrwt>
<rscale>  0 0.99039711E+02</rscale>
<asrwt>0</asrwt>
<pdfrwt beam="2">  1        1 0.97587183E-03 0.99039711E+02</pdfrwt>
<pdfrwt beam="1">  1       -1 0.59475656E-01 0.99039711E+02</pdfrwt>
<totfact> 0.43610800E+04</totfact>
</mgrwt>
</event>
<event>
 5    1  0.2734570E+000  0.9066880E+02  0.7818608E-02  0.1301240E+00
          1   -1    0    0  501    0  0.00000000000E+00  0.00000000000E+00  0.33021097974E+03  0.33021097978E+03  0.46700000000E-02 0. -1.
         -1   -1    0    0    0  501 -0.00000000000E+00 -0.00000000000E+00 -0.62239222420E+01  0.62239239940E+01  0.46700000000E-02 0.  1.
         23    2    1    2    0    0  0.00000000000E+00  0.00000000000E+00  0.32398705750E+03  0.33643490377E+03  0.90668798639E+02 0.  0.
        -13    1    3    3    0    0  0.42553059772E+02  0.11773744398E+01  0.21984158196E+03  0.22392516928E+03  0.10570000000E+00 0. -1.
         13    1    3    3    0    0 -0.42553059772E+02 -0.11773744398E+01  0.10414547554E+03  0.11250973449E+03  0.10570000000E+00 0.  1.
<mgrwt>
<rscale>  0 0.90668799E+02</rscale>
<asrwt>0</asrwt>
<pdfrwt beam="1">  1        1 0.50801702E-01 0.90668799E+02</pdfrwt>
<pdfrwt beam="2">  1       -1 0.95752640E-03 0.90668799E+02</pdfrwt>
<totfact> 0.13240152E+05</totfact>
</mgrwt>
</event>
<event>
 5    1  0.2734570E+000  0.9781737E+02  0.7818608E-02  0.1284954E+00
         -1   -1    0    0    0  501 -0.00000000000E+00  0.00000000000E+00  0.49037764683E+02  0.49037764905E+02  0.46700000000E-02 0.  1.
          1   -1    0    0  501    0  0.00000000000E+00 -0.00000000000E+00 -0.48779949548E+02  0.48779949772E+02  0.46700000000E-02 0. -1.
         23    2    1    2    0    0  0.00000000000E+00  0.00000000000E+00  0.25781513456E+00  0.97817714676E+02  0.97817374918E+02 0.  0.
        -13    1    3    3    0    0  0.18641749381E+02 -0.25595251560E+02  0.37403918849E+02  0.49007101936E+02  0.10570000000E+00 0.  1.
         13    1    3    3    0    0 -0.18641749381E+02  0.25595251560E+02 -0.37146103715E+02  0.48810612740E+02  0.10570000000E+00 0. -1.
<mgrwt>
<rscale>  0 0.97817375E+02</rscale>
<asrwt>0</asrwt>
<pdfrwt beam="2">  1        1 0.75046076E-02 0.97817375E+02</pdfrwt>
<pdfrwt beam="1">  1       -1 0.75442715E-02 0.97817375E+02</pdfrwt>
<totfact> 0.76636260E+04</totfact>
</mgrwt>
</event>
<event>
 5    1  0.2734570E+000  0.8933408E+02  0.7818608E-02  0.1304472E+00
          1   -1    0    0  501    0  0.00000000000E+00  0.00000000000E+00  0.13610825812E+03  0.13610825820E+03  0.46700000000E-02 0. -1.
         -1   -1    0    0    0  501 -0.00000000000E+00 -0.00000000000E+00 -0.14658512017E+02  0.14658512761E+02  0.46700000000E-02 0.  1.
         23    2    1    2    0    0  0.00000000000E+00  0.00000000000E+00  0.12144974610E+03  0.15076677096E+03  0.89334083068E+02 0.  0.
        -13    1    3    3    0    0 -0.65869365236E+01  0.35640122908E+02  0.10478341173E+03  0.11087461675E+03  0.10570000000E+00 0. -1.
         13    1    3    3    0    0  0.65869365236E+01 -0.35640122908E+02  0.16666334375E+02  0.39892154211E+02  0.10570000000E+00 0.  1.
<mgrwt>
<rscale>  0 0.89334083E+02</rscale>
<asrwt>0</asrwt>
<pdfrwt beam="1">  1        1 0.20939733E-01 0.89334083E+02</pdfrwt>
<pdfrwt beam="2">  1       -1 0.22551557E-02 0.89334083E+02</pdfrwt>
<totfact> 0.11640850E+05</totfact>
</mgrwt>
</event>
<event>
 5    1  0.2734570E+000  0.9001443E+02  0.7818608E-02  0.1302817E+00
         -1   -1    0    0    0  501 -0.00000000000E+00  0.00000000000E+00  0.15301532421E+02  0.15301533134E+02  0.46700000000E-02 0.  1.
          1   -1    0    0  501    0  0.00000000000E+00 -0.00000000000E+00 -0.13238212791E+03  0.13238212799E+03  0.46700000000E-02 0. -1.
         23    2    1    2    0    0  0.00000000000E+00  0.00000000000E+00 -0.11708059549E+03  0.14768366113E+03  0.90014431752E+02 0.  0.
        -13    1    3    3    0    0 -0.21703063003E+02 -0.38982017533E+02 -0.48831533572E+02  0.66144920275E+02  0.10570000000E+00 0.  1.
         13    1    3    3    0    0  0.21703063003E+02  0.38982017533E+02 -0.68249061919E+02  0.81538740854E+02  0.10570000000E+00 0. -1.
<mgrwt>
<rscale>  0 0.90014432E+02</rscale>
<asrwt>0</asrwt>
<pdfrwt beam="2">  1        1 0.20366481E-01 0.90014432E+02</pdfrwt>
<pdfrwt beam="1">  1       -1 0.23540821E-02 0.90014432E+02</pdfrwt>
<totfact> 0.11348799E+05</totfact>
</mgrwt>
</event>
<event>
 5    1  0.2734570E+000  0.9205447E+02  0.7818608E-02  0.1297951E+00
          1   -1    0    0  501    0  0.00000000000E+00  0.00000000000E+00  0.45492279756E+02  0.45492279995E+02  0.46700000000E-02 0. -1.
         -1   -1    0    0    0  501 -0.00000000000E+00 -0.00000000000E+00 -0.46568476086E+02  0.46568476320E+02  0.46700000000E-02 0.  1.
         23    2    1    2    0    0  0.00000000000E+00  0.00000000000E+00 -0.10761963304E+01  0.92060756316E+02  0.92054465697E+02 0.  0.
        -13    1    3    3    0    0  0.26902994495E+02  0.26945549770E+02 -0.26398349831E+02  0.46332686210E+02  0.10570000000E+00 0.  1.
         13    1    3    3    0    0 -0.26902994495E+02 -0.26945549770E+02  0.25322153501E+02  0.45728070105E+02  0.10570000000E+00 0. -1.
<mgrwt>
<rscale>  0 0.92054466E+02</rscale>
<asrwt>0</asrwt>
<pdfrwt beam="1">  1        1 0.69988123E-02 0.92054466E+02</pdfrwt>
<pdfrwt beam="2">  1       -1 0.71643810E-02 0.92054466E+02</pdfrwt>
<totfact> 0.89985835E+04</totfact>
</mgrwt>
</event>
<event>
 5    1  0.2734570E+000  0.9056375E+02  0.7818608E-02  0.1301492E+00
         -1   -1    0    0    0  501 -0.00000000000E+00  0.00000000000E+00  0.36774829826E+02  0.36774830122E+02  0.46700000000E-02 0.  1.
          1   -1    0    0  501    0  0.00000000000E+00 -0.00000000000E+00 -0.55756836946E+02  0.55756837141E+02  0.46700000000E-02 0. -1.
         23    2    1    2    0    0  0.00000000000E+00  0.00000000000E+00 -0.18982007120E+02  0.92531667263E+02  0.90563750211E+02 0.  0.
        -13    1    3    3    0    0 -0.41670360775E+02  0.79070222794E+01 -0.25694265620E+02  0.49589781474E+02  0.10570000000E+00 0. -1.
         13    1    3    3    0    0  0.41670360775E+02 -0.79070222794E+01  0.67122584994E+01  0.42941885789E+02  0.10570000000E+00 0.  1.
<mgrwt>
<rscale>  0 0.90563750E+02</rscale>
<asrwt>0</asrwt>
<pdfrwt beam="2">  1        1 0.85779749E-02 0.90563750E+02</pdfrwt>
<pdfrwt beam="1">  1       -1 0.56576662E-02 0.90563750E+02</pdfrwt>
<totfact> 0.97114734E+04</totfact>
</mgrwt>
</event>
<event>
 5    1  0.2734570E+000  0.8590057E+02  0.7818608E-02  0.1313094E+00
         -1   -1    0    0    0  501 -0.00000000000E+00  0.00000000000E+00  0.44903864338E+02  0.44903864581E+02  0.46700000000E-02 0.  1.
          1   -1    0    0  501    0  0.00000000000E+00 -0.00000000000E+00 -0.41081700173E+02  0.41081700439E+02  0.46700000000E-02 0. -1.
         23    2    1    2    0    0  0.00000000000E+00  0.00000000000E+00  0.38221641652E+01  0.85985565020E+02  0.85900573065E+02 0.  0.
        -13    1    3    3    0    0  0.20592911059E+02  0.30610577294E+02 -0.20102505440E+02  0.42014251458E+02  0.10570000000E+00 0. -1.
         13    1    3    3    0    0 -0.20592911059E+02 -0.30610577294E+02  0.23924669605E+02  0.43971313562E+02  0.10570000000E+00 0.  1.
<mgrwt>
<rscale>  0 0.85900573E+02</rscale>
<asrwt>0</asrwt>
<pdfrwt beam="2">  1        1 0.63202616E-02 0.85900573E+02</pdfrwt>
<pdfrwt beam="1">  1       -1 0.69082868E-02 0.85900573E+02</pdfrwt>
<totfact> 0.10759652E+05</totfact>
</mgrwt>
</event>
<event>
 5    1  0.2734570E+000  0.9447487E+02  0.7818608E-02  0.1292363E+00
          1   -1    0    0  501    0  0.00000000000E+00  0.00000000000E+00  0.56973291378E+02  0.56973291570E+02  0.46700000000E-02 0. -1.
         -1   -1    0    0    0  501 -0.00000000000E+00 -0.00000000000E+00 -0.39165288854E+02  0.39165289132E+02  0.46700000000E-02 0.  1.
         23    2    1    2    0    0  0.00000000000E+00  0.00000000000E+00  0.17808002525E+02  0.96138580702E+02  0.94474873620E+02 0.  0.
        -13    1    3    3    0    0 -0.25086682207E+02  0.21540148948E+02 -0.25424989224E+02  0.41710441024E+02  0.10570000000E+00 0.  1.
         13    1    3    3    0    0  0.25086682207E+02 -0.21540148948E+02  0.43232991749E+02  0.54428139679E+02  0.10570000000E+00 0. -1.
<mgrwt>
<rscale>  0 0.94474874E+02</rscale>
<asrwt>0</asrwt>
<pdfrwt beam="1">  1        1 0.87651217E-02 0.94474874E+02</pdfrwt>
<pdfrwt beam="2">  1       -1 0.60254292E-02 0.94474874E+02</pdfrwt>
<totfact> 0.86597524E+04</totfact>
</mgrwt>
</event>
<event>
 5    1  0.2734570E+000  0.9161249E+02  0.7818608E-02  0.1298993E+00
         -1   -1    0    0    0  501 -0.00000000000E+00  0.00000000000E+00  0.10197385123E+02  0.10197386193E+02  0.46700000000E-02 0.  1.
          1   -1    0    0  501    0  0.00000000000E+00 -0.00000000000E+00 -0.20575981029E+03  0.20575981035E+03  0.46700000000E-02 0. -1.
         23    2    1    2    0    0  0.00000000000E+00  0.00000000000E+00 -0.19556242517E+03  0.21595719654E+03  0.91612491499E+02 0.  0.
        -13    1    3    3    0    0 -0.32066452841E+02  0.27201567944E+01 -0.17462106374E+03  0.17756177439E+03  0.10570000000E+00 0.  1.
         13    1    3    3    0    0  0.32066452841E+02 -0.27201567944E+01 -0.20941361428E+02  0.38395422146E+02  0.10570000000E+00 0. -1.
<mgrwt>
<rscale>  0 0.91612491E+02</rscale>
<asrwt>0</asrwt>
<pdfrwt beam="2">  1        1 0.31655352E-01 0.91612491E+02</pdfrwt>
<pdfrwt beam="1">  1       -1 0.15688287E-02 0.91612491E+02</pdfrwt>
<totfact> 0.11754752E+05</totfact>
</mgrwt>
</event>
<event>
 5    1  0.2734570E+000  0.8577055E+02  0.7818608E-02  0.1313430E+00
         -1   -1    0    0    0  501 -0.00000000000E+00  0.00000000000E+00  0.27896235635E+02  0.27896236025E+02  0.46700000000E-02 0.  1.
          1   -1    0    0  501    0  0.00000000000E+00 -0.00000000000E+00 -0.65928135972E+02  0.65928136137E+02  0.46700000000E-02 0. -1.
         23    2    1    2    0    0  0.00000000000E+00  0.00000000000E+00 -0.38031900337E+02  0.93824372163E+02  0.85770550706E+02 0.  0.
        -13    1    3    3    0    0  0.12696276397E+02  0.14883051644E+02 -0.60762734016E+02  0.63834329935E+02  0.10570000000E+00 0. -1.
         13    1    3    3    0    0 -0.12696276397E+02 -0.14883051644E+02  0.22730833679E+02  0.29990042228E+02  0.10570000000E+00 0.  1.
<mgrwt>
<rscale>  0 0.85770551E+02</rscale>
<asrwt>0</asrwt>
<pdfrwt beam="2">  1        1 0.10142790E-01 0.85770551E+02</pdfrwt>
<pdfrwt beam="1">  1       -1 0.42917286E-02 0.85770551E+02</pdfrwt>
<totfact> 0.11565430E+05</totfact>
</mgrwt>
</event>
<event>
 5    1  0.2734570E+000  0.9064155E+02  0.7818608E-02  0.1301305E+00
         -1   -1    0    0    0  501 -0.00000000000E+00  0.00000000000E+00  0.81183235881E+02  0.81183236015E+02  0.46700000000E-02 0.  1.
          1   -1    0    0  501    0  0.00000000000E+00 -0.00000000000E+00 -0.25300452170E+02  0.25300452601E+02  0.46700000000E-02 0. -1.
         23    2    1    2    0    0  0.00000000000E+00  0.00000000000E+00  0.55882783711E+02  0.10648368862E+03  0.90641549115E+02 0.  0.
        -13    1    3    3    0    0  0.76475838533E+01 -0.44665658345E+02  0.27149082931E+02  0.52826039513E+02  0.10570000000E+00 0.  1.
         13    1    3    3    0    0 -0.76475838533E+01  0.44665658345E+02  0.28733700780E+02  0.53657649102E+02  0.10570000000E+00 0. -1.
<mgrwt>
<rscale>  0 0.90641549E+02</rscale>
<asrwt>0</asrwt>
<pdfrwt beam="2">  1        1 0.38923773E-02 0.90641549E+02</pdfrwt>
<pdfrwt beam="1">  1       -1 0.12489729E-01 0.90641549E+02</pdfrwt>
<totfact> 0.85722371E+04</totfact>
</mgrwt>
</event>
<event>
 5    1  0.2734570E+000  0.9231588E+02  0.7818608E-02  0.1297338E+00
         -1   -1    0    0    0  501 -0.00000000000E+00  0.00000000000E+00  0.72390904283E+02  0.72390904434E+02  0.46700000000E-02 0.  1.
          1   -1    0    0  501    0  0.00000000000E+00 -0.00000000000E+00 -0.29431256181E+02  0.29431256552E+02  0.46700000000E-02 0. -1.
         23    2    1    2    0    0  0.00000000000E+00  0.00000000000E+00  0.42959648102E+02  0.10182216099E+03  0.92315876765E+02 0.  0.
        -13    1    3    3    0    0  0.41354000898E+02 -0.23296548689E+01 -0.98850724314E+00  0.41431497694E+02  0.10570000000E+00 0. -1.
         13    1    3    3    0    0 -0.41354000898E+02  0.23296548689E+01  0.43948155345E+02  0.60390663292E+02  0.10570000000E+00 0.  1.
<mgrwt>
<rscale>  0 0.92315877E+02</rscale>
<asrwt>0</asrwt>
<pdfrwt beam="2">  1        1 0.45278856E-02 0.92315877E+02</pdfrwt>
<pdfrwt beam="1">  1       -1 0.11137062E-01 0.92315877E+02</pdfrwt>
<totfact> 0.83380701E+04</totfact>
</mgrwt>
</event>
<event>
 5    1  0.2734570E+000  0.9342213E+02  0.7818608E-02  0.1294770E+00
         -1   -1    0    0    0  501 -0.00000000000E+00  0.00000000000E+00  0.34190515001E+02  0.34190515320E+02  0.46700000000E-02 0.  1.
          1   -1    0    0  501    0  0.00000000000E+00 -0.00000000000E+00 -0.63816630226E+02  0.63816630397E+02  0.46700000000E-02 0. -1.
         23    2    1    2    0    0  0.00000000000E+00  0.00000000000E+00 -0.29626115225E+02  0.98007145717E+02  0.93422127509E+02 0.  0.
        -13    1    3    3    0    0 -0.11702244866E+02  0.44761991023E+02 -0.80683778442E+01  0.46964755602E+02  0.10570000000E+00 0.  1.
         13    1    3    3    0    0  0.11702244866E+02 -0.44761991023E+02 -0.21557737380E+02  0.51042390115E+02  0.10570000000E+00 0. -1.
<mgrwt>
<rscale>  0 0.93422128E+02</rscale>
<asrwt>0</asrwt>
<pdfrwt beam="2">  1        1 0.98179432E-02 0.93422128E+02</pdfrwt>
<pdfrwt beam="1">  1       -1 0.52600793E-02 0.93422128E+02</pdfrwt>
<totfact> 0.90928043E+04</totfact>
</mgrwt>
</event>
<event>
 5    1  0.2734570E+000  0.9093395E+02  0.7818608E-02  0.1300606E+00
         -1   -1    0    0    0  501 -0.00000000000E+00  0.00000000000E+00  0.13587751056E+02  0.13587751858E+02  0.46700000000E-02 0.  1.
          1   -1    0    0  501    0  0.00000000000E+00 -0.00000000000E+00 -0.15214038991E+03  0.15214038998E+03  0.46700000000E-02 0. -1.
         23    2    1    2    0    0  0.00000000000E+00  0.00000000000E+00 -0.13855263885E+03  0.16572814184E+03  0.90933950009E+02 0.  0.
        -13    1    3    3    0    0  0.50363629465E+01  0.40892656700E+02 -0.34235712323E+02  0.53569296192E+02  0.10570000000E+00 0.  1.
         13    1    3    3    0    0 -0.50363629465E+01 -0.40892656700E+02 -0.10431692653E+03  0.11215884565E+03  0.10570000000E+00 0. -1.
<mgrwt>
<rscale>  0 0.90933950E+02</rscale>
<asrwt>0</asrwt>
<pdfrwt beam="2">  1        1 0.23406213E-01 0.90933950E+02</pdfrwt>
<pdfrwt beam="1">  1       -1 0.20904234E-02 0.90933950E+02</pdfrwt>
<totfact> 0.11323734E+05</totfact>
</mgrwt>
</event>
<event>
 5    1  0.2734570E+000  0.9137785E+02  0.7818608E-02  0.1299549E+00
         -1   -1    0    0    0  501 -0.00000000000E+00  0.00000000000E+00  0.22461157588E+02  0.22461158074E+02  0.46700000000E-02 0.  1.
          1   -1    0    0  501    0  0.00000000000E+00 -0.00000000000E+00 -0.92937226262E+02  0.92937226379E+02  0.46700000000E-02 0. -1.
         23    2    1    2    0    0  0.00000000000E+00  0.00000000000E+00 -0.70476068674E+02  0.11539838445E+03  0.91377846761E+02 0.  0.
        -13    1    3    3    0    0 -0.20311585961E+02  0.40704510453E+02 -0.40603205688E+02  0.60975808155E+02  0.10570000000E+00 0.  1.
         13    1    3    3    0    0  0.20311585961E+02 -0.40704510453E+02 -0.29872862986E+02  0.54422576298E+02  0.10570000000E+00 0. -1.
<mgrwt>
<rscale>  0 0.91377847E+02</rscale>
<asrwt>0</asrwt>
<pdfrwt beam="2">  1        1 0.14298035E-01 0.91377847E+02</pdfrwt>
<pdfrwt beam="1">  1       -1 0.34555628E-02 0.91377847E+02</pdfrwt>
<totfact> 0.10257875E+05</totfact>
</mgrwt>
</event>
<event>
 5    1  0.2734570E+000  0.9115059E+02  0.7818608E-02  0.1300089E+00
          1   -1    0    0  501    0  0.00000000000E+00  0.00000000000E+00  0.44640912581E+02  0.44640912826E+02  0.46700000000E-02 0. -1.
         -1   -1    0    0    0  501 -0.00000000000E+00 -0.00000000000E+00 -0.46529232013E+02  0.46529232247E+02  0.46700000000E-02 0.  1.
         23    2    1    2    0    0  0.00000000000E+00  0.00000000000E+00 -0.18883194312E+01  0.91170145073E+02  0.91150587504E+02 0.  0.
        -13    1    3    3    0    0 -0.36524907987E+02 -0.15970532699E+02  0.21150609644E+02  0.45127444853E+02  0.10570000000E+00 0. -1.
         13    1    3    3    0    0  0.36524907987E+02  0.15970532699E+02 -0.23038929075E+02  0.46042700220E+02  0.10570000000E+00 0.  1.
<mgrwt>
<rscale>  0 0.91150588E+02</rscale>
<asrwt>0</asrwt>
<pdfrwt beam="1">  1        1 0.68678327E-02 0.91150588E+02</pdfrwt>
<pdfrwt beam="2">  1       -1 0.71583435E-02 0.91150588E+02</pdfrwt>
<totfact> 0.92255260E+04</totfact>
</mgrwt>
</event>
<event>
 5    1  0.2734570E+000  0.9030503E+02  0.7818608E-02  0.1302115E+00
          1   -1    0    0  501    0  0.00000000000E+00  0.00000000000E+00  0.75985243869E+02  0.75985244013E+02  0.46700000000E-02 0. -1.
         -1   -1    0    0    0  501 -0.00000000000E+00 -0.00000000000E+00 -0.26830863860E+02  0.26830864267E+02  0.46700000000E-02 0.  1.
         23    2    1    2    0    0  0.00000000000E+00  0.00000000000E+00  0.49154380009E+02  0.10281610828E+03  0.90305033347E+02 0.  0.
        -13    1    3    3    0    0  0.54206652315E+01 -0.25300817268E+02 -0.17552318802E+02  0.31266756048E+02  0.10570000000E+00 0.  1.
         13    1    3    3    0    0 -0.54206652315E+01  0.25300817268E+02  0.66706698811E+02  0.71549352231E+02  0.10570000000E+00 0. -1.
<mgrwt>
<rscale>  0 0.90305033E+02</rscale>
<asrwt>0</asrwt>
<pdfrwt beam="1">  1        1 0.11690038E-01 0.90305033E+02</pdfrwt>
<pdfrwt beam="2">  1       -1 0.41278252E-02 0.90305033E+02</pdfrwt>
<totfact> 0.10260426E+05</totfact>
</mgrwt>
</event>
<event>
 5    1  0.2734570E+000  0.8537660E+02  0.7818608E-02  0.1314451E+00
         -1   -1    0    0    0  501 -0.00000000000E+00  0.00000000000E+00  0.56643855865E+01  0.56643875116E+01  0.46700000000E-02 0.  1.
          1   -1    0    0  501    0  0.00000000000E+00 -0.00000000000E+00 -0.32171019402E+03  0.32171019405E+03  0.46700000000E-02 0. -1.
         23    2    1    2    0    0  0.00000000000E+00  0.00000000000E+00 -0.31604580843E+03  0.32737458156E+03  0.85376598824E+02 0.  0.
        -13    1    3    3    0    0  0.41636090601E+02  0.17209611554E+01 -0.19353148098E+03  0.19796709588E+03  0.10570000000E+00 0.  1.
         13    1    3    3    0    0 -0.41636090601E+02 -0.17209611554E+01 -0.12251432745E+03  0.12940748568E+03  0.10570000000E+00 0. -1.
<mgrwt>
<rscale>  0 0.85376599E+02</rscale>
<asrwt>0</asrwt>
<pdfrwt beam="2">  1        1 0.49493862E-01 0.85376599E+02</pdfrwt>
<pdfrwt beam="1">  1       -1 0.87144434E-03 0.85376599E+02</pdfrwt>
<totfact> 0.15453973E+05</totfact>
</mgrwt>
</event>
<event>
 5    1  0.2734570E+000  0.1006667E+03  0.7818608E-02  0.1278900E+00
         -1   -1    0    0    0  501 -0.00000000000E+00  0.00000000000E+00  0.85456391263E+01  0.85456404023E+01  0.46700000000E-02 0.  1.
          1   -1    0    0  501    0  0.00000000000E+00 -0.00000000000E+00 -0.29646064984E+03  0.29646064988E+03  0.46700000000E-02 0. -1.
         23    2    1    2    0    0  0.00000000000E+00  0.00000000000E+00 -0.28791501071E+03  0.30500629028E+03  0.10066669616E+03 0.  0.
        -13    1    3    3    0    0  0.45820374570E+02 -0.12742909412E+02 -0.94029419346E+02  0.10537282069E+03  0.10570000000E+00 0.  1.
         13    1    3    3    0    0 -0.45820374570E+02  0.12742909412E+02 -0.19388559137E+03  0.19963346958E+03  0.10570000000E+00 0. -1.
<mgrwt>
<rscale>  0 0.10066670E+03</rscale>
<asrwt>0</asrwt>
<pdfrwt beam="2">  1        1 0.45609323E-01 0.10066670E+03</pdfrwt>
<pdfrwt beam="1">  1       -1 0.13147140E-02 0.10066670E+03</pdfrwt>
<totfact> 0.98040491E+04</totfact>
</mgrwt>
</event>
<event>
 5    1  0.2734570E+000  0.9349256E+02  0.7818608E-02  0.1294608E+00
          1   -1    0    0  501    0  0.00000000000E+00  0.00000000000E+00  0.63298803391E+02  0.63298803564E+02  0.46700000000E-02 0. -1.
         -1   -1    0    0    0  501 -0.00000000000E+00 -0.00000000000E+00 -0.34522208848E+02  0.34522209164E+02  0.46700000000E-02 0.  1.
         23    2    1    2    0    0  0.00000000000E+00  0.00000000000E+00  0.28776594544E+02  0.97821012727E+02  0.93492556589E+02 0.  0.
        -13    1    3    3    0    0  0.14245225032E+02  0.92765543779E+01 -0.31173386191E+02  0.35507352428E+02  0.10570000000E+00 0.  1.
         13    1    3    3    0    0 -0.14245225032E+02 -0.92765543779E+01  0.59949980735E+02  0.62313660299E+02  0.10570000000E+00 0. -1.
<mgrwt>
<rscale>  0 0.93492557E+02</rscale>
<asrwt>0</asrwt>
<pdfrwt beam="1">  1        1 0.97382776E-02 0.93492557E+02</pdfrwt>
<pdfrwt beam="2">  1       -1 0.53111091E-02 0.93492557E+02</pdfrwt>
<totfact> 0.90623285E+04</totfact>
</mgrwt>
</event>
<event>
 5    1  0.2734570E+000  0.8813729E+02  0.7818608E-02  0.1307426E+00
         -1   -1    0    0    0  501 -0.00000000000E+00  0.00000000000E+00  0.19449813647E+03  0.19449813652E+03  0.46700000000E-02 0.  1.
          1   -1    0    0  501    0  0.00000000000E+00 -0.00000000000E+00 -0.99849057799E+01  0.99849068720E+01  0.46700000000E-02 0. -1.
         23    2    1    2    0    0  0.00000000000E+00  0.00000000000E+00  0.18451323069E+03  0.20448304339E+03  0.88137294816E+02 0.  0.
        -13    1    3    3    0    0 -0.34851779643E+02 -0.60953229029E+01  0.31303476588E+02  0.47241066082E+02  0.10570000000E+00 0. -1.
         13    1    3    3    0    0  0.34851779643E+02  0.60953229029E+01  0.15320975410E+03  0.15724197731E+03  0.10570000000E+00 0.  1.
<mgrwt>
<rscale>  0 0.88137295E+02</rscale>
<asrwt>0</asrwt>
<pdfrwt beam="2">  1        1 0.15361397E-02 0.88137295E+02</pdfrwt>
<pdfrwt beam="1">  1       -1 0.29922785E-01 0.88137295E+02</pdfrwt>
<totfact> 0.76424175E+04</totfact>
</mgrwt>
</event>
<event>
 5    1  0.2734570E+000  0.8804009E+02  0.7818608E-02  0.1307669E+00
          1   -1    0    0  501    0  0.00000000000E+00  0.00000000000E+00  0.19944777239E+03  0.19944777244E+03  0.46700000000E-02 0. -1.
         -1   -1    0    0    0  501 -0.00000000000E+00 -0.00000000000E+00 -0.97156482890E+01  0.97156494114E+01  0.46700000000E-02 0.  1.
         23    2    1    2    0    0  0.00000000000E+00  0.00000000000E+00  0.18973212410E+03  0.20916342185E+03  0.88040093858E+02 0.  0.
        -13    1    3    3    0    0 -0.37341970132E+02 -0.21197185904E+01  0.39717509934E+02  0.54556463486E+02  0.10570000000E+00 0.  1.
         13    1    3    3    0    0  0.37341970132E+02  0.21197185904E+01  0.15001461416E+03  0.15460695837E+03  0.10570000000E+00 0. -1.
<mgrwt>
<rscale>  0 0.88040094E+02</rscale>
<asrwt>0</asrwt>
<pdfrwt beam="1">  1        1 0.30684272E-01 0.88040094E+02</pdfrwt>
<pdfrwt beam="2">  1       -1 0.14947152E-02 0.88040094E+02</pdfrwt>
<totfact> 0.12996093E+05</totfact>
</mgrwt>
</event>
<event>
 5    1  0.2734570E+000  0.9101629E+02  0.7818608E-02  0.1300409E+00
          1   -1    0    0  501    0  0.00000000000E+00  0.00000000000E+00  0.13021288240E+02  0.13021289078E+02  0.46700000000E-02 0. -1.
         -1   -1    0    0    0  501 -0.00000000000E+00 -0.00000000000E+00 -0.15904657186E+03  0.15904657193E+03  0.46700000000E-02 0.  1.
         23    2    1    2    0    0  0.00000000000E+00  0.00000000000E+00 -0.14602528362E+03  0.17206786101E+03  0.91016291593E+02 0.  0.
        -13    1    3    3    0    0 -0.99538383474E+00  0.24721717629E+02 -0.80513025432E+00  0.24755070566E+02  0.10570000000E+00 0. -1.
         13    1    3    3    0    0  0.99538383474E+00 -0.24721717629E+02 -0.14522015337E+03  0.14731279045E+03  0.10570000000E+00 0.  1.
<mgrwt>
<rscale>  0 0.91016292E+02</rscale>
<asrwt>0</asrwt>
<pdfrwt beam="1">  1        1 0.20032753E-02 0.91016292E+02</pdfrwt>
<pdfrwt beam="2">  1       -1 0.24468702E-01 0.91016292E+02</pdfrwt>
<totfact> 0.74089304E+04</totfact>
</mgrwt>
</event>
<event>
 5    1  0.2734570E+000  0.8983941E+02  0.7818608E-02  0.1303241E+00
          1   -1    0    0  501    0  0.00000000000E+00  0.00000000000E+00  0.12034433217E+02  0.12034434123E+02  0.46700000000E-02 0.  1.
         -1   -1    0    0    0  501 -0.00000000000E+00 -0.00000000000E+00 -0.16766721082E+03  0.16766721089E+03  0.46700000000E-02 0. -1.
         23    2    1    2    0    0  0.00000000000E+00  0.00000000000E+00 -0.15563277761E+03  0.17970164501E+03  0.89839410919E+02 0.  0.
        -13    1    3    3    0    0 -0.38323251882E+02  0.50994422870E+01 -0.32068133463E+02  0.50229994055E+02  0.10570000000E+00 0.  1.
         13    1    3    3    0    0  0.38323251882E+02 -0.50994422870E+01 -0.12356464414E+03  0.12947165096E+03  0.10570000000E+00 0. -1.
<mgrwt>
<rscale>  0 0.89839411E+02</rscale>
<asrwt>0</asrwt>
<pdfrwt beam="1">  1        1 0.18514515E-02 0.89839411E+02</pdfrwt>
<pdfrwt beam="2">  1       -1 0.25794954E-01 0.89839411E+02</pdfrwt>
<totfact> 0.75640086E+04</totfact>
</mgrwt>
</event>
<event>
 5    1  0.2734570E+000  0.9503004E+02  0.7818608E-02  0.1291108E+00
          1   -1    0    0  501    0  0.00000000000E+00  0.00000000000E+00  0.15865400369E+03  0.15865400376E+03  0.46700000000E-02 0. -1.
         -1   -1    0    0    0  501 -0.00000000000E+00 -0.00000000000E+00 -0.14230193365E+02  0.14230194132E+02  0.46700000000E-02 0.  1.
         23    2    1    2    0    0  0.00000000000E+00  0.00000000000E+00  0.14442381032E+03  0.17288419789E+03  0.95030042046E+02 0.  0.
        -13    1    3    3    0    0 -0.27760099503E+02  0.79935653214E+01  0.35811019487E+01  0.29109374343E+02  0.10570000000E+00 0.  1.
         13    1    3    3    0    0  0.27760099503E+02 -0.79935653214E+01  0.14084270837E+03  0.14377482354E+03  0.10570000000E+00 0. -1.
<mgrwt>
<rscale>  0 0.95030042E+02</rscale>
<asrwt>0</asrwt>
<pdfrwt beam="1">  1        1 0.24408307E-01 0.95030042E+02</pdfrwt>
<pdfrwt beam="2">  1       -1 0.21892607E-02 0.95030042E+02</pdfrwt>
<totfact> 0.10130883E+05</totfact>
</mgrwt>
</event>
<event>
 5    1  0.2734570E+000  0.9307911E+02  0.7818608E-02  0.1295562E+00
         -1   -1    0    0    0  501 -0.00000000000E+00  0.00000000000E+00  0.59494912195E+02  0.59494912378E+02  0.46700000000E-02 0.  1.
          1   -1    0    0  501    0  0.00000000000E+00 -0.00000000000E+00 -0.36405298336E+02  0.36405298636E+02  0.46700000000E-02 0. -1.
         23    2    1    2    0    0  0.00000000000E+00  0.00000000000E+00  0.23089613858E+02  0.95900211014E+02  0.93079107239E+02 0.  0.
        -13    1    3    3    0    0  0.22664103287E+02 -0.26565469282E+02 -0.20153441609E+02  0.40318210738E+02  0.10570000000E+00 0. -1.
         13    1    3    3    0    0 -0.22664103287E+02  0.26565469282E+02  0.43243055467E+02  0.55582000275E+02  0.10570000000E+00 0.  1.
<mgrwt>
<rscale>  0 0.93079107E+02</rscale>
<asrwt>0</asrwt>
<pdfrwt beam="2">  1        1 0.56008151E-02 0.93079107E+02</pdfrwt>
<pdfrwt beam="1">  1       -1 0.91530635E-02 0.93079107E+02</pdfrwt>
<totfact> 0.84264879E+04</totfact>
</mgrwt>
</event>
<event>
 5    1  0.2734570E+000  0.9078305E+02  0.7818608E-02  0.1300966E+00
         -1   -1    0    0    0  501 -0.00000000000E+00  0.00000000000E+00  0.30758052494E+02  0.30758052848E+02  0.46700000000E-02 0.  1.
          1   -1    0    0  501    0  0.00000000000E+00 -0.00000000000E+00 -0.66987026104E+02  0.66987026267E+02  0.46700000000E-02 0. -1.
         23    2    1    2    0    0  0.00000000000E+00  0.00000000000E+00 -0.36228973610E+02  0.97745079115E+02  0.90783048871E+02 0.  0.
        -13    1    3    3    0    0  0.22244765124E+02  0.28246546516E+02 -0.47946386974E+02  0.59929660118E+02  0.10570000000E+00 0. -1.
         13    1    3    3    0    0 -0.22244765124E+02 -0.28246546516E+02  0.11717413364E+02  0.37815418997E+02  0.10570000000E+00 0.  1.
<mgrwt>
<rscale>  0 0.90783049E+02</rscale>
<asrwt>0</asrwt>
<pdfrwt beam="2">  1        1 0.10305696E-01 0.90783049E+02</pdfrwt>
<pdfrwt beam="1">  1       -1 0.47320081E-02 0.90783049E+02</pdfrwt>
<totfact> 0.99179480E+04</totfact>
</mgrwt>
</event>
<event>
 5    1  0.2734570E+000  0.9003988E+02  0.7818608E-02  0.1302755E+00
          1   -1    0    0  501    0  0.00000000000E+00  0.00000000000E+00  0.12674472415E+03  0.12674472424E+03  0.46700000000E-02 0. -1.
         -1   -1    0    0    0  501 -0.00000000000E+00 -0.00000000000E+00 -0.15991159364E+02  0.15991160046E+02  0.46700000000E-02 0.  1.
         23    2    1    2    0    0  0.00000000000E+00  0.00000000000E+00  0.11075356479E+03  0.14273588428E+03  0.90039883104E+02 0.  0.
        -13    1    3    3    0    0  0.13363077749E+02 -0.41627921789E+02  0.38352606807E+02  0.58158312740E+02  0.10570000000E+00 0.  1.
         13    1    3    3    0    0 -0.13363077749E+02  0.41627921789E+02  0.72400957981E+02  0.84577571545E+02  0.10570000000E+00 0. -1.
<mgrwt>
<rscale>  0 0.90039883E+02</rscale>
<asrwt>0</asrwt>
<pdfrwt beam="1">  1        1 0.19499188E-01 0.90039883E+02</pdfrwt>
<pdfrwt beam="2">  1       -1 0.24601784E-02 0.90039883E+02</pdfrwt>
<totfact> 0.11253184E+05</totfact>
</mgrwt>
</event>
<event>
 5    1  0.2734570E+000  0.9200242E+02  0.7818608E-02  0.1298074E+00
         -1   -1    0    0    0  501 -0.00000000000E+00  0.00000000000E+00  0.88870710782E+01  0.88870723052E+01  0.46700000000E-02 0.  1.
          1   -1    0    0  501    0  0.00000000000E+00 -0.00000000000E+00 -0.23811119144E+03  0.23811119149E+03  0.46700000000E-02 0. -1.
         23    2    1    2    0    0  0.00000000000E+00  0.00000000000E+00 -0.22922412036E+03  0.24699826379E+03  0.92002418230E+02 0.  0.
        -13    1    3    3    0    0  0.23145680507E+02 -0.37869870175E+02 -0.82144975067E+02  0.93368397729E+02  0.10570000000E+00 0.  1.
         13    1    3    3    0    0 -0.23145680507E+02  0.37869870175E+02 -0.14707914529E+03  0.15362986606E+03  0.10570000000E+00 0. -1.
<mgrwt>
<rscale>  0 0.92002418E+02</rscale>
<asrwt>0</asrwt>
<pdfrwt beam="2">  1        1 0.36632486E-01 0.92002418E+02</pdfrwt>
<pdfrwt beam="1">  1       -1 0.13672420E-02 0.92002418E+02</pdfrwt>
<totfact> 0.11958050E+05</totfact>
</mgrwt>
</event>
<event>
 5    1  0.2734570E+000  0.9081808E+02  0.7818608E-02  0.1300883E+00
          1   -1    0    0  501    0  0.00000000000E+00  0.00000000000E+00  0.18856769690E+03  0.18856769696E+03  0.46700000000E-02 0. -1.
         -1   -1    0    0    0  501 -0.00000000000E+00 -0.00000000000E+00 -0.10934963735E+02  0.10934964732E+02  0.46700000000E-02 0.  1.
         23    2    1    2    0    0  0.00000000000E+00  0.00000000000E+00  0.17763273317E+03  0.19950266169E+03  0.90818082614E+02 0.  0.
        -13    1    3    3    0    0 -0.29571021197E+02  0.44324068440E+01  0.13744853964E+02  0.32909325549E+02  0.10570000000E+00 0.  1.
         13    1    3    3    0    0  0.29571021197E+02 -0.44324068440E+01  0.16388787920E+03  0.16659333614E+03  0.10570000000E+00 0. -1.
<mgrwt>
<rscale>  0 0.90818083E+02</rscale>
<asrwt>0</asrwt>
<pdfrwt beam="1">  1        1 0.29010416E-01 0.90818083E+02</pdfrwt>
<pdfrwt beam="2">  1       -1 0.16823021E-02 0.90818083E+02</pdfrwt>
<totfact> 0.11831167E+05</totfact>
</mgrwt>
</event>
<event>
 5    1  0.2734570E+000  0.9098717E+02  0.7818608E-02  0.1300479E+00
          1   -1    0    0  501    0  0.00000000000E+00  0.00000000000E+00  0.35089381767E+02  0.35089382078E+02  0.46700000000E-02 0. -1.
         -1   -1    0    0    0  501 -0.00000000000E+00 -0.00000000000E+00 -0.58982692492E+02  0.58982692676E+02  0.46700000000E-02 0.  1.
         23    2    1    2    0    0  0.00000000000E+00  0.00000000000E+00 -0.23893310725E+02  0.94072074754E+02  0.90987169157E+02 0.  0.
        -13    1    3    3    0    0 -0.41452944201E+02  0.18598701421E+02 -0.14348518413E+02  0.47646085155E+02  0.10570000000E+00 0.  1.
         13    1    3    3    0    0  0.41452944201E+02 -0.18598701421E+02 -0.95447923120E+01  0.46425989599E+02  0.10570000000E+00 0. -1.
<mgrwt>
<rscale>  0 0.90987169E+02</rscale>
<asrwt>0</asrwt>
<pdfrwt beam="1">  1        1 0.53983665E-02 0.90987169E+02</pdfrwt>
<pdfrwt beam="2">  1       -1 0.90742604E-02 0.90987169E+02</pdfrwt>
<totfact> 0.89387336E+04</totfact>
</mgrwt>
</event>
<event>
 5    1  0.2734570E+000  0.8999720E+02  0.7818608E-02  0.1302858E+00
         -1   -1    0    0    0  501 -0.00000000000E+00  0.00000000000E+00  0.14464567099E+03  0.14464567107E+03  0.46700000000E-02 0.  1.
          1   -1    0    0  501    0  0.00000000000E+00 -0.00000000000E+00 -0.13998857419E+02  0.13998858198E+02  0.46700000000E-02 0. -1.
         23    2    1    2    0    0  0.00000000000E+00  0.00000000000E+00  0.13064681357E+03  0.15864452926E+03  0.89997204228E+02 0.  0.
        -13    1    3    3    0    0  0.41070737536E+02  0.15888584519E+02  0.81633610885E+02  0.92754030632E+02  0.10570000000E+00 0. -1.
         13    1    3    3    0    0 -0.41070737536E+02 -0.15888584519E+02  0.49013202686E+02  0.65890498631E+02  0.10570000000E+00 0.  1.
<mgrwt>
<rscale>  0 0.89997204E+02</rscale>
<asrwt>0</asrwt>
<pdfrwt beam="2">  1        1 0.21536703E-02 0.89997204E+02</pdfrwt>
<pdfrwt beam="1">  1       -1 0.22253182E-01 0.89997204E+02</pdfrwt>
<totfact> 0.78008828E+04</totfact>
</mgrwt>
</event>
<event>
 5    1  0.2734570E+000  0.8821564E+02  0.7818608E-02  0.1307231E+00
         -1   -1    0    0    0  501 -0.00000000000E+00  0.00000000000E+00  0.21658505720E+02  0.21658506224E+02  0.46700000000E-02 0. -1.
          1   -1    0    0  501    0  0.00000000000E+00 -0.00000000000E+00 -0.89826121813E+02  0.89826121934E+02  0.46700000000E-02 0.  1.
         23    2    1    2    0    0  0.00000000000E+00  0.00000000000E+00 -0.68167616093E+02  0.11148462816E+03  0.88215635982E+02 0.  0.
        -13    1    3    3    0    0 -0.42592872514E+02 -0.67197361681E+01 -0.45815878474E+02  0.62915924343E+02  0.10570000000E+00 0.  1.
         13    1    3    3    0    0  0.42592872514E+02  0.67197361681E+01 -0.22351737619E+02  0.48568703815E+02  0.10570000000E+00 0. -1.
<mgrwt>
<rscale>  0 0.88215636E+02</rscale>
<asrwt>0</asrwt>
<pdfrwt beam="2">  1        1 0.13819403E-01 0.88215636E+02</pdfrwt>
<pdfrwt beam="1">  1       -1 0.33320779E-02 0.88215636E+02</pdfrwt>
<totfact> 0.11229543E+05</totfact>
</mgrwt>
</event>
<event>
 5    1  0.2734570E+000  0.9126274E+02  0.7818608E-02  0.1299822E+00
         -1   -1    0    0    0  501 -0.00000000000E+00  0.00000000000E+00  0.31742431388E+02  0.31742431732E+02  0.46700000000E-02 0.  1.
          1   -1    0    0  501    0  0.00000000000E+00 -0.00000000000E+00 -0.65597434725E+02  0.65597434891E+02  0.46700000000E-02 0. -1.
         23    2    1    2    0    0  0.00000000000E+00  0.00000000000E+00 -0.33855003337E+02  0.97339866623E+02  0.91262743676E+02 0.  0.
        -13    1    3    3    0    0 -0.16010421626E+02 -0.13117558186E+01 -0.62481687334E+02  0.64513771620E+02  0.10570000000E+00 0. -1.
         13    1    3    3    0    0  0.16010421626E+02  0.13117558186E+01  0.28626683997E+02  0.32826095003E+02  0.10570000000E+00 0.  1.
<mgrwt>
<rscale>  0 0.91262744E+02</rscale>
<asrwt>0</asrwt>
<pdfrwt beam="2">  1        1 0.10091913E-01 0.91262744E+02</pdfrwt>
<pdfrwt beam="1">  1       -1 0.48834511E-02 0.91262744E+02</pdfrwt>
<totfact> 0.97433127E+04</totfact>
</mgrwt>
</event>
<event>
 5    1  0.2734570E+000  0.8232881E+02  0.7818608E-02  0.1322570E+00
          1   -1    0    0  501    0  0.00000000000E+00  0.00000000000E+00  0.31969497562E+03  0.31969497565E+03  0.46700000000E-02 0. -1.
         -1   -1    0    0    0  501 -0.00000000000E+00 -0.00000000000E+00 -0.53003894763E+01  0.53003915336E+01  0.46700000000E-02 0.  1.
         23    2    1    2    0    0  0.00000000000E+00  0.00000000000E+00  0.31439458614E+03  0.32499536718E+03  0.82328809641E+02 0.  0.
        -13    1    3    3    0    0 -0.35059243406E+02 -0.21318010381E+02  0.17022350310E+03  0.17509900141E+03  0.10570000000E+00 0.  1.
         13    1    3    3    0    0  0.35059243406E+02  0.21318010381E+02  0.14417108304E+03  0.14989636578E+03  0.10570000000E+00 0. -1.
<mgrwt>
<rscale>  0 0.82328810E+02</rscale>
<asrwt>0</asrwt>
<pdfrwt beam="1">  1        1 0.49183833E-01 0.82328810E+02</pdfrwt>
<pdfrwt beam="2">  1       -1 0.81544486E-03 0.82328810E+02</pdfrwt>
<totfact> 0.16990039E+05</totfact>
</mgrwt>
</event>
<event>
 5    1  0.2734570E+000  0.9279823E+02  0.7818608E-02  0.1296213E+00
         -1   -1    0    0    0  501 -0.00000000000E+00  0.00000000000E+00  0.96471779774E+01  0.96471791077E+01  0.46700000000E-02 0.  1.
          1   -1    0    0  501    0  0.00000000000E+00 -0.00000000000E+00 -0.22316141999E+03  0.22316142004E+03  0.46700000000E-02 0. -1.
         23    2    1    2    0    0  0.00000000000E+00  0.00000000000E+00 -0.21351424201E+03  0.23280859914E+03  0.92798234327E+02 0.  0.
        -13    1    3    3    0    0  0.25630153887E+02 -0.29479434714E+02 -0.43941578715E+02  0.58794688296E+02  0.10570000000E+00 0.  1.
         13    1    3    3    0    0 -0.25630153887E+02  0.29479434714E+02 -0.16957266329E+03  0.17401391085E+03  0.10570000000E+00 0. -1.
<mgrwt>
<rscale>  0 0.92798234E+02</rscale>
<asrwt>0</asrwt>
<pdfrwt beam="2">  1        1 0.34332522E-01 0.92798234E+02</pdfrwt>
<pdfrwt beam="1">  1       -1 0.14841815E-02 0.92798234E+02</pdfrwt>
<totfact> 0.11537610E+05</totfact>
</mgrwt>
</event>
<event>
 5    1  0.2734570E+000  0.8994037E+02  0.7818608E-02  0.1302996E+00
         -1   -1    0    0    0  501 -0.00000000000E+00  0.00000000000E+00  0.20078062028E+02  0.20078062571E+02  0.46700000000E-02 0.  1.
          1   -1    0    0  501    0  0.00000000000E+00 -0.00000000000E+00 -0.10072273859E+03  0.10072273870E+03  0.46700000000E-02 0. -1.
         23    2    1    2    0    0  0.00000000000E+00  0.00000000000E+00 -0.80644676561E+02  0.12080080127E+03  0.89940367630E+02 0.  0.
        -13    1    3    3    0    0 -0.10377954980E+02  0.16701777467E+02 -0.94642493383E+02  0.96663664561E+02  0.10570000000E+00 0. -1.
         13    1    3    3    0    0  0.10377954980E+02 -0.16701777467E+02  0.13997816823E+02  0.24137136707E+02  0.10570000000E+00 0.  1.
<mgrwt>
<rscale>  0 0.89940368E+02</rscale>
<asrwt>0</asrwt>
<pdfrwt beam="2">  1        1 0.15495806E-01 0.89940368E+02</pdfrwt>
<pdfrwt beam="1">  1       -1 0.30889327E-02 0.89940368E+02</pdfrwt>
<totfact> 0.10853552E+05</totfact>
</mgrwt>
</event>
<event>
 5    1  0.2734570E+000  0.9201098E+02  0.7818608E-02  0.1298054E+00
         -1   -1    0    0    0  501 -0.00000000000E+00  0.00000000000E+00  0.23162383348E+02  0.23162383819E+02  0.46700000000E-02 0.  1.
          1   -1    0    0  501    0  0.00000000000E+00 -0.00000000000E+00 -0.91376821136E+02  0.91376821255E+02  0.46700000000E-02 0. -1.
         23    2    1    2    0    0  0.00000000000E+00  0.00000000000E+00 -0.68214437788E+02  0.11453920507E+03  0.92010977477E+02 0.  0.
        -13    1    3    3    0    0 -0.15628986956E+02 -0.26055735029E+02  0.88953401805E+01  0.31659197883E+02  0.10570000000E+00 0.  1.
         13    1    3    3    0    0  0.15628986956E+02  0.26055735029E+02 -0.77109777969E+02  0.82880007191E+02  0.10570000000E+00 0. -1.
<mgrwt>
<rscale>  0 0.92010977E+02</rscale>
<asrwt>0</asrwt>
<pdfrwt beam="2">  1        1 0.14057972E-01 0.92010977E+02</pdfrwt>
<pdfrwt beam="1">  1       -1 0.35634437E-02 0.92010977E+02</pdfrwt>
<totfact> 0.10037988E+05</totfact>
</mgrwt>
</event>
<event>
 5    1  0.2734570E+000  0.8966959E+02  0.7818608E-02  0.1303654E+00
          1   -1    0    0  501    0  0.00000000000E+00  0.00000000000E+00  0.25629533644E+02  0.25629534070E+02  0.46700000000E-02 0. -1.
         -1   -1    0    0    0  501 -0.00000000000E+00 -0.00000000000E+00 -0.78431352540E+02  0.78431352679E+02  0.46700000000E-02 0.  1.
         23    2    1    2    0    0  0.00000000000E+00  0.00000000000E+00 -0.52801818896E+02  0.10406088675E+03  0.89669593912E+02 0.  0.
        -13    1    3    3    0    0 -0.53956580423E+01 -0.21202074441E+02 -0.71816166680E+02  0.75074723146E+02  0.10570000000E+00 0.  1.
         13    1    3    3    0    0  0.53956580423E+01  0.21202074441E+02  0.19014347784E+02  0.28986163603E+02  0.10570000000E+00 0. -1.
<mgrwt>
<rscale>  0 0.89669594E+02</rscale>
<asrwt>0</asrwt>
<pdfrwt beam="1">  1        1 0.39430053E-02 0.89669594E+02</pdfrwt>
<pdfrwt beam="2">  1       -1 0.12066362E-01 0.89669594E+02</pdfrwt>
<totfact> 0.88629921E+04</totfact>
</mgrwt>
</event>
<event>
 4    1  0.2734570E+000  0.1536464E+03  0.7818608E-02  0.1196063E+00
         -1   -1    0    0    0  501 -0.00000000000E+00  0.00000000000E+00  0.14723287924E+02  0.14723288665E+02  0.46700000000E-02 0.  1.
          1   -1    0    0  501    0  0.00000000000E+00 -0.00000000000E+00 -0.40084843755E+03  0.40084843758E+03  0.46700000000E-02 0. -1.
        -13    1    1    2    0    0 -0.52465779025E+02  0.52410247737E+02 -0.13881246548E+03  0.15737980742E+03  0.10570000000E+00 0.  1.
         13    1    1    2    0    0  0.52465779025E+02 -0.52410247737E+02 -0.24731268414E+03  0.25819191883E+03  0.10570000000E+00 0. -1.
<mgrwt>
<rscale>  0 0.15364644E+03</rscale>
<asrwt>0</asrwt>
<pdfrwt beam="2">  1        1 0.61668982E-01 0.15364644E+03</pdfrwt>
<pdfrwt beam="1">  1       -1 0.22651216E-02 0.15364644E+03</pdfrwt>
<totfact> 0.32506853E+04</totfact>
</mgrwt>
</event>
<event>
 5    1  0.2734570E+000  0.9158518E+02  0.7818608E-02  0.1299058E+00
          1   -1    0    0  501    0  0.00000000000E+00  0.00000000000E+00  0.35280090465E+02  0.35280090774E+02  0.46700000000E-02 0. -1.
         -1   -1    0    0    0  501 -0.00000000000E+00 -0.00000000000E+00 -0.59437522367E+02  0.59437522550E+02  0.46700000000E-02 0.  1.
         23    2    1    2    0    0  0.00000000000E+00  0.00000000000E+00 -0.24157431902E+02  0.94717613324E+02  0.91585177609E+02 0.  0.
        -13    1    3    3    0    0 -0.91854124961E+01  0.51736904026E+01 -0.58165300693E+02  0.59113046380E+02  0.10570000000E+00 0.  1.
         13    1    3    3    0    0  0.91854124961E+01 -0.51736904026E+01  0.34007868791E+02  0.35604566944E+02  0.10570000000E+00 0. -1.
<mgrwt>
<rscale>  0 0.91585178E+02</rscale>
<asrwt>0</asrwt>
<pdfrwt beam="1">  1        1 0.54277063E-02 0.91585178E+02</pdfrwt>
<pdfrwt beam="2">  1       -1 0.91442342E-02 0.91585178E+02</pdfrwt>
<totfact> 0.87809383E+04</totfact>
</mgrwt>
</event>
<event>
 5    1  0.2734570E+000  0.9036018E+02  0.7818608E-02  0.1301982E+00
         -1   -1    0    0    0  501 -0.00000000000E+00  0.00000000000E+00  0.28136507611E+03  0.28136507615E+03  0.46700000000E-02 0.  1.
          1   -1    0    0  501    0  0.00000000000E+00 -0.00000000000E+00 -0.72547747934E+01  0.72547762964E+01  0.46700000000E-02 0. -1.
         23    2    1    2    0    0  0.00000000000E+00  0.00000000000E+00  0.27411030132E+03  0.28861985245E+03  0.90360178938E+02 0.  0.
        -13    1    3    3    0    0 -0.16064996395E+01 -0.38207146052E+02  0.21390390133E+03  0.21729532214E+03  0.10570000000E+00 0.  1.
         13    1    3    3    0    0  0.16064996395E+01  0.38207146052E+02  0.60206399994E+02  0.71324530305E+02  0.10570000000E+00 0. -1.
<mgrwt>
<rscale>  0 0.90360179E+02</rscale>
<asrwt>0</asrwt>
<pdfrwt beam="2">  1        1 0.11161193E-02 0.90360179E+02</pdfrwt>
<pdfrwt beam="1">  1       -1 0.43286937E-01 0.90360179E+02</pdfrwt>
<totfact> 0.63571565E+04</totfact>
</mgrwt>
</event>
<event>
 5    1  0.2734570E+000  0.9184226E+02  0.7818608E-02  0.1298451E+00
          1   -1    0    0  501    0  0.00000000000E+00  0.00000000000E+00  0.46067280672E+03  0.46067280674E+03  0.46700000000E-02 0. -1.
         -1   -1    0    0    0  501 -0.00000000000E+00 -0.00000000000E+00 -0.45775427741E+01  0.45775451563E+01  0.46700000000E-02 0.  1.
         23    2    1    2    0    0  0.00000000000E+00  0.00000000000E+00  0.45609526394E+03  0.46525035190E+03  0.91842256882E+02 0.  0.
        -13    1    3    3    0    0 -0.42324819201E+02  0.17801163263E+02  0.22458534186E+03  0.22923101598E+03  0.10570000000E+00 0.  1.
         13    1    3    3    0    0  0.42324819201E+02 -0.17801163263E+02  0.23150992208E+03  0.23601933592E+03  0.10570000000E+00 0. -1.
<mgrwt>
<rscale>  0 0.91842257E+02</rscale>
<asrwt>0</asrwt>
<pdfrwt beam="1">  1        1 0.70872733E-01 0.91842257E+02</pdfrwt>
<pdfrwt beam="2">  1       -1 0.70423760E-03 0.91842257E+02</pdfrwt>
<totfact> 0.13517593E+05</totfact>
</mgrwt>
</event>
<event>
 5    1  0.2734570E+000  0.9547268E+02  0.7818608E-02  0.1290115E+00
          1   -1    0    0  501    0  0.00000000000E+00  0.00000000000E+00  0.25049359787E+03  0.25049359791E+03  0.46700000000E-02 0. -1.
         -1   -1    0    0    0  501 -0.00000000000E+00 -0.00000000000E+00 -0.90970703177E+01  0.90970715163E+01  0.46700000000E-02 0.  1.
         23    2    1    2    0    0  0.00000000000E+00  0.00000000000E+00  0.24139652755E+03  0.25959066943E+03  0.95472677456E+02 0.  0.
        -13    1    3    3    0    0 -0.28168158228E+02  0.37128793987E+02  0.92604958967E+02  0.10367102815E+03  0.10570000000E+00 0.  1.
         13    1    3    3    0    0  0.28168158228E+02 -0.37128793987E+02  0.14879156858E+03  0.15591964127E+03  0.10570000000E+00 0. -1.
<mgrwt>
<rscale>  0 0.95472677E+02</rscale>
<asrwt>0</asrwt>
<pdfrwt beam="1">  1        1 0.38537478E-01 0.95472677E+02</pdfrwt>
<pdfrwt beam="2">  1       -1 0.13995493E-02 0.95472677E+02</pdfrwt>
<totfact> 0.10935877E+05</totfact>
</mgrwt>
</event>
<event>
 5    1  0.2734570E+000  0.9079483E+02  0.7818608E-02  0.1300938E+00
         -1   -1    0    0    0  501 -0.00000000000E+00  0.00000000000E+00  0.23913919707E+03  0.23913919712E+03  0.46700000000E-02 0.  1.
          1   -1    0    0  501    0  0.00000000000E+00 -0.00000000000E+00 -0.86180978838E+01  0.86180991491E+01  0.46700000000E-02 0. -1.
         23    2    1    2    0    0  0.00000000000E+00  0.00000000000E+00  0.23052109919E+03  0.24775729627E+03  0.90794827399E+02 0.  0.
        -13    1    3    3    0    0 -0.16870560554E+02  0.42071149099E+02  0.12211869946E+03  0.13025968420E+03  0.10570000000E+00 0.  1.
         13    1    3    3    0    0  0.16870560554E+02 -0.42071149099E+02  0.10840239973E+03  0.11749761206E+03  0.10570000000E+00 0. -1.
<mgrwt>
<rscale>  0 0.90794827E+02</rscale>
<asrwt>0</asrwt>
<pdfrwt beam="2">  1        1 0.13258612E-02 0.90794827E+02</pdfrwt>
<pdfrwt beam="1">  1       -1 0.36790648E-01 0.90794827E+02</pdfrwt>
<totfact> 0.66454110E+04</totfact>
</mgrwt>
</event>
<event>
 5    1  0.2734570E+000  0.7890989E+02  0.7818608E-02  0.1332174E+00
          1   -1    0    0  501    0  0.00000000000E+00  0.00000000000E+00  0.36506864486E+02  0.36506864784E+02  0.46700000000E-02 0. -1.
         -1   -1    0    0    0  501 -0.00000000000E+00 -0.00000000000E+00 -0.42641091124E+02  0.42641091380E+02  0.46700000000E-02 0.  1.
         23    2    1    2    0    0  0.00000000000E+00  0.00000000000E+00 -0.61342266384E+01  0.79147956164E+02  0.78909886760E+02 0.  0.
        -13    1    3    3    0    0 -0.74586527109E+01 -0.18887178907E+02 -0.36997034868E+02  0.42203658477E+02  0.10570000000E+00 0.  1.
         13    1    3    3    0    0  0.74586527109E+01  0.18887178907E+02  0.30862808230E+02  0.36944297688E+02  0.10570000000E+00 0. -1.
<mgrwt>
<rscale>  0 0.78909887E+02</rscale>
<asrwt>0</asrwt>
<pdfrwt beam="1">  1        1 0.56164407E-02 0.78909887E+02</pdfrwt>
<pdfrwt beam="2">  1       -1 0.65601679E-02 0.78909887E+02</pdfrwt>
<totfact> 0.13401758E+05</totfact>
</mgrwt>
</event>
<event>
 5    1  0.2734570E+000  0.8904095E+02  0.7818608E-02  0.1305191E+00
         -1   -1    0    0    0  501 -0.00000000000E+00  0.00000000000E+00  0.51323203304E+02  0.51323203516E+02  0.46700000000E-02 0.  1.
          1   -1    0    0  501    0  0.00000000000E+00 -0.00000000000E+00 -0.38619430116E+02  0.38619430398E+02  0.46700000000E-02 0. -1.
         23    2    1    2    0    0  0.00000000000E+00  0.00000000000E+00  0.12703773188E+02  0.89942633914E+02  0.89040954298E+02 0.  0.
        -13    1    3    3    0    0 -0.19535849549E+02  0.18629879477E+01 -0.34014540305E+02  0.39269839144E+02  0.10570000000E+00 0. -1.
         13    1    3    3    0    0  0.19535849549E+02 -0.18629879477E+01  0.46718313493E+02  0.50672794770E+02  0.10570000000E+00 0.  1.
<mgrwt>
<rscale>  0 0.89040954E+02</rscale>
<asrwt>0</asrwt>
<pdfrwt beam="2">  1        1 0.59414509E-02 0.89040954E+02</pdfrwt>
<pdfrwt beam="1">  1       -1 0.78958774E-02 0.89040954E+02</pdfrwt>
<totfact> 0.96417914E+04</totfact>
</mgrwt>
</event>
<event>
 5    1  0.2734570E+000  0.9135300E+02  0.7818608E-02  0.1299608E+00
          1   -1    0    0  501    0  0.00000000000E+00  0.00000000000E+00  0.46208954786E+03  0.46208954788E+03  0.46700000000E-02 0. -1.
         -1   -1    0    0    0  501 -0.00000000000E+00 -0.00000000000E+00 -0.45150172865E+01  0.45150197017E+01  0.46700000000E-02 0.  1.
         23    2    1    2    0    0  0.00000000000E+00  0.00000000000E+00  0.45757453057E+03  0.46660456758E+03  0.91353004668E+02 0.  0.
        -13    1    3    3    0    0 -0.44908461325E+02 -0.12684801559E+01  0.18668265267E+03  0.19201250720E+03  0.10570000000E+00 0. -1.
         13    1    3    3    0    0  0.44908461325E+02  0.12684801559E+01  0.27089187790E+03  0.27459206038E+03  0.10570000000E+00 0.  1.
<mgrwt>
<rscale>  0 0.91353005E+02</rscale>
<asrwt>0</asrwt>
<pdfrwt beam="1">  1        1 0.71090640E-01 0.91353005E+02</pdfrwt>
<pdfrwt beam="2">  1       -1 0.69461882E-03 0.91353005E+02</pdfrwt>
<totfact> 0.13716382E+05</totfact>
</mgrwt>
</event>
<event>
 5    1  0.2734570E+000  0.9105568E+02  0.7818608E-02  0.1300315E+00
          1   -1    0    0  501    0  0.00000000000E+00  0.00000000000E+00  0.71779878278E+01  0.71779893470E+01  0.46700000000E-02 0. -1.
         -1   -1    0    0    0  501 -0.00000000000E+00 -0.00000000000E+00 -0.28876950169E+03  0.28876950173E+03  0.46700000000E-02 0.  1.
         23    2    1    2    0    0  0.00000000000E+00  0.00000000000E+00 -0.28159151386E+03  0.29594749107E+03  0.91055679637E+02 0.  0.
        -13    1    3    3    0    0  0.57685417118E+01 -0.40878422108E+02 -0.20318329117E+03  0.20733495231E+03  0.10570000000E+00 0.  1.
         13    1    3    3    0    0 -0.57685417118E+01  0.40878422108E+02 -0.78408222694E+02  0.88612538763E+02  0.10570000000E+00 0. -1.
<mgrwt>
<rscale>  0 0.91055680E+02</rscale>
<asrwt>0</asrwt>
<pdfrwt beam="1">  1        1 0.11043062E-02 0.91055680E+02</pdfrwt>
<pdfrwt beam="2">  1       -1 0.44426068E-01 0.91055680E+02</pdfrwt>
<totfact> 0.61703298E+04</totfact>
</mgrwt>
</event>
<event>
 5    1  0.2734570E+000  0.9187673E+02  0.7818608E-02  0.1298370E+00
          1   -1    0    0  501    0  0.00000000000E+00  0.00000000000E+00  0.33997265428E+02  0.33997265749E+02  0.46700000000E-02 0. -1.
         -1   -1    0    0    0  501 -0.00000000000E+00 -0.00000000000E+00 -0.62073624357E+02  0.62073624532E+02  0.46700000000E-02 0.  1.
         23    2    1    2    0    0  0.00000000000E+00  0.00000000000E+00 -0.28076358929E+02  0.96070890281E+02  0.91876732793E+02 0.  0.
        -13    1    3    3    0    0 -0.37987002397E+02 -0.80745924885E+01  0.11619922773E+02  0.40536960576E+02  0.10570000000E+00 0. -1.
         13    1    3    3    0    0  0.37987002397E+02  0.80745924885E+01 -0.39696281702E+02  0.55533929705E+02  0.10570000000E+00 0.  1.
<mgrwt>
<rscale>  0 0.91876733E+02</rscale>
<asrwt>0</asrwt>
<pdfrwt beam="1">  1        1 0.52303486E-02 0.91876733E+02</pdfrwt>
<pdfrwt beam="2">  1       -1 0.95497884E-02 0.91876733E+02</pdfrwt>
<totfact> 0.86513100E+04</totfact>
</mgrwt>
</event>
<event>
 5    1  0.2734570E+000  0.8543574E+02  0.7818608E-02  0.1314297E+00
         -1   -1    0    0    0  501 -0.00000000000E+00  0.00000000000E+00  0.14996076764E+03  0.14996076771E+03  0.46700000000E-02 0.  1.
          1   -1    0    0  501    0  0.00000000000E+00 -0.00000000000E+00 -0.12168624139E+02  0.12168625035E+02  0.46700000000E-02 0. -1.
         23    2    1    2    0    0  0.00000000000E+00  0.00000000000E+00  0.13779214350E+03  0.16212939275E+03  0.85435737150E+02 0.  0.
        -13    1    3    3    0    0  0.32559222303E+02  0.26589896405E+02  0.54483774457E+02  0.68815829570E+02  0.10570000000E+00 0. -1.
         13    1    3    3    0    0 -0.32559222303E+02 -0.26589896405E+02  0.83308369043E+02  0.93313563178E+02  0.10570000000E+00 0.  1.
<mgrwt>
<rscale>  0 0.85435737E+02</rscale>
<asrwt>0</asrwt>
<pdfrwt beam="2">  1        1 0.18720962E-02 0.85435737E+02</pdfrwt>
<pdfrwt beam="1">  1       -1 0.23070887E-01 0.85435737E+02</pdfrwt>
<totfact> 0.88509985E+04</totfact>
</mgrwt>
</event>
<event>
 5    1  0.2734570E+000  0.9196377E+02  0.7818608E-02  0.1298165E+00
          1   -1    0    0  501    0  0.00000000000E+00  0.00000000000E+00  0.12725866539E+03  0.12725866547E+03  0.46700000000E-02 0. -1.
         -1   -1    0    0    0  501 -0.00000000000E+00 -0.00000000000E+00 -0.16614456317E+02  0.16614456974E+02  0.46700000000E-02 0.  1.
         23    2    1    2    0    0  0.00000000000E+00  0.00000000000E+00  0.11064420907E+03  0.14387312245E+03  0.91963766571E+02 0.  0.
        -13    1    3    3    0    0  0.26275009197E+02  0.98970077941E+01  0.11229049526E+03  0.11574754153E+03  0.10570000000E+00 0. -1.
         13    1    3    3    0    0 -0.26275009197E+02 -0.98970077941E+01 -0.16462861852E+01  0.28125580923E+02  0.10570000000E+00 0.  1.
<mgrwt>
<rscale>  0 0.91963767E+02</rscale>
<asrwt>0</asrwt>
<pdfrwt beam="1">  1        1 0.19578255E-01 0.91963767E+02</pdfrwt>
<pdfrwt beam="2">  1       -1 0.25560704E-02 0.91963767E+02</pdfrwt>
<totfact> 0.10634718E+05</totfact>
</mgrwt>
</event>
<event>
 5    1  0.2734570E+000  0.9224010E+02  0.7818608E-02  0.1297516E+00
          1   -1    0    0  501    0  0.00000000000E+00  0.00000000000E+00  0.16110181533E+03  0.16110181540E+03  0.46700000000E-02 0. -1.
         -1   -1    0    0    0  501 -0.00000000000E+00 -0.00000000000E+00 -0.13203197834E+02  0.13203198660E+02  0.46700000000E-02 0.  1.
         23    2    1    2    0    0  0.00000000000E+00  0.00000000000E+00  0.14789861750E+03  0.17430501406E+03  0.92240104449E+02 0.  0.
        -13    1    3    3    0    0  0.32721798501E+02  0.28483397590E+02  0.10352929447E+03  0.11225126289E+03  0.10570000000E+00 0. -1.
         13    1    3    3    0    0 -0.32721798501E+02 -0.28483397590E+02  0.44369323030E+02  0.62053751168E+02  0.10570000000E+00 0.  1.
<mgrwt>
<rscale>  0 0.92240104E+02</rscale>
<asrwt>0</asrwt>
<pdfrwt beam="1">  1        1 0.24784893E-01 0.92240104E+02</pdfrwt>
<pdfrwt beam="2">  1       -1 0.20312614E-02 0.92240104E+02</pdfrwt>
<totfact> 0.11012669E+05</totfact>
</mgrwt>
</event>
<event>
 5    1  0.2734570E+000  0.6801320E+02  0.7818608E-02  0.1366983E+00
          1   -1    0    0  501    0  0.00000000000E+00  0.00000000000E+00  0.22517651099E+02  0.22517651583E+02  0.46700000000E-02 0. -1.
         -1   -1    0    0    0  501 -0.00000000000E+00 -0.00000000000E+00 -0.51357443021E+02  0.51357443234E+02  0.46700000000E-02 0.  1.
         23    2    1    2    0    0  0.00000000000E+00  0.00000000000E+00 -0.28839791922E+02  0.73875094817E+02  0.68013204866E+02 0.  0.
        -13    1    3    3    0    0  0.12532964473E+02  0.30149446618E+02 -0.40940562636E+01  0.32906485668E+02  0.10570000000E+00 0. -1.
         13    1    3    3    0    0 -0.12532964473E+02 -0.30149446618E+02 -0.24745735659E+02  0.40968609149E+02  0.10570000000E+00 0.  1.
<mgrwt>
<rscale>  0 0.68013205E+02</rscale>
<asrwt>0</asrwt>
<pdfrwt beam="1">  1        1 0.34642541E-02 0.68013205E+02</pdfrwt>
<pdfrwt beam="2">  1       -1 0.79011451E-02 0.68013205E+02</pdfrwt>
<totfact> 0.18976739E+05</totfact>
</mgrwt>
</event>
<event>
 5    1  0.2734570E+000  0.9061248E+02  0.7818608E-02  0.1301375E+00
         -1   -1    0    0    0  501 -0.00000000000E+00  0.00000000000E+00  0.13887099272E+02  0.13887100057E+02  0.46700000000E-02 0. -1.
          1   -1    0    0  501    0  0.00000000000E+00 -0.00000000000E+00 -0.14781021652E+03  0.14781021659E+03  0.46700000000E-02 0.  1.
         23    2    1    2    0    0  0.00000000000E+00  0.00000000000E+00 -0.13392311724E+03  0.16169731665E+03  0.90612476395E+02 0.  0.
        -13    1    3    3    0    0 -0.95783330651E+01 -0.32051301807E+02 -0.12148690161E+03  0.12600836817E+03  0.10570000000E+00 0.  1.
         13    1    3    3    0    0  0.95783330651E+01  0.32051301807E+02 -0.12436215629E+02  0.35688948478E+02  0.10570000000E+00 0. -1.
<mgrwt>
<rscale>  0 0.90612476E+02</rscale>
<asrwt>0</asrwt>
<pdfrwt beam="2">  1        1 0.22740032E-01 0.90612476E+02</pdfrwt>
<pdfrwt beam="1">  1       -1 0.21364770E-02 0.90612476E+02</pdfrwt>
<totfact> 0.11371852E+05</totfact>
</mgrwt>
</event>
<event>
 5    1  0.2734570E+000  0.9129765E+02  0.7818608E-02  0.1299739E+00
          1   -1    0    0  501    0  0.00000000000E+00  0.00000000000E+00  0.28819128788E+03  0.28819128791E+03  0.46700000000E-02 0. -1.
         -1   -1    0    0    0  501 -0.00000000000E+00 -0.00000000000E+00 -0.72306659092E+01  0.72306674173E+01  0.46700000000E-02 0.  1.
         23    2    1    2    0    0  0.00000000000E+00  0.00000000000E+00  0.28096062197E+03  0.29542195533E+03  0.91297648358E+02 0.  0.
        -13    1    3    3    0    0  0.41044135800E+02  0.12288181025E+02  0.19145676588E+03  0.19619206113E+03  0.10570000000E+00 0. -1.
         13    1    3    3    0    0 -0.41044135800E+02 -0.12288181025E+02  0.89503856092E+02  0.99229894207E+02  0.10570000000E+00 0.  1.
<mgrwt>
<rscale>  0 0.91297648E+02</rscale>
<asrwt>0</asrwt>
<pdfrwt beam="1">  1        1 0.44337121E-01 0.91297648E+02</pdfrwt>
<pdfrwt beam="2">  1       -1 0.11124103E-02 0.91297648E+02</pdfrwt>
<totfact> 0.12669119E+05</totfact>
</mgrwt>
</event>
<event>
 5    1  0.2734570E+000  0.1217520E+03  0.7818608E-02  0.1240235E+00
          1   -1    0    0  501    0  0.00000000000E+00  0.00000000000E+00  0.83835564787E+02  0.83835564917E+02  0.46700000000E-02 0. -1.
         -1   -1    0    0    0  501 -0.00000000000E+00 -0.00000000000E+00 -0.44204207849E+02  0.44204208095E+02  0.46700000000E-02 0.  1.
         23    2    1    2    0    0  0.00000000000E+00  0.00000000000E+00  0.39631356939E+02  0.12803977301E+03  0.12175195695E+03 0.  0.
        -13    1    3    3    0    0 -0.49455248420E+02 -0.65461030532E+01 -0.16874515683E+02  0.52663398234E+02  0.10570000000E+00 0.  1.
         13    1    3    3    0    0  0.49455248420E+02  0.65461030532E+01  0.56505872622E+02  0.75376374779E+02  0.10570000000E+00 0. -1.
<mgrwt>
<rscale>  0 0.12175196E+03</rscale>
<asrwt>0</asrwt>
<pdfrwt beam="1">  1        1 0.12897779E-01 0.12175196E+03</pdfrwt>
<pdfrwt beam="2">  1       -1 0.68006474E-02 0.12175196E+03</pdfrwt>
<totfact> 0.45167123E+04</totfact>
</mgrwt>
</event>
<event>
 5    1  0.2734570E+000  0.9119499E+02  0.7818608E-02  0.1299983E+00
         -1   -1    0    0    0  501 -0.00000000000E+00  0.00000000000E+00  0.10758028484E+02  0.10758029498E+02  0.46700000000E-02 0.  1.
          1   -1    0    0  501    0  0.00000000000E+00 -0.00000000000E+00 -0.19326324834E+03  0.19326324839E+03  0.46700000000E-02 0. -1.
         23    2    1    2    0    0  0.00000000000E+00  0.00000000000E+00 -0.18250521985E+03  0.20402127789E+03  0.91194991961E+02 0.  0.
        -13    1    3    3    0    0  0.30356196650E+02 -0.50225546152E+01 -0.15968453746E+02  0.34665940308E+02  0.10570000000E+00 0.  1.
         13    1    3    3    0    0 -0.30356196650E+02  0.50225546152E+01 -0.16653676611E+03  0.16935533758E+03  0.10570000000E+00 0. -1.
<mgrwt>
<rscale>  0 0.91194992E+02</rscale>
<asrwt>0</asrwt>
<pdfrwt beam="2">  1        1 0.29732805E-01 0.91194992E+02</pdfrwt>
<pdfrwt beam="1">  1       -1 0.16550815E-02 0.91194992E+02</pdfrwt>
<totfact> 0.11756036E+05</totfact>
</mgrwt>
</event>
<event>
 5    1  0.2734570E+000  0.8899926E+02  0.7818608E-02  0.1305293E+00
          1   -1    0    0  501    0  0.00000000000E+00  0.00000000000E+00  0.18853267505E+03  0.18853267511E+03  0.46700000000E-02 0. -1.
         -1   -1    0    0    0  501 -0.00000000000E+00 -0.00000000000E+00 -0.10503309666E+02  0.10503310704E+02  0.46700000000E-02 0.  1.
         23    2    1    2    0    0  0.00000000000E+00  0.00000000000E+00  0.17802936538E+03  0.19903598581E+03  0.88999262408E+02 0.  0.
        -13    1    3    3    0    0  0.29113752283E+02  0.11507653303E+02  0.18288215222E+02  0.36256125620E+02  0.10570000000E+00 0.  1.
         13    1    3    3    0    0 -0.29113752283E+02 -0.11507653303E+02  0.15974115016E+03  0.16277986019E+03  0.10570000000E+00 0. -1.
<mgrwt>
<rscale>  0 0.88999262E+02</rscale>
<asrwt>0</asrwt>
<pdfrwt beam="1">  1        1 0.29005027E-01 0.88999262E+02</pdfrwt>
<pdfrwt beam="2">  1       -1 0.16158939E-02 0.88999262E+02</pdfrwt>
<totfact> 0.12489509E+05</totfact>
</mgrwt>
</event>
<event>
 5    1  0.2734570E+000  0.9147314E+02  0.7818608E-02  0.1299323E+00
          1   -1    0    0  501    0  0.00000000000E+00  0.00000000000E+00  0.49624987714E+02  0.49624987934E+02  0.46700000000E-02 0. -1.
         -1   -1    0    0    0  501 -0.00000000000E+00 -0.00000000000E+00 -0.42152828670E+02  0.42152828929E+02  0.46700000000E-02 0.  1.
         23    2    1    2    0    0  0.00000000000E+00  0.00000000000E+00  0.74721590440E+01  0.91777816862E+02  0.91473135440E+02 0.  0.
        -13    1    3    3    0    0 -0.28631415824E+02 -0.13365845988E+02 -0.29440941989E+02  0.43187776613E+02  0.10570000000E+00 0.  1.
         13    1    3    3    0    0  0.28631415824E+02  0.13365845988E+02  0.36913101033E+02  0.48590040249E+02  0.10570000000E+00 0. -1.
<mgrwt>
<rscale>  0 0.91473135E+02</rscale>
<asrwt>0</asrwt>
<pdfrwt beam="1">  1        1 0.76346135E-02 0.91473135E+02</pdfrwt>
<pdfrwt beam="2">  1       -1 0.64850506E-02 0.91473135E+02</pdfrwt>
<totfact> 0.92811131E+04</totfact>
</mgrwt>
</event>
<event>
 5    1  0.2734570E+000  0.9259667E+02  0.7818608E-02  0.1296683E+00
         -1   -1    0    0    0  501 -0.00000000000E+00  0.00000000000E+00  0.60612756325E+01  0.60612774316E+01  0.46700000000E-02 0.  1.
          1   -1    0    0  501    0  0.00000000000E+00 -0.00000000000E+00 -0.35364430353E+03  0.35364430356E+03  0.46700000000E-02 0. -1.
         23    2    1    2    0    0  0.00000000000E+00  0.00000000000E+00 -0.34758302789E+03  0.35970558099E+03  0.92596672265E+02 0.  0.
        -13    1    3    3    0    0  0.33262008258E+02 -0.31553110254E+02 -0.14874688372E+03  0.15565219738E+03  0.10570000000E+00 0.  1.
         13    1    3    3    0    0 -0.33262008258E+02  0.31553110254E+02 -0.19883614418E+03  0.20405338361E+03  0.10570000000E+00 0. -1.
<mgrwt>
<rscale>  0 0.92596672E+02</rscale>
<asrwt>0</asrwt>
<pdfrwt beam="2">  1        1 0.54406800E-01 0.92596672E+02</pdfrwt>
<pdfrwt beam="1">  1       -1 0.93250436E-03 0.92596672E+02</pdfrwt>
<totfact> 0.12675253E+05</totfact>
</mgrwt>
</event>
<event>
 5    1  0.2734570E+000  0.9005166E+02  0.7818608E-02  0.1302727E+00
          1   -1    0    0  501    0  0.00000000000E+00  0.00000000000E+00  0.11221584363E+03  0.11221584372E+03  0.46700000000E-02 0.  1.
         -1   -1    0    0    0  501 -0.00000000000E+00 -0.00000000000E+00 -0.18066302098E+02  0.18066302701E+02  0.46700000000E-02 0. -1.
         23    2    1    2    0    0  0.00000000000E+00  0.00000000000E+00  0.94149541530E+02  0.13028214643E+03  0.90051660212E+02 0.  0.
        -13    1    3    3    0    0 -0.20261543119E+02  0.40105539686E+02  0.42899261450E+02  0.62123604600E+02  0.10570000000E+00 0. -1.
         13    1    3    3    0    0  0.20261543119E+02 -0.40105539686E+02  0.51250280080E+02  0.68158541826E+02  0.10570000000E+00 0.  1.
<mgrwt>
<rscale>  0 0.90051660E+02</rscale>
<asrwt>0</asrwt>
<pdfrwt beam="1">  1        1 0.17263976E-01 0.90051660E+02</pdfrwt>
<pdfrwt beam="2">  1       -1 0.27794311E-02 0.90051660E+02</pdfrwt>
<totfact> 0.11014988E+05</totfact>
</mgrwt>
</event>
<event>
 5    1  0.2734570E+000  0.9085071E+02  0.7818608E-02  0.1300805E+00
         -1   -1    0    0    0  501 -0.00000000000E+00  0.00000000000E+00  0.68539967889E+02  0.68539968049E+02  0.46700000000E-02 0.  1.
          1   -1    0    0  501    0  0.00000000000E+00 -0.00000000000E+00 -0.30105977428E+02  0.30105977790E+02  0.46700000000E-02 0. -1.
         23    2    1    2    0    0  0.00000000000E+00  0.00000000000E+00  0.38433990462E+02  0.98645945838E+02  0.90850707248E+02 0.  0.
        -13    1    3    3    0    0 -0.26479370744E+02  0.36900169166E+02  0.20107101817E+02  0.49669772250E+02  0.10570000000E+00 0. -1.
         13    1    3    3    0    0  0.26479370744E+02 -0.36900169166E+02  0.18326888645E+02  0.48976173588E+02  0.10570000000E+00 0.  1.
<mgrwt>
<rscale>  0 0.90850707E+02</rscale>
<asrwt>0</asrwt>
<pdfrwt beam="2">  1        1 0.46316889E-02 0.90850707E+02</pdfrwt>
<pdfrwt beam="1">  1       -1 0.10544610E-01 0.90850707E+02</pdfrwt>
<totfact> 0.87630156E+04</totfact>
</mgrwt>
</event>
<event>
 5    1  0.2734570E+000  0.9204912E+02  0.7818608E-02  0.1297964E+00
          1   -1    0    0  501    0  0.00000000000E+00  0.00000000000E+00  0.17456024819E+02  0.17456025443E+02  0.46700000000E-02 0. -1.
         -1   -1    0    0    0  501 -0.00000000000E+00 -0.00000000000E+00 -0.12134836402E+03  0.12134836411E+03  0.46700000000E-02 0.  1.
         23    2    1    2    0    0  0.00000000000E+00  0.00000000000E+00 -0.10389233920E+03  0.13880438955E+03  0.92049119573E+02 0.  0.
        -13    1    3    3    0    0  0.25151079232E+02 -0.20047717481E+01  0.60977616414E+01  0.25957460697E+02  0.10570000000E+00 0. -1.
         13    1    3    3    0    0 -0.25151079232E+02  0.20047717481E+01 -0.10999010084E+03  0.11284692885E+03  0.10570000000E+00 0.  1.
<mgrwt>
<rscale>  0 0.92049120E+02</rscale>
<asrwt>0</asrwt>
<pdfrwt beam="1">  1        1 0.26855424E-02 0.92049120E+02</pdfrwt>
<pdfrwt beam="2">  1       -1 0.18668979E-01 0.92049120E+02</pdfrwt>
<totfact> 0.76443259E+04</totfact>
</mgrwt>
</event>
<event>
 5    1  0.2734570E+000  0.1026128E+03  0.7818608E-02  0.1274896E+00
         -1   -1    0    0    0  501 -0.00000000000E+00  0.00000000000E+00  0.45670819894E+02  0.45670820133E+02  0.46700000000E-02 0.  1.
          1   -1    0    0  501    0  0.00000000000E+00 -0.00000000000E+00 -0.57637415522E+02  0.57637415711E+02  0.46700000000E-02 0. -1.
         23    2    1    2    0    0  0.00000000000E+00  0.00000000000E+00 -0.11966595628E+02  0.10330823584E+03  0.10261282660E+03 0.  0.
        -13    1    3    3    0    0 -0.25606375313E+02  0.43680342793E+02 -0.14326683787E+02  0.52620564840E+02  0.10570000000E+00 0.  1.
         13    1    3    3    0    0  0.25606375313E+02 -0.43680342793E+02  0.23600881591E+01  0.50687671004E+02  0.10570000000E+00 0. -1.
<mgrwt>
<rscale>  0 0.10261283E+03</rscale>
<asrwt>0</asrwt>
<pdfrwt beam="2">  1        1 0.88672947E-02 0.10261283E+03</pdfrwt>
<pdfrwt beam="1">  1       -1 0.70262800E-02 0.10261283E+03</pdfrwt>
<totfact> 0.68759694E+04</totfact>
</mgrwt>
</event>
<event>
 5    1  0.2734570E+000  0.9172468E+02  0.7818608E-02  0.1298728E+00
          1   -1    0    0  501    0  0.00000000000E+00  0.00000000000E+00  0.87211204757E+02  0.87211204882E+02  0.46700000000E-02 0. -1.
         -1   -1    0    0    0  501 -0.00000000000E+00 -0.00000000000E+00 -0.24117934646E+02  0.24117935098E+02  0.46700000000E-02 0.  1.
         23    2    1    2    0    0  0.00000000000E+00  0.00000000000E+00  0.63093270111E+02  0.11132913998E+03  0.91724678661E+02 0.  0.
        -13    1    3    3    0    0  0.42289437595E+02 -0.13191452935E+02  0.45955425151E+02  0.63830425629E+02  0.10570000000E+00 0.  1.
         13    1    3    3    0    0 -0.42289437595E+02  0.13191452935E+02  0.17137844960E+02  0.47498714351E+02  0.10570000000E+00 0. -1.
<mgrwt>
<rscale>  0 0.91724679E+02</rscale>
<asrwt>0</asrwt>
<pdfrwt beam="1">  1        1 0.13417109E-01 0.91724679E+02</pdfrwt>
<pdfrwt beam="2">  1       -1 0.37104515E-02 0.91724679E+02</pdfrwt>
<totfact> 0.10047612E+05</totfact>
</mgrwt>
</event>
<event>
 5    1  0.2734570E+000  0.9449843E+02  0.7818608E-02  0.1292310E+00
          1   -1    0    0  501    0  0.00000000000E+00  0.00000000000E+00  0.44727883460E+02  0.44727883704E+02  0.46700000000E-02 0. -1.
         -1   -1    0    0    0  501 -0.00000000000E+00 -0.00000000000E+00 -0.49912673200E+02  0.49912673419E+02  0.46700000000E-02 0.  1.
         23    2    1    2    0    0  0.00000000000E+00  0.00000000000E+00 -0.51847897397E+01  0.94640557123E+02  0.94498428600E+02 0.  0.
        -13    1    3    3    0    0  0.41048186104E+02  0.13064865764E+02 -0.22033772601E+02  0.48385355299E+02  0.10570000000E+00 0.  1.
         13    1    3    3    0    0 -0.41048186104E+02 -0.13064865764E+02  0.16848982861E+02  0.46255201824E+02  0.10570000000E+00 0. -1.
<mgrwt>
<rscale>  0 0.94498429E+02</rscale>
<asrwt>0</asrwt>
<pdfrwt beam="1">  1        1 0.68812129E-02 0.94498429E+02</pdfrwt>
<pdfrwt beam="2">  1       -1 0.76788728E-02 0.94498429E+02</pdfrwt>
<totfact> 0.83356406E+04</totfact>
</mgrwt>
</event>
<event>
 5    1  0.2734570E+000  0.8948200E+02  0.7818608E-02  0.1304111E+00
          1   -1    0    0  501    0  0.00000000000E+00  0.00000000000E+00  0.29640384268E+02  0.29640384636E+02  0.46700000000E-02 0. -1.
         -1   -1    0    0    0  501 -0.00000000000E+00 -0.00000000000E+00 -0.67534792027E+02  0.67534792188E+02  0.46700000000E-02 0.  1.
         23    2    1    2    0    0  0.00000000000E+00  0.00000000000E+00 -0.37894407758E+02  0.97175176825E+02  0.89482002948E+02 0.  0.
        -13    1    3    3    0    0 -0.20072987075E+01  0.32869574407E+02  0.13943805591E+02  0.35761418549E+02  0.10570000000E+00 0. -1.
         13    1    3    3    0    0  0.20072987075E+01 -0.32869574407E+02 -0.51838213349E+02  0.61413758275E+02  0.10570000000E+00 0.  1.
<mgrwt>
<rscale>  0 0.89482003E+02</rscale>
<asrwt>0</asrwt>
<pdfrwt beam="1">  1        1 0.45600592E-02 0.89482003E+02</pdfrwt>
<pdfrwt beam="2">  1       -1 0.10389968E-01 0.89482003E+02</pdfrwt>
<totfact> 0.91295052E+04</totfact>
</mgrwt>
</event>
<event>
 5    1  0.2734570E+000  0.8996456E+02  0.7818608E-02  0.1302938E+00
          1   -1    0    0  501    0  0.00000000000E+00  0.00000000000E+00  0.61386250705E+02  0.61386250883E+02  0.46700000000E-02 0. -1.
         -1   -1    0    0    0  501 -0.00000000000E+00 -0.00000000000E+00 -0.32961867646E+02  0.32961867976E+02  0.46700000000E-02 0.  1.
         23    2    1    2    0    0  0.00000000000E+00  0.00000000000E+00  0.28424383060E+02  0.94348118859E+02  0.89964559578E+02 0.  0.
        -13    1    3    3    0    0  0.10456055885E+02 -0.43737313991E+02  0.15318376975E+02  0.47507321388E+02  0.10570000000E+00 0.  1.
         13    1    3    3    0    0 -0.10456055885E+02  0.43737313991E+02  0.13106006085E+02  0.46840797472E+02  0.10570000000E+00 0. -1.
<mgrwt>
<rscale>  0 0.89964560E+02</rscale>
<asrwt>0</asrwt>
<pdfrwt beam="1">  1        1 0.94440384E-02 0.89964560E+02</pdfrwt>
<pdfrwt beam="2">  1       -1 0.50710567E-02 0.89964560E+02</pdfrwt>
<totfact> 0.10035343E+05</totfact>
</mgrwt>
</event>
<event>
 5    1  0.2734570E+000  0.9577612E+02  0.7818608E-02  0.1289438E+00
          1   -1    0    0  501    0  0.00000000000E+00  0.00000000000E+00  0.14105164743E+02  0.14105165516E+02  0.46700000000E-02 0. -1.
         -1   -1    0    0    0  501 -0.00000000000E+00 -0.00000000000E+00 -0.16258344153E+03  0.16258344160E+03  0.46700000000E-02 0.  1.
         23    2    1    2    0    0  0.00000000000E+00  0.00000000000E+00 -0.14847827679E+03  0.17668860711E+03  0.95776120229E+02 0.  0.
        -13    1    3    3    0    0 -0.26732040566E+02 -0.99048676656E+01 -0.14522344867E+03  0.14799516753E+03  0.10570000000E+00 0.  1.
         13    1    3    3    0    0  0.26732040566E+02  0.99048676656E+01 -0.32548281117E+01  0.28693439578E+02  0.10570000000E+00 0. -1.
<mgrwt>
<rscale>  0 0.95776120E+02</rscale>
<asrwt>0</asrwt>
<pdfrwt beam="1">  1        1 0.21700255E-02 0.95776120E+02</pdfrwt>
<pdfrwt beam="2">  1       -1 0.25012836E-01 0.95776120E+02</pdfrwt>
<totfact> 0.64531728E+04</totfact>
</mgrwt>
</event>
<event>
 5    1  0.2734570E+000  0.9115472E+02  0.7818608E-02  0.1300079E+00
         -1   -1    0    0    0  501 -0.00000000000E+00  0.00000000000E+00  0.98753474926E+01  0.98753485968E+01  0.46700000000E-02 0.  1.
          1   -1    0    0  501    0  0.00000000000E+00 -0.00000000000E+00 -0.21035163748E+03  0.21035163754E+03  0.46700000000E-02 0. -1.
         23    2    1    2    0    0  0.00000000000E+00  0.00000000000E+00 -0.20047628999E+03  0.22022698613E+03  0.91154717773E+02 0.  0.
        -13    1    3    3    0    0 -0.28112650618E+02  0.35493903765E+02 -0.87650472430E+02  0.98654725275E+02  0.10570000000E+00 0.  1.
         13    1    3    3    0    0  0.28112650618E+02 -0.35493903765E+02 -0.11282581756E+03  0.12157226086E+03  0.10570000000E+00 0. -1.
<mgrwt>
<rscale>  0 0.91154718E+02</rscale>
<asrwt>0</asrwt>
<pdfrwt beam="2">  1        1 0.32361787E-01 0.91154718E+02</pdfrwt>
<pdfrwt beam="1">  1       -1 0.15192845E-02 0.91154718E+02</pdfrwt>
<totfact> 0.11965093E+05</totfact>
</mgrwt>
</event>
<event>
 5    1  0.2734570E+000  0.9186964E+02  0.7818608E-02  0.1298386E+00
         -1   -1    0    0    0  501 -0.00000000000E+00  0.00000000000E+00  0.14916916051E+02  0.14916916782E+02  0.46700000000E-02 0.  1.
          1   -1    0    0  501    0  0.00000000000E+00 -0.00000000000E+00 -0.14145065495E+03  0.14145065503E+03  0.46700000000E-02 0. -1.
         23    2    1    2    0    0  0.00000000000E+00  0.00000000000E+00 -0.12653373890E+03  0.15636757181E+03  0.91869638258E+02 0.  0.
        -13    1    3    3    0    0 -0.27260871703E+02  0.86341311552E+01 -0.12445331104E+03  0.12769628479E+03  0.10570000000E+00 0.  1.
         13    1    3    3    0    0  0.27260871703E+02 -0.86341311552E+01 -0.20804278558E+01  0.28671287020E+02  0.10570000000E+00 0. -1.
<mgrwt>
<rscale>  0 0.91869638E+02</rscale>
<asrwt>0</asrwt>
<pdfrwt beam="2">  1        1 0.21761638E-01 0.91869638E+02</pdfrwt>
<pdfrwt beam="1">  1       -1 0.22949103E-02 0.91869638E+02</pdfrwt>
<totfact> 0.10868871E+05</totfact>
</mgrwt>
</event>
<event>
 5    1  0.2734570E+000  0.8999070E+02  0.7818608E-02  0.1302874E+00
         -1   -1    0    0    0  501 -0.00000000000E+00  0.00000000000E+00  0.33397850634E+02  0.33397850961E+02  0.46700000000E-02 0.  1.
          1   -1    0    0  501    0  0.00000000000E+00 -0.00000000000E+00 -0.60620117526E+02  0.60620117706E+02  0.46700000000E-02 0. -1.
         23    2    1    2    0    0  0.00000000000E+00  0.00000000000E+00 -0.27222266892E+02  0.94017968666E+02  0.89990702950E+02 0.  0.
        -13    1    3    3    0    0  0.27773180278E+02 -0.10608186075E+02 -0.48896653915E+02  0.57225668115E+02  0.10570000000E+00 0. -1.
         13    1    3    3    0    0 -0.27773180278E+02  0.10608186075E+02  0.21674387023E+02  0.36792300552E+02  0.10570000000E+00 0.  1.
<mgrwt>
<rscale>  0 0.89990703E+02</rscale>
<asrwt>0</asrwt>
<pdfrwt beam="2">  1        1 0.93261720E-02 0.89990703E+02</pdfrwt>
<pdfrwt beam="1">  1       -1 0.51381309E-02 0.89990703E+02</pdfrwt>
<totfact> 0.10008391E+05</totfact>
</mgrwt>
</event>
<event>
 5    1  0.2734570E+000  0.9117783E+02  0.7818608E-02  0.1300024E+00
          1   -1    0    0  501    0  0.00000000000E+00  0.00000000000E+00  0.19468154960E+03  0.19468154966E+03  0.46700000000E-02 0. -1.
         -1   -1    0    0    0  501 -0.00000000000E+00 -0.00000000000E+00 -0.10675635336E+02  0.10675636357E+02  0.46700000000E-02 0.  1.
         23    2    1    2    0    0  0.00000000000E+00  0.00000000000E+00  0.18400591427E+03  0.20535718602E+03  0.91177833727E+02 0.  0.
        -13    1    3    3    0    0  0.44125646262E+02  0.57669585284E+01  0.69705736427E+02  0.82699645296E+02  0.10570000000E+00 0.  1.
         13    1    3    3    0    0 -0.44125646262E+02 -0.57669585284E+01  0.11430017784E+03  0.12265754072E+03  0.10570000000E+00 0. -1.
<mgrwt>
<rscale>  0 0.91177834E+02</rscale>
<asrwt>0</asrwt>
<pdfrwt beam="1">  1        1 0.29951008E-01 0.91177834E+02</pdfrwt>
<pdfrwt beam="2">  1       -1 0.16424055E-02 0.91177834E+02</pdfrwt>
<totfact> 0.11778614E+05</totfact>
</mgrwt>
</event>
<event>
 5    1  0.2734570E+000  0.9048200E+02  0.7818608E-02  0.1301689E+00
         -1   -1    0    0    0  501 -0.00000000000E+00  0.00000000000E+00  0.28191716495E+02  0.28191716881E+02  0.46700000000E-02 0.  1.
          1   -1    0    0  501    0  0.00000000000E+00 -0.00000000000E+00 -0.72601038299E+02  0.72601038449E+02  0.46700000000E-02 0. -1.
         23    2    1    2    0    0  0.00000000000E+00  0.00000000000E+00 -0.44409321805E+02  0.10079275533E+03  0.90481996353E+02 0.  0.
        -13    1    3    3    0    0  0.41289903529E+02  0.16239500653E+02 -0.12356451468E+02  0.46057253286E+02  0.10570000000E+00 0.  1.
         13    1    3    3    0    0 -0.41289903529E+02 -0.16239500653E+02 -0.32052870336E+02  0.54735502045E+02  0.10570000000E+00 0. -1.
<mgrwt>
<rscale>  0 0.90481996E+02</rscale>
<asrwt>0</asrwt>
<pdfrwt beam="2">  1        1 0.11169390E-01 0.90481996E+02</pdfrwt>
<pdfrwt beam="1">  1       -1 0.43371872E-02 0.90481996E+02</pdfrwt>
<totfact> 0.10133628E+05</totfact>
</mgrwt>
</event>
<event>
 5    1  0.2734570E+000  0.9104100E+02  0.7818608E-02  0.1300350E+00
          1   -1    0    0  501    0  0.00000000000E+00  0.00000000000E+00  0.24902700272E+02  0.24902700710E+02  0.46700000000E-02 0. -1.
         -1   -1    0    0    0  501 -0.00000000000E+00 -0.00000000000E+00 -0.83208489132E+02  0.83208489264E+02  0.46700000000E-02 0.  1.
         23    2    1    2    0    0  0.00000000000E+00  0.00000000000E+00 -0.58305788860E+02  0.10811118997E+03  0.91041003855E+02 0.  0.
        -13    1    3    3    0    0 -0.21297741170E+02 -0.40143860870E+02 -0.26015201563E+02  0.52363395892E+02  0.10570000000E+00 0.  1.
         13    1    3    3    0    0  0.21297741170E+02  0.40143860870E+02 -0.32290587297E+02  0.55747794082E+02  0.10570000000E+00 0. -1.
<mgrwt>
<rscale>  0 0.91041004E+02</rscale>
<asrwt>0</asrwt>
<pdfrwt beam="1">  1        1 0.38311847E-02 0.91041004E+02</pdfrwt>
<pdfrwt beam="2">  1       -1 0.12801306E-01 0.91041004E+02</pdfrwt>
<totfact> 0.84407805E+04</totfact>
</mgrwt>
</event>
<event>
 5    1  0.2734570E+000  0.8926212E+02  0.7818608E-02  0.1304648E+00
         -1   -1    0    0    0  501 -0.00000000000E+00  0.00000000000E+00  0.19588628340E+02  0.19588628897E+02  0.46700000000E-02 0.  1.
          1   -1    0    0  501    0  0.00000000000E+00 -0.00000000000E+00 -0.10168815894E+03  0.10168815905E+03  0.46700000000E-02 0. -1.
         23    2    1    2    0    0  0.00000000000E+00  0.00000000000E+00 -0.82099530602E+02  0.12127678795E+03  0.89262121695E+02 0.  0.
        -13    1    3    3    0    0  0.25673342385E+02 -0.11036901868E+02 -0.88330059324E+02  0.92645260347E+02  0.10570000000E+00 0. -1.
         13    1    3    3    0    0 -0.25673342385E+02  0.11036901868E+02  0.62305287220E+01  0.28631527600E+02  0.10570000000E+00 0.  1.
<mgrwt>
<rscale>  0 0.89262122E+02</rscale>
<asrwt>0</asrwt>
<pdfrwt beam="2">  1        1 0.15644332E-01 0.89262122E+02</pdfrwt>
<pdfrwt beam="1">  1       -1 0.30136352E-02 0.89262122E+02</pdfrwt>
<totfact> 0.11096545E+05</totfact>
</mgrwt>
</event>
<event>
 5    1  0.2734570E+000  0.8914745E+02  0.7818608E-02  0.1304930E+00
          1   -1    0    0  501    0  0.00000000000E+00  0.00000000000E+00  0.28972673810E+02  0.28972674187E+02  0.46700000000E-02 0. -1.
         -1   -1    0    0    0  501 -0.00000000000E+00 -0.00000000000E+00 -0.68575542340E+02  0.68575542499E+02  0.46700000000E-02 0.  1.
         23    2    1    2    0    0  0.00000000000E+00  0.00000000000E+00 -0.39602868530E+02  0.97548216686E+02  0.89147447427E+02 0.  0.
        -13    1    3    3    0    0 -0.27798346362E+02 -0.34838368305E+02 -0.19158059172E+02  0.48512909316E+02  0.10570000000E+00 0. -1.
         13    1    3    3    0    0  0.27798346362E+02  0.34838368305E+02 -0.20444809358E+02  0.49035307370E+02  0.10570000000E+00 0.  1.
<mgrwt>
<rscale>  0 0.89147447E+02</rscale>
<asrwt>0</asrwt>
<pdfrwt beam="1">  1        1 0.44573345E-02 0.89147447E+02</pdfrwt>
<pdfrwt beam="2">  1       -1 0.10550083E-01 0.89147447E+02</pdfrwt>
<totfact> 0.91945631E+04</totfact>
</mgrwt>
</event>
<event>
 5    1  0.2734570E+000  0.9227540E+02  0.7818608E-02  0.1297433E+00
          1   -1    0    0  501    0  0.00000000000E+00  0.00000000000E+00  0.44093352152E+02  0.44093352400E+02  0.46700000000E-02 0. -1.
         -1   -1    0    0    0  501 -0.00000000000E+00 -0.00000000000E+00 -0.48276833109E+02  0.48276833335E+02  0.46700000000E-02 0.  1.
         23    2    1    2    0    0  0.00000000000E+00  0.00000000000E+00 -0.41834809569E+01  0.92370185735E+02  0.92275401380E+02 0.  0.
        -13    1    3    3    0    0 -0.20184393388E+02 -0.29305474153E+02  0.27306021718E+02  0.44853657001E+02  0.10570000000E+00 0. -1.
         13    1    3    3    0    0  0.20184393388E+02  0.29305474153E+02 -0.31489502675E+02  0.47516528734E+02  0.10570000000E+00 0.  1.
<mgrwt>
<rscale>  0 0.92275401E+02</rscale>
<asrwt>0</asrwt>
<pdfrwt beam="1">  1        1 0.67835927E-02 0.92275401E+02</pdfrwt>
<pdfrwt beam="2">  1       -1 0.74272051E-02 0.92275401E+02</pdfrwt>
<totfact> 0.88957107E+04</totfact>
</mgrwt>
</event>
<event>
 4    1  0.2734570E+000  0.1725517E+03  0.7818608E-02  0.1175213E+00
         -1   -1    0    0    0  501 -0.00000000000E+00  0.00000000000E+00  0.24423213765E+03  0.24423213770E+03  0.46700000000E-02 0.  1.
          1   -1    0    0  501    0  0.00000000000E+00 -0.00000000000E+00 -0.30477248154E+02  0.30477248512E+02  0.46700000000E-02 0. -1.
        -13    1    1    2    0    0  0.59240468266E+02  0.12667776012E+02  0.20467602241E+03  0.21345301814E+03  0.10570000000E+00 0.  1.
         13    1    1    2    0    0 -0.59240468266E+02 -0.12667776012E+02  0.90788670884E+01  0.61256368073E+02  0.10570000000E+00 0. -1.
<mgrwt>
<rscale>  0 0.17255171E+03</rscale>
<asrwt>0</asrwt>
<pdfrwt beam="2">  1        1 0.46888074E-02 0.17255171E+03</pdfrwt>
<pdfrwt beam="1">  1       -1 0.37574175E-01 0.17255171E+03</pdfrwt>
<totfact> 0.12030182E+04</totfact>
</mgrwt>
</event>
<event>
 5    1  0.2734570E+000  0.9283054E+02  0.7818608E-02  0.1296138E+00
          1   -1    0    0  501    0  0.00000000000E+00  0.00000000000E+00  0.25091291540E+02  0.25091291974E+02  0.46700000000E-02 0. -1.
         -1   -1    0    0    0  501 -0.00000000000E+00 -0.00000000000E+00 -0.85861557762E+02  0.85861557889E+02  0.46700000000E-02 0.  1.
         23    2    1    2    0    0  0.00000000000E+00  0.00000000000E+00 -0.60770266223E+02  0.11095284986E+03  0.92830542582E+02 0.  0.
        -13    1    3    3    0    0 -0.74986277951E+01 -0.12233422797E+02 -0.83144013368E+02  0.84373124771E+02  0.10570000000E+00 0.  1.
         13    1    3    3    0    0  0.74986277951E+01  0.12233422797E+02  0.22373747146E+02  0.26579725092E+02  0.10570000000E+00 0. -1.
<mgrwt>
<rscale>  0 0.92830543E+02</rscale>
<asrwt>0</asrwt>
<pdfrwt beam="1">  1        1 0.38601988E-02 0.92830543E+02</pdfrwt>
<pdfrwt beam="2">  1       -1 0.13209470E-01 0.92830543E+02</pdfrwt>
<totfact> 0.79857896E+04</totfact>
</mgrwt>
</event>
<event>
 5    1  0.2734570E+000  0.9117606E+02  0.7818608E-02  0.1300028E+00
          1   -1    0    0  501    0  0.00000000000E+00  0.00000000000E+00  0.56474801915E+02  0.56474802108E+02  0.46700000000E-02 0.  1.
         -1   -1    0    0    0  501 -0.00000000000E+00 -0.00000000000E+00 -0.36799925260E+02  0.36799925557E+02  0.46700000000E-02 0. -1.
         23    2    1    2    0    0  0.00000000000E+00  0.00000000000E+00  0.19674876655E+02  0.93274727665E+02  0.91176060726E+02 0.  0.
        -13    1    3    3    0    0 -0.35709198874E+02 -0.28083996395E+02  0.13719464073E+02  0.47456217767E+02  0.10570000000E+00 0.  1.
         13    1    3    3    0    0  0.35709198874E+02  0.28083996395E+02  0.59554125816E+01  0.45818509898E+02  0.10570000000E+00 0. -1.
<mgrwt>
<rscale>  0 0.91176061E+02</rscale>
<asrwt>0</asrwt>
<pdfrwt beam="1">  1        1 0.86884311E-02 0.91176061E+02</pdfrwt>
<pdfrwt beam="2">  1       -1 0.56615270E-02 0.91176061E+02</pdfrwt>
<totfact> 0.95496813E+04</totfact>
</mgrwt>
</event>
<event>
 5    1  0.2734570E+000  0.1008647E+03  0.7818608E-02  0.1278488E+00
         -1   -1    0    0    0  501 -0.00000000000E+00  0.00000000000E+00  0.49317888764E+02  0.49317888986E+02  0.46700000000E-02 0.  1.
          1   -1    0    0  501    0  0.00000000000E+00 -0.00000000000E+00 -0.51572028230E+02  0.51572028442E+02  0.46700000000E-02 0. -1.
         23    2    1    2    0    0  0.00000000000E+00  0.00000000000E+00 -0.22541394658E+01  0.10088991743E+03  0.10086473266E+03 0.  0.
        -13    1    3    3    0    0  0.40532064458E+02 -0.20188364941E+02  0.21081944054E+02  0.49948752395E+02  0.10570000000E+00 0.  1.
         13    1    3    3    0    0 -0.40532064458E+02  0.20188364941E+02 -0.23336083520E+02  0.50941165032E+02  0.10570000000E+00 0. -1.
<mgrwt>
<rscale>  0 0.10086473E+03</rscale>
<asrwt>0</asrwt>
<pdfrwt beam="2">  1        1 0.79341582E-02 0.10086473E+03</pdfrwt>
<pdfrwt beam="1">  1       -1 0.75873675E-02 0.10086473E+03</pdfrwt>
<totfact> 0.70885583E+04</totfact>
</mgrwt>
</event>
<event>
 5    1  0.2734570E+000  0.9189606E+02  0.7818608E-02  0.1298324E+00
          1   -1    0    0  501    0  0.00000000000E+00  0.00000000000E+00  0.18640751203E+03  0.18640751209E+03  0.46700000000E-02 0. -1.
         -1   -1    0    0    0  501 -0.00000000000E+00 -0.00000000000E+00 -0.11325838615E+02  0.11325839578E+02  0.46700000000E-02 0.  1.
         23    2    1    2    0    0  0.00000000000E+00  0.00000000000E+00  0.17508167342E+03  0.19773335167E+03  0.91896060828E+02 0.  0.
        -13    1    3    3    0    0 -0.13392859986E+02 -0.33474690595E+02  0.26253575350E+02  0.44600280270E+02  0.10570000000E+00 0.  1.
         13    1    3    3    0    0  0.13392859986E+02  0.33474690595E+02  0.14882809807E+03  0.15313307140E+03  0.10570000000E+00 0. -1.
<mgrwt>
<rscale>  0 0.91896061E+02</rscale>
<asrwt>0</asrwt>
<pdfrwt beam="1">  1        1 0.28678079E-01 0.91896061E+02</pdfrwt>
<pdfrwt beam="2">  1       -1 0.17424368E-02 0.91896061E+02</pdfrwt>
<totfact> 0.11436540E+05</totfact>
</mgrwt>
</event>
<event>
 5    1  0.2734570E+000  0.9309558E+02  0.7818608E-02  0.1295524E+00
         -1   -1    0    0    0  501 -0.00000000000E+00  0.00000000000E+00  0.11027837971E+03  0.11027837981E+03  0.46700000000E-02 0.  1.
          1   -1    0    0  501    0  0.00000000000E+00 -0.00000000000E+00 -0.19647522414E+02  0.19647522969E+02  0.46700000000E-02 0. -1.
         23    2    1    2    0    0  0.00000000000E+00  0.00000000000E+00  0.90630857297E+02  0.12992590278E+03  0.93095584850E+02 0.  0.
        -13    1    3    3    0    0 -0.13650912034E+02 -0.15480971509E+02  0.10354262374E+03  0.10557979912E+03  0.10570000000E+00 0.  1.
         13    1    3    3    0    0  0.13650912034E+02  0.15480971509E+02 -0.12911766444E+02  0.24346103660E+02  0.10570000000E+00 0. -1.
<mgrwt>
<rscale>  0 0.93095585E+02</rscale>
<asrwt>0</asrwt>
<pdfrwt beam="2">  1        1 0.30226957E-02 0.93095585E+02</pdfrwt>
<pdfrwt beam="1">  1       -1 0.16965905E-01 0.93095585E+02</pdfrwt>
<totfact> 0.75683051E+04</totfact>
</mgrwt>
</event>
<event>
 5    1  0.2734570E+000  0.1128248E+03  0.7818608E-02  0.1255427E+00
          1   -1    0    0  501    0  0.00000000000E+00  0.00000000000E+00  0.19550057944E+03  0.19550057950E+03  0.46700000000E-02 0. -1.
         -1   -1    0    0    0  501 -0.00000000000E+00 -0.00000000000E+00 -0.16277989390E+02  0.16277990060E+02  0.46700000000E-02 0.  1.
         23    2    1    2    0    0  0.00000000000E+00  0.00000000000E+00  0.17922259005E+03  0.21177856955E+03  0.11282475676E+03 0.  0.
        -13    1    3    3    0    0  0.43880005871E+02 -0.16403643055E+02  0.30616391014E+02  0.55963461222E+02  0.10570000000E+00 0.  1.
         13    1    3    3    0    0 -0.43880005871E+02  0.16403643055E+02  0.14860619904E+03  0.15581510833E+03  0.10570000000E+00 0. -1.
<mgrwt>
<rscale>  0 0.11282476E+03</rscale>
<asrwt>0</asrwt>
<pdfrwt beam="1">  1        1 0.30077013E-01 0.11282476E+03</pdfrwt>
<pdfrwt beam="2">  1       -1 0.25043061E-02 0.11282476E+03</pdfrwt>
<totfact> 0.66087954E+04</totfact>
</mgrwt>
</event>
<event>
 5    1  0.2734570E+000  0.8112822E+02  0.7818608E-02  0.1325880E+00
          1   -1    0    0  501    0  0.00000000000E+00  0.00000000000E+00  0.16187232532E+02  0.16187233206E+02  0.46700000000E-02 0.  1.
         -1   -1    0    0    0  501 -0.00000000000E+00 -0.00000000000E+00 -0.10165092274E+03  0.10165092285E+03  0.46700000000E-02 0. -1.
         23    2    1    2    0    0  0.00000000000E+00  0.00000000000E+00 -0.85463690207E+02  0.11783815605E+03  0.81128223684E+02 0.  0.
        -13    1    3    3    0    0 -0.17104568979E+02  0.23287249437E+02 -0.13785392696E+01  0.28927042872E+02  0.10570000000E+00 0.  1.
         13    1    3    3    0    0  0.17104568979E+02 -0.23287249437E+02 -0.84085150938E+02  0.88911113181E+02  0.10570000000E+00 0. -1.
<mgrwt>
<rscale>  0 0.81128224E+02</rscale>
<asrwt>0</asrwt>
<pdfrwt beam="1">  1        1 0.24903436E-02 0.81128224E+02</pdfrwt>
<pdfrwt beam="2">  1       -1 0.15638603E-01 0.81128224E+02</pdfrwt>
<totfact> 0.10949844E+05</totfact>
</mgrwt>
</event>
<event>
 5    1  0.2734570E+000  0.9481769E+02  0.7818608E-02  0.1291587E+00
         -1   -1    0    0    0  501 -0.00000000000E+00  0.00000000000E+00  0.52592996372E+02  0.52592996579E+02  0.46700000000E-02 0.  1.
          1   -1    0    0  501    0  0.00000000000E+00 -0.00000000000E+00 -0.42735697035E+02  0.42735697290E+02  0.46700000000E-02 0. -1.
         23    2    1    2    0    0  0.00000000000E+00  0.00000000000E+00  0.98572993367E+01  0.95328693869E+02  0.94817685716E+02 0.  0.
        -13    1    3    3    0    0  0.18086257415E+02  0.14921543502E+02  0.46355353100E+02  0.51948003824E+02  0.10570000000E+00 0.  1.
         13    1    3    3    0    0 -0.18086257415E+02 -0.14921543502E+02 -0.36498053763E+02  0.43380690045E+02  0.10570000000E+00 0. -1.
<mgrwt>
<rscale>  0 0.94817686E+02</rscale>
<asrwt>0</asrwt>
<pdfrwt beam="2">  1        1 0.65747227E-02 0.94817686E+02</pdfrwt>
<pdfrwt beam="1">  1       -1 0.80912302E-02 0.94817686E+02</pdfrwt>
<totfact> 0.81979573E+04</totfact>
</mgrwt>
</event>
<event>
 5    1  0.2734570E+000  0.8987483E+02  0.7818608E-02  0.1303155E+00
         -1   -1    0    0    0  501 -0.00000000000E+00  0.00000000000E+00  0.10371754547E+03  0.10371754558E+03  0.46700000000E-02 0.  1.
          1   -1    0    0  501    0  0.00000000000E+00 -0.00000000000E+00 -0.19469911120E+02  0.19469911681E+02  0.46700000000E-02 0. -1.
         23    2    1    2    0    0  0.00000000000E+00  0.00000000000E+00  0.84247634353E+02  0.12318745726E+03  0.89874833696E+02 0.  0.
        -13    1    3    3    0    0  0.18930492962E+02 -0.21470824107E+02 -0.53570987604E+01  0.29121633389E+02  0.10570000000E+00 0. -1.
         13    1    3    3    0    0 -0.18930492962E+02  0.21470824107E+02  0.89604733113E+02  0.94065823870E+02  0.10570000000E+00 0.  1.
<mgrwt>
<rscale>  0 0.89874834E+02</rscale>
<asrwt>0</asrwt>
<pdfrwt beam="2">  1        1 0.29953710E-02 0.89874834E+02</pdfrwt>
<pdfrwt beam="1">  1       -1 0.15956545E-01 0.89874834E+02</pdfrwt>
<totfact> 0.83864053E+04</totfact>
</mgrwt>
</event>
<event>
 5    1  0.2734570E+000  0.8205337E+02  0.7818608E-02  0.1323323E+00
         -1   -1    0    0    0  501 -0.00000000000E+00  0.00000000000E+00  0.24106138097E+02  0.24106138550E+02  0.46700000000E-02 0.  1.
          1   -1    0    0  501    0  0.00000000000E+00 -0.00000000000E+00 -0.69824077666E+02  0.69824077822E+02  0.46700000000E-02 0. -1.
         23    2    1    2    0    0  0.00000000000E+00  0.00000000000E+00 -0.45717939569E+02  0.93930216372E+02  0.82053370127E+02 0.  0.
        -13    1    3    3    0    0  0.95691191031E-01  0.19108806720E+02  0.18700523111E+02  0.26737172404E+02  0.10570000000E+00 0.  1.
         13    1    3    3    0    0 -0.95691191031E-01 -0.19108806720E+02 -0.64418462680E+02  0.67193043967E+02  0.10570000000E+00 0. -1.
<mgrwt>
<rscale>  0 0.82053370E+02</rscale>
<asrwt>0</asrwt>
<pdfrwt beam="2">  1        1 0.10742166E-01 0.82053370E+02</pdfrwt>
<pdfrwt beam="1">  1       -1 0.37086367E-02 0.82053370E+02</pdfrwt>
<totfact> 0.13160045E+05</totfact>
</mgrwt>
</event>
<event>
 5    1  0.2734570E+000  0.8980019E+02  0.7818608E-02  0.1303336E+00
         -1   -1    0    0    0  501 -0.00000000000E+00  0.00000000000E+00  0.81575124147E+01  0.81575137515E+01  0.46700000000E-02 0.  1.
          1   -1    0    0  501    0  0.00000000000E+00 -0.00000000000E+00 -0.24713643950E+03  0.24713643954E+03  0.46700000000E-02 0. -1.
         23    2    1    2    0    0  0.00000000000E+00  0.00000000000E+00 -0.23897892708E+03  0.25529395329E+03  0.89800194868E+02 0.  0.
        -13    1    3    3    0    0  0.28725465515E+02 -0.23824854254E+02 -0.19046161277E+03  0.19408352109E+03  0.10570000000E+00 0. -1.
         13    1    3    3    0    0 -0.28725465515E+02  0.23824854254E+02 -0.48517314315E+02  0.61210432200E+02  0.10570000000E+00 0.  1.
<mgrwt>
<rscale>  0 0.89800195E+02</rscale>
<asrwt>0</asrwt>
<pdfrwt beam="2">  1        1 0.38020985E-01 0.89800195E+02</pdfrwt>
<pdfrwt beam="1">  1       -1 0.12550022E-02 0.89800195E+02</pdfrwt>
<totfact> 0.12850500E+05</totfact>
</mgrwt>
</event>
<event>
 5    1  0.2734570E+000  0.9553926E+02  0.7818608E-02  0.1289966E+00
         -1   -1    0    0    0  501 -0.00000000000E+00  0.00000000000E+00  0.49522898805E+01  0.49522920824E+01  0.46700000000E-02 0.  1.
          1   -1    0    0  501    0  0.00000000000E+00 -0.00000000000E+00 -0.46078424992E+03  0.46078424994E+03  0.46700000000E-02 0. -1.
         23    2    1    2    0    0  0.00000000000E+00  0.00000000000E+00 -0.45583196004E+03  0.46573654202E+03  0.95539263054E+02 0.  0.
        -13    1    3    3    0    0 -0.29711903944E+02  0.36563039045E+02 -0.18944706498E+03  0.19521745481E+03  0.10570000000E+00 0. -1.
         13    1    3    3    0    0  0.29711903944E+02 -0.36563039045E+02 -0.26638489506E+03  0.27051908721E+03  0.10570000000E+00 0.  1.
<mgrwt>
<rscale>  0 0.95539263E+02</rscale>
<asrwt>0</asrwt>
<pdfrwt beam="2">  1        1 0.70889851E-01 0.95539263E+02</pdfrwt>
<pdfrwt beam="1">  1       -1 0.76189129E-03 0.95539263E+02</pdfrwt>
<totfact> 0.12170993E+05</totfact>
</mgrwt>
</event>
<event>
 5    1  0.2734570E+000  0.8994783E+02  0.7818608E-02  0.1302978E+00
          1   -1    0    0  501    0  0.00000000000E+00  0.00000000000E+00  0.34614775156E+03  0.34614775159E+03  0.46700000000E-02 0. -1.
         -1   -1    0    0    0  501 -0.00000000000E+00 -0.00000000000E+00 -0.58433221636E+01  0.58433240298E+01  0.46700000000E-02 0.  1.
         23    2    1    2    0    0  0.00000000000E+00  0.00000000000E+00  0.34030442939E+03  0.35199107562E+03  0.89947832938E+02 0.  0.
        -13    1    3    3    0    0  0.51549205995E+01 -0.40345242056E+02  0.24525561988E+03  0.24860539418E+03  0.10570000000E+00 0. -1.
         13    1    3    3    0    0 -0.51549205995E+01  0.40345242056E+02  0.95048809518E+02  0.10338568144E+03  0.10570000000E+00 0.  1.
<mgrwt>
<rscale>  0 0.89947833E+02</rscale>
<asrwt>0</asrwt>
<pdfrwt beam="1">  1        1 0.53253507E-01 0.89947833E+02</pdfrwt>
<pdfrwt beam="2">  1       -1 0.89897267E-03 0.89947833E+02</pdfrwt>
<totfact> 0.13640131E+05</totfact>
</mgrwt>
</event>
<event>
 5    1  0.2734570E+000  0.8989680E+02  0.7818608E-02  0.1303102E+00
          1   -1    0    0  501    0  0.00000000000E+00  0.00000000000E+00  0.35167202592E+03  0.35167202595E+03  0.46700000000E-02 0. -1.
         -1   -1    0    0    0  501 -0.00000000000E+00 -0.00000000000E+00 -0.57450070813E+01  0.57450089794E+01  0.46700000000E-02 0.  1.
         23    2    1    2    0    0  0.00000000000E+00  0.00000000000E+00  0.34592701884E+03  0.35741703493E+03  0.89896799141E+02 0.  0.
        -13    1    3    3    0    0  0.18479043471E+02 -0.36917559034E+02  0.24363615667E+03  0.24710922528E+03  0.10570000000E+00 0.  1.
         13    1    3    3    0    0 -0.18479043471E+02  0.36917559034E+02  0.10229086217E+03  0.11030780965E+03  0.10570000000E+00 0. -1.
<mgrwt>
<rscale>  0 0.89896799E+02</rscale>
<asrwt>0</asrwt>
<pdfrwt beam="1">  1        1 0.54103382E-01 0.89896799E+02</pdfrwt>
<pdfrwt beam="2">  1       -1 0.88384751E-03 0.89896799E+02</pdfrwt>
<totfact> 0.13699347E+05</totfact>
</mgrwt>
</event>
<event>
 5    1  0.2734570E+000  0.8944234E+02  0.7818608E-02  0.1304208E+00
          1   -1    0    0  501    0  0.00000000000E+00  0.00000000000E+00  0.11855718275E+03  0.11855718285E+03  0.46700000000E-02 0. -1.
         -1   -1    0    0    0  501 -0.00000000000E+00 -0.00000000000E+00 -0.16869354923E+02  0.16869355570E+02  0.46700000000E-02 0.  1.
         23    2    1    2    0    0  0.00000000000E+00  0.00000000000E+00  0.10168782783E+03  0.13542653841E+03  0.89442344436E+02 0.  0.
        -13    1    3    3    0    0  0.25959589884E+02  0.17789064946E+02  0.98954403542E+02  0.10383802912E+03  0.10570000000E+00 0. -1.
         13    1    3    3    0    0 -0.25959589884E+02 -0.17789064946E+02  0.27334242880E+01  0.31588509295E+02  0.10570000000E+00 0.  1.
<mgrwt>
<rscale>  0 0.89442344E+02</rscale>
<asrwt>0</asrwt>
<pdfrwt beam="1">  1        1 0.18239567E-01 0.89442344E+02</pdfrwt>
<pdfrwt beam="2">  1       -1 0.25952854E-02 0.89442344E+02</pdfrwt>
<totfact> 0.11325216E+05</totfact>
</mgrwt>
</event>
<event>
 5    1  0.2734570E+000  0.8974014E+02  0.7818608E-02  0.1303482E+00
          1   -1    0    0  501    0  0.00000000000E+00  0.00000000000E+00  0.23670268668E+02  0.23670269129E+02  0.46700000000E-02 0. -1.
         -1   -1    0    0    0  501 -0.00000000000E+00 -0.00000000000E+00 -0.85057048525E+02  0.85057048653E+02  0.46700000000E-02 0.  1.
         23    2    1    2    0    0  0.00000000000E+00  0.00000000000E+00 -0.61386779856E+02  0.10872731778E+03  0.89740140912E+02 0.  0.
        -13    1    3    3    0    0 -0.22431279255E+01 -0.44645684769E+02 -0.35392578700E+02  0.57016792183E+02  0.10570000000E+00 0.  1.
         13    1    3    3    0    0  0.22431279255E+01  0.44645684769E+02 -0.25994201157E+02  0.51710525598E+02  0.10570000000E+00 0. -1.
<mgrwt>
<rscale>  0 0.89740141E+02</rscale>
<asrwt>0</asrwt>
<pdfrwt beam="1">  1        1 0.36415799E-02 0.89740141E+02</pdfrwt>
<pdfrwt beam="2">  1       -1 0.13085700E-01 0.89740141E+02</pdfrwt>
<totfact> 0.87245997E+04</totfact>
</mgrwt>
</event>
<event>
 5    1  0.2734570E+000  0.8991162E+02  0.7818608E-02  0.1303066E+00
         -1   -1    0    0    0  501 -0.00000000000E+00  0.00000000000E+00  0.26005128244E+02  0.26005128664E+02  0.46700000000E-02 0.  1.
          1   -1    0    0  501    0  0.00000000000E+00 -0.00000000000E+00 -0.77716394101E+02  0.77716394241E+02  0.46700000000E-02 0. -1.
         23    2    1    2    0    0  0.00000000000E+00  0.00000000000E+00 -0.51711265856E+02  0.10372152290E+03  0.89911619367E+02 0.  0.
        -13    1    3    3    0    0  0.54522950228E+01 -0.33856020221E+02 -0.59390440332E+02  0.68579830866E+02  0.10570000000E+00 0. -1.
         13    1    3    3    0    0 -0.54522950228E+01  0.33856020221E+02  0.76791744759E+01  0.35141692039E+02  0.10570000000E+00 0.  1.
<mgrwt>
<rscale>  0 0.89911619E+02</rscale>
<asrwt>0</asrwt>
<pdfrwt beam="2">  1        1 0.11956368E-01 0.89911619E+02</pdfrwt>
<pdfrwt beam="1">  1       -1 0.40007890E-02 0.89911619E+02</pdfrwt>
<totfact> 0.10420411E+05</totfact>
</mgrwt>
</event>
<event>
 5    1  0.2734570E+000  0.8906542E+02  0.7818608E-02  0.1305131E+00
         -1   -1    0    0    0  501 -0.00000000000E+00  0.00000000000E+00  0.16753966508E+02  0.16753967159E+02  0.46700000000E-02 0.  1.
          1   -1    0    0  501    0  0.00000000000E+00 -0.00000000000E+00 -0.11836972609E+03  0.11836972618E+03  0.46700000000E-02 0. -1.
         23    2    1    2    0    0  0.00000000000E+00  0.00000000000E+00 -0.10161575958E+03  0.13512369334E+03  0.89065424868E+02 0.  0.
        -13    1    3    3    0    0  0.13598186732E+02 -0.40581897762E+02 -0.69472272214E+02  0.81597848547E+02  0.10570000000E+00 0. -1.
         13    1    3    3    0    0 -0.13598186732E+02  0.40581897762E+02 -0.32143487368E+02  0.53525844795E+02  0.10570000000E+00 0.  1.
<mgrwt>
<rscale>  0 0.89065425E+02</rscale>
<asrwt>0</asrwt>
<pdfrwt beam="2">  1        1 0.18210727E-01 0.89065425E+02</pdfrwt>
<pdfrwt beam="1">  1       -1 0.25775334E-02 0.89065425E+02</pdfrwt>
<totfact> 0.11452149E+05</totfact>
</mgrwt>
</event>
<event>
 5    1  0.2734570E+000  0.9521884E+02  0.7818608E-02  0.1290684E+00
         -1   -1    0    0    0  501 -0.00000000000E+00  0.00000000000E+00  0.18922174599E+02  0.18922175175E+02  0.46700000000E-02 0.  1.
          1   -1    0    0  501    0  0.00000000000E+00 -0.00000000000E+00 -0.11978838611E+03  0.11978838620E+03  0.46700000000E-02 0. -1.
         23    2    1    2    0    0  0.00000000000E+00  0.00000000000E+00 -0.10086621151E+03  0.13871056138E+03  0.95218838538E+02 0.  0.
        -13    1    3    3    0    0 -0.36189934074E+02  0.14729199055E+01 -0.95445783711E+02  0.10208716678E+03  0.10570000000E+00 0. -1.
         13    1    3    3    0    0  0.36189934074E+02 -0.14729199055E+01 -0.54204277989E+01  0.36623394591E+02  0.10570000000E+00 0.  1.
<mgrwt>
<rscale>  0 0.95218839E+02</rscale>
<asrwt>0</asrwt>
<pdfrwt beam="2">  1        1 0.18428982E-01 0.95218839E+02</pdfrwt>
<pdfrwt beam="1">  1       -1 0.29111039E-02 0.95218839E+02</pdfrwt>
<totfact> 0.95711956E+04</totfact>
</mgrwt>
</event>
<event>
 5    1  0.2734570E+000  0.8931145E+02  0.7818608E-02  0.1304528E+00
          1   -1    0    0  501    0  0.00000000000E+00  0.00000000000E+00  0.74903268303E+02  0.74903268449E+02  0.46700000000E-02 0. -1.
         -1   -1    0    0    0  501 -0.00000000000E+00 -0.00000000000E+00 -0.26622784276E+02  0.26622784685E+02  0.46700000000E-02 0.  1.
         23    2    1    2    0    0  0.00000000000E+00  0.00000000000E+00  0.48280484027E+02  0.10152605313E+03  0.89311445667E+02 0.  0.
        -13    1    3    3    0    0 -0.14813080888E+02 -0.32048151329E+02  0.55222190545E+02  0.65543976612E+02  0.10570000000E+00 0. -1.
         13    1    3    3    0    0  0.14813080888E+02  0.32048151329E+02 -0.69417065176E+01  0.35982076522E+02  0.10570000000E+00 0.  1.
<mgrwt>
<rscale>  0 0.89311446E+02</rscale>
<asrwt>0</asrwt>
<pdfrwt beam="1">  1        1 0.11523579E-01 0.89311446E+02</pdfrwt>
<pdfrwt beam="2">  1       -1 0.40958131E-02 0.89311446E+02</pdfrwt>
<totfact> 0.10552997E+05</totfact>
</mgrwt>
</event>
<event>
 5    1  0.2734570E+000  0.9244481E+02  0.7818608E-02  0.1297037E+00
         -1   -1    0    0    0  501 -0.00000000000E+00  0.00000000000E+00  0.19874973260E+02  0.19874973809E+02  0.46700000000E-02 0.  1.
          1   -1    0    0  501    0  0.00000000000E+00 -0.00000000000E+00 -0.10749754351E+03  0.10749754361E+03  0.46700000000E-02 0. -1.
         23    2    1    2    0    0  0.00000000000E+00  0.00000000000E+00 -0.87622570247E+02  0.12737251742E+03  0.92444812599E+02 0.  0.
        -13    1    3    3    0    0 -0.30764996502E+02  0.23874881835E+02 -0.95036589241E+01  0.40085230421E+02  0.10570000000E+00 0.  1.
         13    1    3    3    0    0  0.30764996502E+02 -0.23874881835E+02 -0.78118911323E+02  0.87287286997E+02  0.10570000000E+00 0. -1.
<mgrwt>
<rscale>  0 0.92444813E+02</rscale>
<asrwt>0</asrwt>
<pdfrwt beam="2">  1        1 0.16538083E-01 0.92444813E+02</pdfrwt>
<pdfrwt beam="1">  1       -1 0.30576883E-02 0.92444813E+02</pdfrwt>
<totfact> 0.10182054E+05</totfact>
</mgrwt>
</event>
<event>
 5    1  0.2734570E+000  0.1050806E+03  0.7818608E-02  0.1269961E+00
         -1   -1    0    0    0  501 -0.00000000000E+00  0.00000000000E+00  0.16040988640E+03  0.16040988647E+03  0.46700000000E-02 0.  1.
          1   -1    0    0  501    0  0.00000000000E+00 -0.00000000000E+00 -0.17208924871E+02  0.17208925505E+02  0.46700000000E-02 0. -1.
         23    2    1    2    0    0  0.00000000000E+00  0.00000000000E+00  0.14320096153E+03  0.17761881198E+03  0.10508057377E+03 0.  0.
        -13    1    3    3    0    0 -0.39456690168E+01  0.44903213152E+02  0.11722646195E+03  0.12559427299E+03  0.10570000000E+00 0.  1.
         13    1    3    3    0    0  0.39456690168E+01 -0.44903213152E+02  0.25974499586E+02  0.52024538985E+02  0.10570000000E+00 0. -1.
<mgrwt>
<rscale>  0 0.10508057E+03</rscale>
<asrwt>0</asrwt>
<pdfrwt beam="2">  1        1 0.26475269E-02 0.10508057E+03</pdfrwt>
<pdfrwt beam="1">  1       -1 0.24678444E-01 0.10508057E+03</pdfrwt>
<totfact> 0.50829107E+04</totfact>
</mgrwt>
</event>
<event>
 5    1  0.2734570E+000  0.7772561E+02  0.7818608E-02  0.1335633E+00
          1   -1    0    0  501    0  0.00000000000E+00  0.00000000000E+00  0.77965589038E+01  0.77965603024E+01  0.46700000000E-02 0. -1.
         -1   -1    0    0    0  501 -0.00000000000E+00 -0.00000000000E+00 -0.19371589116E+03  0.19371589122E+03  0.46700000000E-02 0.  1.
         23    2    1    2    0    0  0.00000000000E+00  0.00000000000E+00 -0.18591933226E+03  0.20151245152E+03  0.77725607174E+02 0.  0.
        -13    1    3    3    0    0 -0.15679822926E+02  0.35558409098E+02 -0.92385617043E+02  0.10022659684E+03  0.10570000000E+00 0.  1.
         13    1    3    3    0    0  0.15679822926E+02 -0.35558409098E+02 -0.93533715217E+02  0.10128585469E+03  0.10570000000E+00 0. -1.
<mgrwt>
<rscale>  0 0.77725607E+02</rscale>
<asrwt>0</asrwt>
<pdfrwt beam="1">  1        1 0.11994709E-02 0.77725607E+02</pdfrwt>
<pdfrwt beam="2">  1       -1 0.29802441E-01 0.77725607E+02</pdfrwt>
<totfact> 0.10592999E+05</totfact>
</mgrwt>
</event>
<event>
 5    1  0.2734570E+000  0.9072189E+02  0.7818608E-02  0.1301113E+00
         -1   -1    0    0    0  501 -0.00000000000E+00  0.00000000000E+00  0.15397320566E+02  0.15397321275E+02  0.46700000000E-02 0.  1.
          1   -1    0    0  501    0  0.00000000000E+00 -0.00000000000E+00 -0.13363463838E+03  0.13363463846E+03  0.46700000000E-02 0. -1.
         23    2    1    2    0    0  0.00000000000E+00  0.00000000000E+00 -0.11823731781E+03  0.14903195973E+03  0.90721892060E+02 0.  0.
        -13    1    3    3    0    0  0.25653794262E+02  0.21267268660E+02 -0.85611168740E+01  0.34405199766E+02  0.10570000000E+00 0.  1.
         13    1    3    3    0    0 -0.25653794262E+02 -0.21267268660E+02 -0.10967620094E+03  0.11462675997E+03  0.10570000000E+00 0. -1.
<mgrwt>
<rscale>  0 0.90721892E+02</rscale>
<asrwt>0</asrwt>
<pdfrwt beam="2">  1        1 0.20559174E-01 0.90721892E+02</pdfrwt>
<pdfrwt beam="1">  1       -1 0.23688187E-02 0.90721892E+02</pdfrwt>
<totfact> 0.11130108E+05</totfact>
</mgrwt>
</event>
<event>
 5    1  0.2734570E+000  0.8801887E+02  0.7818608E-02  0.1307721E+00
         -1   -1    0    0    0  501 -0.00000000000E+00  0.00000000000E+00  0.48471039778E+02  0.48471040003E+02  0.46700000000E-02 0.  1.
          1   -1    0    0  501    0  0.00000000000E+00 -0.00000000000E+00 -0.39958506759E+02  0.39958507032E+02  0.46700000000E-02 0. -1.
         23    2    1    2    0    0  0.00000000000E+00  0.00000000000E+00  0.85125330186E+01  0.88429547035E+02  0.88018870536E+02 0.  0.
        -13    1    3    3    0    0  0.82311654362E+01  0.39663301212E+02  0.21537968538E+02  0.45878369726E+02  0.10570000000E+00 0.  1.
         13    1    3    3    0    0 -0.82311654362E+01 -0.39663301212E+02 -0.13025435520E+02  0.42551177310E+02  0.10570000000E+00 0. -1.
<mgrwt>
<rscale>  0 0.88018871E+02</rscale>
<asrwt>0</asrwt>
<pdfrwt beam="2">  1        1 0.61474626E-02 0.88018871E+02</pdfrwt>
<pdfrwt beam="1">  1       -1 0.74570831E-02 0.88018871E+02</pdfrwt>
<totfact> 0.10010230E+05</totfact>
</mgrwt>
</event>
<event>
 5    1  0.2734570E+000  0.9033312E+02  0.7818608E-02  0.1302047E+00
         -1   -1    0    0    0  501 -0.00000000000E+00  0.00000000000E+00  0.66753647163E+02  0.66753647327E+02  0.46700000000E-02 0.  1.
          1   -1    0    0  501    0  0.00000000000E+00 -0.00000000000E+00 -0.30560396299E+02  0.30560396656E+02  0.46700000000E-02 0. -1.
         23    2    1    2    0    0  0.00000000000E+00  0.00000000000E+00  0.36193250865E+02  0.97314043983E+02  0.90333115457E+02 0.  0.
        -13    1    3    3    0    0  0.74953022769E+01  0.22120499338E+02  0.59743081303E+02  0.64146262426E+02  0.10570000000E+00 0.  1.
         13    1    3    3    0    0 -0.74953022769E+01 -0.22120499338E+02 -0.23549830438E+02  0.33167781556E+02  0.10570000000E+00 0. -1.
<mgrwt>
<rscale>  0 0.90333115E+02</rscale>
<asrwt>0</asrwt>
<pdfrwt beam="2">  1        1 0.47015995E-02 0.90333115E+02</pdfrwt>
<pdfrwt beam="1">  1       -1 0.10269792E-01 0.90333115E+02</pdfrwt>
<totfact> 0.89288504E+04</totfact>
</mgrwt>
</event>
<event>
 5    1  0.2734570E+000  0.9445868E+02  0.7818608E-02  0.1292400E+00
         -1   -1    0    0    0  501 -0.00000000000E+00  0.00000000000E+00  0.83660239340E+01  0.83660252374E+01  0.46700000000E-02 0.  1.
          1   -1    0    0  501    0  0.00000000000E+00 -0.00000000000E+00 -0.26662730353E+03  0.26662730357E+03  0.46700000000E-02 0. -1.
         23    2    1    2    0    0  0.00000000000E+00  0.00000000000E+00 -0.25826127960E+03  0.27499332881E+03  0.94458680652E+02 0.  0.
        -13    1    3    3    0    0 -0.23776144503E+02  0.39811169343E+02 -0.15522905876E+03  0.16200711746E+03  0.10570000000E+00 0. -1.
         13    1    3    3    0    0  0.23776144503E+02 -0.39811169343E+02 -0.10303222083E+03  0.11298621135E+03  0.10570000000E+00 0.  1.
<mgrwt>
<rscale>  0 0.94458681E+02</rscale>
<asrwt>0</asrwt>
<pdfrwt beam="2">  1        1 0.41019579E-01 0.94458681E+02</pdfrwt>
<pdfrwt beam="1">  1       -1 0.12870809E-02 0.94458681E+02</pdfrwt>
<totfact> 0.11392949E+05</totfact>
</mgrwt>
</event>
<event>
 5    1  0.2734570E+000  0.8924190E+02  0.7818608E-02  0.1304698E+00
          1   -1    0    0  501    0  0.00000000000E+00  0.00000000000E+00  0.22777577932E+03  0.22777577937E+03  0.46700000000E-02 0. -1.
         -1   -1    0    0    0  501 -0.00000000000E+00 -0.00000000000E+00 -0.87411791498E+01  0.87411803973E+01  0.46700000000E-02 0.  1.
         23    2    1    2    0    0  0.00000000000E+00  0.00000000000E+00  0.21903460017E+03  0.23651695976E+03  0.89241897026E+02 0.  0.
        -13    1    3    3    0    0  0.69586500517E+00  0.40330434367E+02  0.58953693094E+02  0.71432326479E+02  0.10570000000E+00 0.  1.
         13    1    3    3    0    0 -0.69586500517E+00 -0.40330434367E+02  0.16008090708E+03  0.16508463329E+03  0.10570000000E+00 0. -1.
<mgrwt>
<rscale>  0 0.89241897E+02</rscale>
<asrwt>0</asrwt>
<pdfrwt beam="1">  1        1 0.35042428E-01 0.89241897E+02</pdfrwt>
<pdfrwt beam="2">  1       -1 0.13447969E-02 0.89241897E+02</pdfrwt>
<totfact> 0.12860499E+05</totfact>
</mgrwt>
</event>
<event>
 5    1  0.2734570E+000  0.7293659E+02  0.7818608E-02  0.1350382E+00
          1   -1    0    0  501    0  0.00000000000E+00  0.00000000000E+00  0.79832013295E+01  0.79832026955E+01  0.46700000000E-02 0.  1.
         -1   -1    0    0    0  501 -0.00000000000E+00 -0.00000000000E+00 -0.16659186284E+03  0.16659186291E+03  0.46700000000E-02 0. -1.
         23    2    1    2    0    0  0.00000000000E+00  0.00000000000E+00 -0.15860866151E+03  0.17457506560E+03  0.72936589059E+02 0.  0.
        -13    1    3    3    0    0 -0.33380924780E+02  0.81060301309E+00 -0.44209921835E+02  0.55402812000E+02  0.10570000000E+00 0.  1.
         13    1    3    3    0    0  0.33380924780E+02 -0.81060301309E+00 -0.11439873968E+03  0.11917225360E+03  0.10570000000E+00 0. -1.
<mgrwt>
<rscale>  0 0.72936589E+02</rscale>
<asrwt>0</asrwt>
<pdfrwt beam="1">  1        1 0.12281851E-02 0.72936589E+02</pdfrwt>
<pdfrwt beam="2">  1       -1 0.25629515E-01 0.72936589E+02</pdfrwt>
<totfact> 0.12971523E+05</totfact>
</mgrwt>
</event>
<event>
 4    1  0.2734570E+000  0.5117262E+02  0.7818608E-02  0.1439117E+00
         -1   -1    0    0    0  501 -0.00000000000E+00  0.00000000000E+00  0.14611234309E+03  0.14611234316E+03  0.46700000000E-02 0. -1.
          1   -1    0    0  501    0  0.00000000000E+00 -0.00000000000E+00 -0.44805181468E+01  0.44805205805E+01  0.46700000000E-02 0.  1.
        -13    1    1    2    0    0  0.22509364833E+02 -0.63516459401E+01  0.10134681936E+03  0.10401059503E+03  0.10570000000E+00 0. -1.
         13    1    1    2    0    0 -0.22509364833E+02  0.63516459401E+01  0.40285005575E+02  0.46582268708E+02  0.10570000000E+00 0.  1.
<mgrwt>
<rscale>  0 0.51172617E+02</rscale>
<asrwt>0</asrwt>
<pdfrwt beam="2">  1        1 0.68931073E-03 0.51172617E+02</pdfrwt>
<pdfrwt beam="1">  1       -1 0.22478821E-01 0.51172617E+02</pdfrwt>
<totfact> 0.32697328E+05</totfact>
</mgrwt>
</event>
<event>
 5    1  0.2734570E+000  0.8919127E+02  0.7818608E-02  0.1304822E+00
          1   -1    0    0  501    0  0.00000000000E+00  0.00000000000E+00  0.13339093564E+03  0.13339093572E+03  0.46700000000E-02 0. -1.
         -1   -1    0    0    0  501 -0.00000000000E+00 -0.00000000000E+00 -0.14909337685E+02  0.14909338416E+02  0.46700000000E-02 0.  1.
         23    2    1    2    0    0  0.00000000000E+00  0.00000000000E+00  0.11848159795E+03  0.14830027414E+03  0.89191267820E+02 0.  0.
        -13    1    3    3    0    0  0.27165762314E+02 -0.91009847524E+00  0.11802577780E+03  0.12111524396E+03  0.10570000000E+00 0. -1.
         13    1    3    3    0    0 -0.27165762314E+02  0.91009847524E+00  0.45582015497E+00  0.27185030179E+02  0.10570000000E+00 0.  1.
<mgrwt>
<rscale>  0 0.89191268E+02</rscale>
<asrwt>0</asrwt>
<pdfrwt beam="1">  1        1 0.20521682E-01 0.89191268E+02</pdfrwt>
<pdfrwt beam="2">  1       -1 0.22937444E-02 0.89191268E+02</pdfrwt>
<totfact> 0.11649247E+05</totfact>
</mgrwt>
</event>
<event>
 5    1  0.2734570E+000  0.9058787E+02  0.7818608E-02  0.1301434E+00
         -1   -1    0    0    0  501 -0.00000000000E+00  0.00000000000E+00  0.39558312871E+02  0.39558313147E+02  0.46700000000E-02 0.  1.
          1   -1    0    0  501    0  0.00000000000E+00 -0.00000000000E+00 -0.51861171814E+02  0.51861172024E+02  0.46700000000E-02 0. -1.
         23    2    1    2    0    0  0.00000000000E+00  0.00000000000E+00 -0.12302858943E+02  0.91419485171E+02  0.90587868563E+02 0.  0.
        -13    1    3    3    0    0  0.32951351205E+02  0.29368733400E+02  0.41013281489E+01  0.44329968563E+02  0.10570000000E+00 0. -1.
         13    1    3    3    0    0 -0.32951351205E+02 -0.29368733400E+02 -0.16404187092E+02  0.47089516608E+02  0.10570000000E+00 0.  1.
<mgrwt>
<rscale>  0 0.90587869E+02</rscale>
<asrwt>0</asrwt>
<pdfrwt beam="2">  1        1 0.79786418E-02 0.90587869E+02</pdfrwt>
<pdfrwt beam="1">  1       -1 0.60858943E-02 0.90587869E+02</pdfrwt>
<totfact> 0.95998435E+04</totfact>
</mgrwt>
</event>
<event>
 5    1  0.2734570E+000  0.9129332E+02  0.7818608E-02  0.1299750E+00
         -1   -1    0    0    0  501 -0.00000000000E+00  0.00000000000E+00  0.12825210910E+02  0.12825211760E+02  0.46700000000E-02 0.  1.
          1   -1    0    0  501    0  0.00000000000E+00 -0.00000000000E+00 -0.16246263718E+03  0.16246263725E+03  0.46700000000E-02 0. -1.
         23    2    1    2    0    0  0.00000000000E+00  0.00000000000E+00 -0.14963742627E+03  0.17528784901E+03  0.91293322149E+02 0.  0.
        -13    1    3    3    0    0 -0.12720601204E+02  0.43825653735E+02 -0.72800489553E+02  0.85921033932E+02  0.10570000000E+00 0.  1.
         13    1    3    3    0    0  0.12720601204E+02 -0.43825653735E+02 -0.76836936722E+02  0.89366815080E+02  0.10570000000E+00 0. -1.
<mgrwt>
<rscale>  0 0.91293322E+02</rscale>
<asrwt>0</asrwt>
<pdfrwt beam="2">  1        1 0.24994251E-01 0.91293322E+02</pdfrwt>
<pdfrwt beam="1">  1       -1 0.19731096E-02 0.91293322E+02</pdfrwt>
<totfact> 0.11341275E+05</totfact>
</mgrwt>
</event>
<event>
 5    1  0.2734570E+000  0.9069944E+02  0.7818608E-02  0.1301167E+00
          1   -1    0    0  501    0  0.00000000000E+00  0.00000000000E+00  0.72872385983E+02  0.72872386133E+02  0.46700000000E-02 0. -1.
         -1   -1    0    0    0  501 -0.00000000000E+00 -0.00000000000E+00 -0.28221896140E+02  0.28221896526E+02  0.46700000000E-02 0.  1.
         23    2    1    2    0    0  0.00000000000E+00  0.00000000000E+00  0.44650489844E+02  0.10109428266E+03  0.90699436289E+02 0.  0.
        -13    1    3    3    0    0  0.59496979270E+01 -0.25173763695E+02 -0.19192482174E+02  0.32209933693E+02  0.10570000000E+00 0.  1.
         13    1    3    3    0    0 -0.59496979270E+01  0.25173763695E+02  0.63842972018E+02  0.68884348967E+02  0.10570000000E+00 0. -1.
<mgrwt>
<rscale>  0 0.90699436E+02</rscale>
<asrwt>0</asrwt>
<pdfrwt beam="1">  1        1 0.11211136E-01 0.90699436E+02</pdfrwt>
<pdfrwt beam="2">  1       -1 0.43418303E-02 0.90699436E+02</pdfrwt>
<totfact> 0.10072799E+05</totfact>
</mgrwt>
</event>
<event>
 5    1  0.2734570E+000  0.9264051E+02  0.7818608E-02  0.1296580E+00
          1   -1    0    0  501    0  0.00000000000E+00  0.00000000000E+00  0.71614137319E+02  0.71614137471E+02  0.46700000000E-02 0. -1.
         -1   -1    0    0    0  501 -0.00000000000E+00 -0.00000000000E+00 -0.29960086887E+02  0.29960087251E+02  0.46700000000E-02 0.  1.
         23    2    1    2    0    0  0.00000000000E+00  0.00000000000E+00  0.41654050432E+02  0.10157422472E+03  0.92640505237E+02 0.  0.
        -13    1    3    3    0    0  0.29282858861E+02 -0.28897867144E+01  0.60049927897E+02  0.66871830417E+02  0.10570000000E+00 0. -1.
         13    1    3    3    0    0 -0.29282858861E+02  0.28897867144E+01 -0.18395877466E+02  0.34702394305E+02  0.10570000000E+00 0.  1.
<mgrwt>
<rscale>  0 0.92640505E+02</rscale>
<asrwt>0</asrwt>
<pdfrwt beam="1">  1        1 0.11017560E-01 0.92640505E+02</pdfrwt>
<pdfrwt beam="2">  1       -1 0.46092442E-02 0.92640505E+02</pdfrwt>
<totfact> 0.94755351E+04</totfact>
</mgrwt>
</event>
<event>
 5    1  0.2734570E+000  0.9041665E+02  0.7818608E-02  0.1301846E+00
          1   -1    0    0  501    0  0.00000000000E+00  0.00000000000E+00  0.11462710952E+02  0.11462711903E+02  0.46700000000E-02 0. -1.
         -1   -1    0    0    0  501 -0.00000000000E+00 -0.00000000000E+00 -0.17829924561E+03  0.17829924567E+03  0.46700000000E-02 0.  1.
         23    2    1    2    0    0  0.00000000000E+00  0.00000000000E+00 -0.16683653466E+03  0.18976195757E+03  0.90416653586E+02 0.  0.
        -13    1    3    3    0    0  0.25310091594E+02 -0.37458701581E+02 -0.83760423346E+02  0.95181798430E+02  0.10570000000E+00 0.  1.
         13    1    3    3    0    0 -0.25310091594E+02  0.37458701581E+02 -0.83076111312E+02  0.94580159145E+02  0.10570000000E+00 0. -1.
<mgrwt>
<rscale>  0 0.90416654E+02</rscale>
<asrwt>0</asrwt>
<pdfrwt beam="1">  1        1 0.17634942E-02 0.90416654E+02</pdfrwt>
<pdfrwt beam="2">  1       -1 0.27430651E-01 0.90416654E+02</pdfrwt>
<totfact> 0.73225559E+04</totfact>
</mgrwt>
</event>
<event>
 5    1  0.2734570E+000  0.8893093E+02  0.7818608E-02  0.1305461E+00
         -1   -1    0    0    0  501 -0.00000000000E+00  0.00000000000E+00  0.10659026512E+03  0.10659026522E+03  0.46700000000E-02 0.  1.
          1   -1    0    0  501    0  0.00000000000E+00 -0.00000000000E+00 -0.18549326649E+02  0.18549327237E+02  0.46700000000E-02 0. -1.
         23    2    1    2    0    0  0.00000000000E+00  0.00000000000E+00  0.88040938467E+02  0.12513959245E+03  0.88930932491E+02 0.  0.
        -13    1    3    3    0    0 -0.14805767560E+02  0.23518840849E+02 -0.48226008322E+01  0.28206653102E+02  0.10570000000E+00 0. -1.
         13    1    3    3    0    0  0.14805767560E+02 -0.23518840849E+02  0.92863539299E+02  0.96932939353E+02  0.10570000000E+00 0.  1.
<mgrwt>
<rscale>  0 0.88930932E+02</rscale>
<asrwt>0</asrwt>
<pdfrwt beam="2">  1        1 0.28537427E-02 0.88930932E+02</pdfrwt>
<pdfrwt beam="1">  1       -1 0.16398502E-01 0.88930932E+02</pdfrwt>
<totfact> 0.85729214E+04</totfact>
</mgrwt>
</event>
<event>
 5    1  0.2734570E+000  0.9102491E+02  0.7818608E-02  0.1300389E+00
          1   -1    0    0  501    0  0.00000000000E+00  0.00000000000E+00  0.18738132925E+02  0.18738133507E+02  0.46700000000E-02 0. -1.
         -1   -1    0    0    0  501 -0.00000000000E+00 -0.00000000000E+00 -0.11054376259E+03  0.11054376269E+03  0.46700000000E-02 0.  1.
         23    2    1    2    0    0  0.00000000000E+00  0.00000000000E+00 -0.91805629668E+02  0.12928189620E+03  0.91024914424E+02 0.  0.
        -13    1    3    3    0    0 -0.32749343220E+02 -0.14993675510E+00 -0.10155276341E+01  0.32765598289E+02  0.10570000000E+00 0. -1.
         13    1    3    3    0    0  0.32749343220E+02  0.14993675510E+00 -0.90790102034E+02  0.96516297910E+02  0.10570000000E+00 0.  1.
<mgrwt>
<rscale>  0 0.91024914E+02</rscale>
<asrwt>0</asrwt>
<pdfrwt beam="1">  1        1 0.28827898E-02 0.91024914E+02</pdfrwt>
<pdfrwt beam="2">  1       -1 0.17006732E-01 0.91024914E+02</pdfrwt>
<totfact> 0.80175065E+04</totfact>
</mgrwt>
</event>
<event>
 5    1  0.2734570E+000  0.8683355E+02  0.7818608E-02  0.1310706E+00
          1   -1    0    0  501    0  0.00000000000E+00  0.00000000000E+00  0.22248826115E+02  0.22248826605E+02  0.46700000000E-02 0. -1.
         -1   -1    0    0    0  501 -0.00000000000E+00 -0.00000000000E+00 -0.84724308714E+02  0.84724308843E+02  0.46700000000E-02 0.  1.
         23    2    1    2    0    0  0.00000000000E+00  0.00000000000E+00 -0.62475482599E+02  0.10697313545E+03  0.86833552165E+02 0.  0.
        -13    1    3    3    0    0 -0.22149477487E+01 -0.29419305458E+02  0.80028360626E+01  0.30568907155E+02  0.10570000000E+00 0.  1.
         13    1    3    3    0    0  0.22149477487E+01  0.29419305458E+02 -0.70478318662E+02  0.76404228293E+02  0.10570000000E+00 0. -1.
<mgrwt>
<rscale>  0 0.86833552E+02</rscale>
<asrwt>0</asrwt>
<pdfrwt beam="1">  1        1 0.34228964E-02 0.86833552E+02</pdfrwt>
<pdfrwt beam="2">  1       -1 0.13034509E-01 0.86833552E+02</pdfrwt>
<totfact> 0.94981580E+04</totfact>
</mgrwt>
</event>
<event>
 5    1  0.2734570E+000  0.9020256E+02  0.7818608E-02  0.1302362E+00
         -1   -1    0    0    0  501 -0.00000000000E+00  0.00000000000E+00  0.14876526428E+02  0.14876527161E+02  0.46700000000E-02 0.  1.
          1   -1    0    0  501    0  0.00000000000E+00 -0.00000000000E+00 -0.13673388498E+03  0.13673388506E+03  0.46700000000E-02 0. -1.
         23    2    1    2    0    0  0.00000000000E+00  0.00000000000E+00 -0.12185735856E+03  0.15161041223E+03  0.90202556842E+02 0.  0.
        -13    1    3    3    0    0  0.50761133266E+01  0.29970544913E+02 -0.11692943692E+03  0.12081599596E+03  0.10570000000E+00 0. -1.
         13    1    3    3    0    0 -0.50761133266E+01 -0.29970544913E+02 -0.49279216349E+01  0.30794416264E+02  0.10570000000E+00 0.  1.
<mgrwt>
<rscale>  0 0.90202557E+02</rscale>
<asrwt>0</asrwt>
<pdfrwt beam="2">  1        1 0.21035982E-01 0.90202557E+02</pdfrwt>
<pdfrwt beam="1">  1       -1 0.22886965E-02 0.90202557E+02</pdfrwt>
<totfact> 0.11350425E+05</totfact>
</mgrwt>
</event>
<event>
 5    1  0.2734570E+000  0.1054101E+03  0.7818608E-02  0.1269314E+00
         -1   -1    0    0    0  501 -0.00000000000E+00  0.00000000000E+00  0.28655186483E+02  0.28655186864E+02  0.46700000000E-02 0.  1.
          1   -1    0    0  501    0  0.00000000000E+00 -0.00000000000E+00 -0.96939575279E+02  0.96939575392E+02  0.46700000000E-02 0. -1.
         23    2    1    2    0    0  0.00000000000E+00  0.00000000000E+00 -0.68284388796E+02  0.12559476226E+03  0.10541008753E+03 0.  0.
        -13    1    3    3    0    0  0.29365277851E+02 -0.26827404755E+02 -0.75343903233E+02  0.85198263574E+02  0.10570000000E+00 0. -1.
         13    1    3    3    0    0 -0.29365277851E+02  0.26827404755E+02  0.70595144367E+01  0.40396498682E+02  0.10570000000E+00 0.  1.
<mgrwt>
<rscale>  0 0.10541009E+03</rscale>
<asrwt>0</asrwt>
<pdfrwt beam="2">  1        1 0.14913781E-01 0.10541009E+03</pdfrwt>
<pdfrwt beam="1">  1       -1 0.44084903E-02 0.10541009E+03</pdfrwt>
<totfact> 0.69668543E+04</totfact>
</mgrwt>
</event>
<event>
 5    1  0.2734570E+000  0.8961031E+02  0.7818608E-02  0.1303798E+00
         -1   -1    0    0    0  501 -0.00000000000E+00  0.00000000000E+00  0.86864844330E+02  0.86864844455E+02  0.46700000000E-02 0.  1.
          1   -1    0    0  501    0  0.00000000000E+00 -0.00000000000E+00 -0.23110638017E+02  0.23110638489E+02  0.46700000000E-02 0. -1.
         23    2    1    2    0    0  0.00000000000E+00  0.00000000000E+00  0.63754206313E+02  0.10997548294E+03  0.89610312053E+02 0.  0.
        -13    1    3    3    0    0 -0.13338487351E+02  0.28755755642E+02  0.70738599648E+02  0.77516252360E+02  0.10570000000E+00 0.  1.
         13    1    3    3    0    0  0.13338487351E+02 -0.28755755642E+02 -0.69843933350E+01  0.32459230584E+02  0.10570000000E+00 0. -1.
<mgrwt>
<rscale>  0 0.89610312E+02</rscale>
<asrwt>0</asrwt>
<pdfrwt beam="2">  1        1 0.35554828E-02 0.89610312E+02</pdfrwt>
<pdfrwt beam="1">  1       -1 0.13363822E-01 0.89610312E+02</pdfrwt>
<totfact> 0.87252347E+04</totfact>
</mgrwt>
</event>
<event>
 5    1  0.2734570E+000  0.9135302E+02  0.7818608E-02  0.1299608E+00
          1   -1    0    0  501    0  0.00000000000E+00  0.00000000000E+00  0.14932487714E+03  0.14932487721E+03  0.46700000000E-02 0. -1.
         -1   -1    0    0    0  501 -0.00000000000E+00 -0.00000000000E+00 -0.13971842284E+02  0.13971843065E+02  0.46700000000E-02 0.  1.
         23    2    1    2    0    0  0.00000000000E+00  0.00000000000E+00  0.13535303485E+03  0.16329672028E+03  0.91353022987E+02 0.  0.
        -13    1    3    3    0    0 -0.28851969943E+02 -0.18574425358E+02  0.12156668134E+03  0.12631672349E+03  0.10570000000E+00 0. -1.
         13    1    3    3    0    0  0.28851969943E+02  0.18574425358E+02  0.13786353511E+02  0.36979996790E+02  0.10570000000E+00 0.  1.
<mgrwt>
<rscale>  0 0.91353023E+02</rscale>
<asrwt>0</asrwt>
<pdfrwt beam="1">  1        1 0.22973057E-01 0.91353023E+02</pdfrwt>
<pdfrwt beam="2">  1       -1 0.21495143E-02 0.91353023E+02</pdfrwt>
<totfact> 0.11145717E+05</totfact>
</mgrwt>
</event>
<event>
 5    1  0.2734570E+000  0.8921776E+02  0.7818608E-02  0.1304757E+00
         -1   -1    0    0    0  501 -0.00000000000E+00  0.00000000000E+00  0.28124631135E+02  0.28124631523E+02  0.46700000000E-02 0.  1.
          1   -1    0    0  501    0  0.00000000000E+00 -0.00000000000E+00 -0.70754785331E+02  0.70754785485E+02  0.46700000000E-02 0. -1.
         23    2    1    2    0    0  0.00000000000E+00  0.00000000000E+00 -0.42630154196E+02  0.98879417008E+02  0.89217762026E+02 0.  0.
        -13    1    3    3    0    0 -0.42551460365E+01  0.38673094723E+02  0.28707744585E+01  0.39012396001E+02  0.10570000000E+00 0.  1.
         13    1    3    3    0    0  0.42551460365E+01 -0.38673094723E+02 -0.45500928655E+02  0.59867021006E+02  0.10570000000E+00 0. -1.
<mgrwt>
<rscale>  0 0.89217762E+02</rscale>
<asrwt>0</asrwt>
<pdfrwt beam="2">  1        1 0.10885352E-01 0.89217762E+02</pdfrwt>
<pdfrwt beam="1">  1       -1 0.43268664E-02 0.89217762E+02</pdfrwt>
<totfact> 0.10491443E+05</totfact>
</mgrwt>
</event>
<event>
 5    1  0.2734570E+000  0.9198967E+02  0.7818608E-02  0.1298104E+00
         -1   -1    0    0    0  501 -0.00000000000E+00  0.00000000000E+00  0.31336970483E+03  0.31336970487E+03  0.46700000000E-02 0.  1.
          1   -1    0    0  501    0  0.00000000000E+00 -0.00000000000E+00 -0.67508911014E+01  0.67508927167E+01  0.46700000000E-02 0. -1.
         23    2    1    2    0    0  0.00000000000E+00  0.00000000000E+00  0.30661881373E+03  0.32012059759E+03  0.91989673680E+02 0.  0.
        -13    1    3    3    0    0 -0.40830651799E+02 -0.83071589983E+01  0.85529350312E+02  0.95139013839E+02  0.10570000000E+00 0. -1.
         13    1    3    3    0    0  0.40830651799E+02  0.83071589983E+01  0.22108946342E+03  0.22498158375E+03  0.10570000000E+00 0.  1.
<mgrwt>
<rscale>  0 0.91989674E+02</rscale>
<asrwt>0</asrwt>
<pdfrwt beam="2">  1        1 0.10385990E-02 0.91989674E+02</pdfrwt>
<pdfrwt beam="1">  1       -1 0.48210711E-01 0.91989674E+02</pdfrwt>
<totfact> 0.58168866E+04</totfact>
</mgrwt>
</event>
<event>
 5    1  0.2734570E+000  0.9008881E+02  0.7818608E-02  0.1302637E+00
         -1   -1    0    0    0  501 -0.00000000000E+00  0.00000000000E+00  0.12226542722E+03  0.12226542731E+03  0.46700000000E-02 0.  1.
          1   -1    0    0  501    0  0.00000000000E+00 -0.00000000000E+00 -0.16595028311E+02  0.16595028968E+02  0.46700000000E-02 0. -1.
         23    2    1    2    0    0  0.00000000000E+00  0.00000000000E+00  0.10567039891E+03  0.13886045628E+03  0.90088806809E+02 0.  0.
        -13    1    3    3    0    0 -0.29509453927E+02 -0.23309892522E+02  0.91054666185E+02  0.98514579465E+02  0.10570000000E+00 0.  1.
         13    1    3    3    0    0  0.29509453927E+02  0.23309892522E+02  0.14615732729E+02  0.40345876818E+02  0.10570000000E+00 0. -1.
<mgrwt>
<rscale>  0 0.90088807E+02</rscale>
<asrwt>0</asrwt>
<pdfrwt beam="2">  1        1 0.25530813E-02 0.90088807E+02</pdfrwt>
<pdfrwt beam="1">  1       -1 0.18810066E-01 0.90088807E+02</pdfrwt>
<totfact> 0.80693611E+04</totfact>
</mgrwt>
</event>
<event>
 5    1  0.2734570E+000  0.9174588E+02  0.7818608E-02  0.1298678E+00
          1   -1    0    0  501    0  0.00000000000E+00  0.00000000000E+00  0.16512362749E+02  0.16512363409E+02  0.46700000000E-02 0. -1.
         -1   -1    0    0    0  501 -0.00000000000E+00 -0.00000000000E+00 -0.12743945454E+03  0.12743945462E+03  0.46700000000E-02 0.  1.
         23    2    1    2    0    0  0.00000000000E+00  0.00000000000E+00 -0.11092709179E+03  0.14395181803E+03  0.91745878501E+02 0.  0.
        -13    1    3    3    0    0 -0.41943674940E+02  0.13803981371E+02 -0.35961244825E+02  0.56947731044E+02  0.10570000000E+00 0. -1.
         13    1    3    3    0    0  0.41943674940E+02 -0.13803981371E+02 -0.74965846962E+02  0.87004086987E+02  0.10570000000E+00 0.  1.
<mgrwt>
<rscale>  0 0.91745879E+02</rscale>
<asrwt>0</asrwt>
<pdfrwt beam="1">  1        1 0.25403636E-02 0.91745879E+02</pdfrwt>
<pdfrwt beam="2">  1       -1 0.19606069E-01 0.91745879E+02</pdfrwt>
<totfact> 0.76312842E+04</totfact>
</mgrwt>
</event>
<event>
 5    1  0.2734570E+000  0.9386020E+02  0.7818608E-02  0.1293764E+00
          1   -1    0    0  501    0  0.00000000000E+00  0.00000000000E+00  0.25835496363E+03  0.25835496367E+03  0.46700000000E-02 0. -1.
         -1   -1    0    0    0  501 -0.00000000000E+00 -0.00000000000E+00 -0.85248378901E+01  0.85248391693E+01  0.46700000000E-02 0.  1.
         23    2    1    2    0    0  0.00000000000E+00  0.00000000000E+00  0.24983012574E+03  0.26687980284E+03  0.93860201563E+02 0.  0.
        -13    1    3    3    0    0  0.31077676729E+02 -0.27856562894E+02  0.18593930128E+03  0.19056559244E+03  0.10570000000E+00 0. -1.
         13    1    3    3    0    0 -0.31077676729E+02  0.27856562894E+02  0.63890824456E+02  0.76314210402E+02  0.10570000000E+00 0.  1.
<mgrwt>
<rscale>  0 0.93860202E+02</rscale>
<asrwt>0</asrwt>
<pdfrwt beam="1">  1        1 0.39746915E-01 0.93860202E+02</pdfrwt>
<pdfrwt beam="2">  1       -1 0.13115137E-02 0.93860202E+02</pdfrwt>
<totfact> 0.11516964E+05</totfact>
</mgrwt>
</event>
<event>
 5    1  0.2734570E+000  0.9266202E+02  0.7818608E-02  0.1296530E+00
         -1   -1    0    0    0  501 -0.00000000000E+00  0.00000000000E+00  0.17916306930E+02  0.17916307539E+02  0.46700000000E-02 0.  1.
          1   -1    0    0  501    0  0.00000000000E+00 -0.00000000000E+00 -0.11981053388E+03  0.11981053397E+03  0.46700000000E-02 0. -1.
         23    2    1    2    0    0  0.00000000000E+00  0.00000000000E+00 -0.10189422695E+03  0.13772684151E+03  0.92662016957E+02 0.  0.
        -13    1    3    3    0    0 -0.20675845327E+01 -0.39406563805E+02 -0.14862543415E+02  0.42167031505E+02  0.10570000000E+00 0.  1.
         13    1    3    3    0    0  0.20675845327E+01  0.39406563805E+02 -0.87031683535E+02  0.95559810005E+02  0.10570000000E+00 0. -1.
<mgrwt>
<rscale>  0 0.92662017E+02</rscale>
<asrwt>0</asrwt>
<pdfrwt beam="2">  1        1 0.18432389E-01 0.92662017E+02</pdfrwt>
<pdfrwt beam="1">  1       -1 0.27563550E-02 0.92662017E+02</pdfrwt>
<totfact> 0.10308242E+05</totfact>
</mgrwt>
</event>
<event>
 5    1  0.2734570E+000  0.9043579E+02  0.7818608E-02  0.1301800E+00
          1   -1    0    0  501    0  0.00000000000E+00  0.00000000000E+00  0.44124892747E+03  0.44124892749E+03  0.46700000000E-02 0. -1.
         -1   -1    0    0    0  501 -0.00000000000E+00 -0.00000000000E+00 -0.46337956734E+01  0.46337980266E+01  0.46700000000E-02 0.  1.
         23    2    1    2    0    0  0.00000000000E+00  0.00000000000E+00  0.43661513179E+03  0.44588272552E+03  0.90435787189E+02 0.  0.
        -13    1    3    3    0    0  0.14650025492E+02  0.42738294678E+02  0.22748078748E+03  0.23192392055E+03  0.10570000000E+00 0.  1.
         13    1    3    3    0    0 -0.14650025492E+02 -0.42738294678E+02  0.20913434431E+03  0.21395880496E+03  0.10570000000E+00 0. -1.
<mgrwt>
<rscale>  0 0.90435787E+02</rscale>
<asrwt>0</asrwt>
<pdfrwt beam="1">  1        1 0.67884449E-01 0.90435787E+02</pdfrwt>
<pdfrwt beam="2">  1       -1 0.71289184E-03 0.90435787E+02</pdfrwt>
<totfact> 0.13996298E+05</totfact>
</mgrwt>
</event>
<event>
 5    1  0.2734570E+000  0.8984466E+02  0.7818608E-02  0.1303228E+00
          1   -1    0    0  501    0  0.00000000000E+00  0.00000000000E+00  0.10707208496E+03  0.10707208506E+03  0.46700000000E-02 0. -1.
         -1   -1    0    0    0  501 -0.00000000000E+00 -0.00000000000E+00 -0.18847260513E+02  0.18847261092E+02  0.46700000000E-02 0.  1.
         23    2    1    2    0    0  0.00000000000E+00  0.00000000000E+00  0.88224824443E+02  0.12591934615E+03  0.89844655305E+02 0.  0.
        -13    1    3    3    0    0  0.17125703345E+02  0.18253190474E+01  0.10226097008E+03  0.10370119903E+03  0.10570000000E+00 0. -1.
         13    1    3    3    0    0 -0.17125703345E+02 -0.18253190474E+01 -0.14036145640E+02  0.22218147123E+02  0.10570000000E+00 0.  1.
<mgrwt>
<rscale>  0 0.89844655E+02</rscale>
<asrwt>0</asrwt>
<pdfrwt beam="1">  1        1 0.16472628E-01 0.89844655E+02</pdfrwt>
<pdfrwt beam="2">  1       -1 0.28995786E-02 0.89844655E+02</pdfrwt>
<totfact> 0.10996478E+05</totfact>
</mgrwt>
</event>
<event>
 5    1  0.2734570E+000  0.9097311E+02  0.7818608E-02  0.1300512E+00
          1   -1    0    0  501    0  0.00000000000E+00  0.00000000000E+00  0.12147573910E+02  0.12147574808E+02  0.46700000000E-02 0. -1.
         -1   -1    0    0    0  501 -0.00000000000E+00 -0.00000000000E+00 -0.17032426067E+03  0.17032426074E+03  0.46700000000E-02 0.  1.
         23    2    1    2    0    0  0.00000000000E+00  0.00000000000E+00 -0.15817668676E+03  0.18247183554E+03  0.90973108838E+02 0.  0.
        -13    1    3    3    0    0  0.40979822523E+02  0.16943140530E+02 -0.99405158500E+02  0.10884765764E+03  0.10570000000E+00 0. -1.
         13    1    3    3    0    0 -0.40979822523E+02 -0.16943140530E+02 -0.58771528261E+02  0.73624177902E+02  0.10570000000E+00 0.  1.
<mgrwt>
<rscale>  0 0.90973109E+02</rscale>
<asrwt>0</asrwt>
<pdfrwt beam="1">  1        1 0.18688577E-02 0.90973109E+02</pdfrwt>
<pdfrwt beam="2">  1       -1 0.26203731E-01 0.90973109E+02</pdfrwt>
<totfact> 0.72926237E+04</totfact>
</mgrwt>
</event>
<event>
 5    1  0.2734570E+000  0.9198523E+02  0.7818608E-02  0.1298114E+00
         -1   -1    0    0    0  501 -0.00000000000E+00  0.00000000000E+00  0.25297724420E+02  0.25297724852E+02  0.46700000000E-02 0.  1.
          1   -1    0    0  501    0  0.00000000000E+00 -0.00000000000E+00 -0.83617039273E+02  0.83617039403E+02  0.46700000000E-02 0. -1.
         23    2    1    2    0    0  0.00000000000E+00  0.00000000000E+00 -0.58319314852E+02  0.10891476425E+03  0.91985234619E+02 0.  0.
        -13    1    3    3    0    0  0.15841093159E+02 -0.30736269920E+02 -0.65066746192E+02  0.73684130948E+02  0.10570000000E+00 0. -1.
         13    1    3    3    0    0 -0.15841093159E+02  0.30736269920E+02  0.67474313394E+01  0.35230633307E+02  0.10570000000E+00 0.  1.
<mgrwt>
<rscale>  0 0.91985235E+02</rscale>
<asrwt>0</asrwt>
<pdfrwt beam="2">  1        1 0.12864160E-01 0.91985235E+02</pdfrwt>
<pdfrwt beam="1">  1       -1 0.38919577E-02 0.91985235E+02</pdfrwt>
<totfact> 0.99024199E+04</totfact>
</mgrwt>
</event>
<event>
 5    1  0.2734570E+000  0.9306432E+02  0.7818608E-02  0.1295596E+00
          1   -1    0    0  501    0  0.00000000000E+00  0.00000000000E+00  0.30327920151E+03  0.30327920155E+03  0.46700000000E-02 0. -1.
         -1   -1    0    0    0  501 -0.00000000000E+00 -0.00000000000E+00 -0.71394339983E+01  0.71394355256E+01  0.46700000000E-02 0.  1.
         23    2    1    2    0    0  0.00000000000E+00  0.00000000000E+00  0.29613976752E+03  0.31041863708E+03  0.93064323667E+02 0.  0.
        -13    1    3    3    0    0 -0.12447637145E+02 -0.43992414265E+02  0.11919208526E+03  0.12765986270E+03  0.10570000000E+00 0.  1.
         13    1    3    3    0    0  0.12447637145E+02  0.43992414265E+02  0.17694768225E+03  0.18275877437E+03  0.10570000000E+00 0. -1.
<mgrwt>
<rscale>  0 0.93064324E+02</rscale>
<asrwt>0</asrwt>
<pdfrwt beam="1">  1        1 0.46658339E-01 0.93064324E+02</pdfrwt>
<pdfrwt beam="2">  1       -1 0.10983746E-02 0.93064324E+02</pdfrwt>
<totfact> 0.12155567E+05</totfact>
</mgrwt>
</event>
<event>
 5    1  0.2734570E+000  0.9263100E+02  0.7818608E-02  0.1296603E+00
          1   -1    0    0  501    0  0.00000000000E+00  0.00000000000E+00  0.98224839118E+02  0.98224839229E+02  0.46700000000E-02 0. -1.
         -1   -1    0    0    0  501 -0.00000000000E+00 -0.00000000000E+00 -0.21838930815E+02  0.21838931314E+02  0.46700000000E-02 0.  1.
         23    2    1    2    0    0  0.00000000000E+00  0.00000000000E+00  0.76385908303E+02  0.12006377054E+03  0.92630999183E+02 0.  0.
        -13    1    3    3    0    0  0.25461625632E+02  0.36376051421E+02  0.55270837139E+02  0.70897024672E+02  0.10570000000E+00 0. -1.
         13    1    3    3    0    0 -0.25461625632E+02 -0.36376051421E+02  0.21115071164E+02  0.49166745871E+02  0.10570000000E+00 0.  1.
<mgrwt>
<rscale>  0 0.92630999E+02</rscale>
<asrwt>0</asrwt>
<pdfrwt beam="1">  1        1 0.15111514E-01 0.92630999E+02</pdfrwt>
<pdfrwt beam="2">  1       -1 0.33598356E-02 0.92630999E+02</pdfrwt>
<totfact> 0.99734618E+04</totfact>
</mgrwt>
</event>
<event>
 5    1  0.2734570E+000  0.8790526E+02  0.7818608E-02  0.1308005E+00
          1   -1    0    0  501    0  0.00000000000E+00  0.00000000000E+00  0.20281880698E+02  0.20281881235E+02  0.46700000000E-02 0. -1.
         -1   -1    0    0    0  501 -0.00000000000E+00 -0.00000000000E+00 -0.95249228953E+02  0.95249229067E+02  0.46700000000E-02 0.  1.
         23    2    1    2    0    0  0.00000000000E+00  0.00000000000E+00 -0.74967348255E+02  0.11553111030E+03  0.87905256631E+02 0.  0.
        -13    1    3    3    0    0  0.38780395533E+01 -0.21167637498E+02 -0.87851448624E+02  0.90448859948E+02  0.10570000000E+00 0.  1.
         13    1    3    3    0    0 -0.38780395533E+01  0.21167637498E+02  0.12884100369E+02  0.25082250354E+02  0.10570000000E+00 0. -1.
<mgrwt>
<rscale>  0 0.87905257E+02</rscale>
<asrwt>0</asrwt>
<pdfrwt beam="1">  1        1 0.31202895E-02 0.87905257E+02</pdfrwt>
<pdfrwt beam="2">  1       -1 0.14653727E-01 0.87905257E+02</pdfrwt>
<totfact> 0.90180655E+04</totfact>
</mgrwt>
</event>
<event>
 5    1  0.2734570E+000  0.9204784E+02  0.7818608E-02  0.1297967E+00
         -1   -1    0    0    0  501 -0.00000000000E+00  0.00000000000E+00  0.71503904019E+02  0.71503904171E+02  0.46700000000E-02 0.  1.
          1   -1    0    0  501    0  0.00000000000E+00 -0.00000000000E+00 -0.29623576042E+02  0.29623576410E+02  0.46700000000E-02 0. -1.
         23    2    1    2    0    0  0.00000000000E+00  0.00000000000E+00  0.41880327977E+02  0.10112748058E+03  0.92047843306E+02 0.  0.
        -13    1    3    3    0    0 -0.39705387342E+02  0.29904248332E+01  0.46297816867E+02  0.61065206492E+02  0.10570000000E+00 0.  1.
         13    1    3    3    0    0  0.39705387342E+02 -0.29904248332E+01 -0.44174888908E+01  0.40062274090E+02  0.10570000000E+00 0. -1.
<mgrwt>
<rscale>  0 0.92047843E+02</rscale>
<asrwt>0</asrwt>
<pdfrwt beam="2">  1        1 0.45574733E-02 0.92047843E+02</pdfrwt>
<pdfrwt beam="1">  1       -1 0.11000601E-01 0.92047843E+02</pdfrwt>
<totfact> 0.84172371E+04</totfact>
</mgrwt>
</event>
<event>
 5    1  0.2734570E+000  0.9141316E+02  0.7818608E-02  0.1299465E+00
         -1   -1    0    0    0  501 -0.00000000000E+00  0.00000000000E+00  0.22322704474E+02  0.22322704962E+02  0.46700000000E-02 0.  1.
          1   -1    0    0  501    0  0.00000000000E+00 -0.00000000000E+00 -0.93585938667E+02  0.93585938783E+02  0.46700000000E-02 0. -1.
         23    2    1    2    0    0  0.00000000000E+00  0.00000000000E+00 -0.71263234193E+02  0.11590864375E+03  0.91413156314E+02 0.  0.
        -13    1    3    3    0    0  0.31149377681E+02 -0.10519887920E+02 -0.75890807021E+02  0.82706574917E+02  0.10570000000E+00 0. -1.
         13    1    3    3    0    0 -0.31149377681E+02  0.10519887920E+02  0.46275728276E+01  0.33202068829E+02  0.10570000000E+00 0.  1.
<mgrwt>
<rscale>  0 0.91413156E+02</rscale>
<asrwt>0</asrwt>
<pdfrwt beam="2">  1        1 0.14397837E-01 0.91413156E+02</pdfrwt>
<pdfrwt beam="1">  1       -1 0.34342623E-02 0.91413156E+02</pdfrwt>
<totfact> 0.10258716E+05</totfact>
</mgrwt>
</event>
<event>
 5    1  0.2734570E+000  0.9237543E+02  0.7818608E-02  0.1297199E+00
         -1   -1    0    0    0  501 -0.00000000000E+00  0.00000000000E+00  0.86514554014E+02  0.86514554140E+02  0.46700000000E-02 0.  1.
          1   -1    0    0  501    0  0.00000000000E+00 -0.00000000000E+00 -0.24658335909E+02  0.24658336351E+02  0.46700000000E-02 0. -1.
         23    2    1    2    0    0  0.00000000000E+00  0.00000000000E+00  0.61856218105E+02  0.11117289049E+03  0.92375428886E+02 0.  0.
        -13    1    3    3    0    0 -0.21983798499E+02  0.19688385206E+02 -0.11831766286E+02  0.31794996059E+02  0.10570000000E+00 0. -1.
         13    1    3    3    0    0  0.21983798499E+02 -0.19688385206E+02  0.73687984391E+02  0.79377894432E+02  0.10570000000E+00 0.  1.
<mgrwt>
<rscale>  0 0.92375429E+02</rscale>
<asrwt>0</asrwt>
<pdfrwt beam="2">  1        1 0.37935902E-02 0.92375429E+02</pdfrwt>
<pdfrwt beam="1">  1       -1 0.13309931E-01 0.92375429E+02</pdfrwt>
<totfact> 0.80765068E+04</totfact>
</mgrwt>
</event>
<event>
 5    1  0.2734570E+000  0.9184291E+02  0.7818608E-02  0.1298449E+00
         -1   -1    0    0    0  501 -0.00000000000E+00  0.00000000000E+00  0.12263504717E+02  0.12263505606E+02  0.46700000000E-02 0.  1.
          1   -1    0    0  501    0  0.00000000000E+00 -0.00000000000E+00 -0.17195572499E+03  0.17195572506E+03  0.46700000000E-02 0. -1.
         23    2    1    2    0    0  0.00000000000E+00  0.00000000000E+00 -0.15969222028E+03  0.18421923066E+03  0.91842907887E+02 0.  0.
        -13    1    3    3    0    0  0.16776467490E+02  0.21267244055E+02 -0.54681341370E+01  0.27634348094E+02  0.10570000000E+00 0.  1.
         13    1    3    3    0    0 -0.16776467490E+02 -0.21267244055E+02 -0.15422408614E+03  0.15658488257E+03  0.10570000000E+00 0. -1.
<mgrwt>
<rscale>  0 0.91842908E+02</rscale>
<asrwt>0</asrwt>
<pdfrwt beam="2">  1        1 0.26454725E-01 0.91842908E+02</pdfrwt>
<pdfrwt beam="1">  1       -1 0.18866932E-02 0.91842908E+02</pdfrwt>
<totfact> 0.11279062E+05</totfact>
</mgrwt>
</event>
<event>
 5    1  0.2734570E+000  0.9146826E+02  0.7818608E-02  0.1299335E+00
         -1   -1    0    0    0  501 -0.00000000000E+00  0.00000000000E+00  0.58034495815E+02  0.58034496003E+02  0.46700000000E-02 0.  1.
          1   -1    0    0  501    0  0.00000000000E+00 -0.00000000000E+00 -0.36040819244E+02  0.36040819547E+02  0.46700000000E-02 0. -1.
         23    2    1    2    0    0  0.00000000000E+00  0.00000000000E+00  0.21993676571E+02  0.94075315550E+02  0.91468263276E+02 0.  0.
        -13    1    3    3    0    0  0.17744608491E+02 -0.41515263863E+01 -0.32145041273E+02  0.36951605550E+02  0.10570000000E+00 0. -1.
         13    1    3    3    0    0 -0.17744608491E+02  0.41515263863E+01  0.54138717844E+02  0.57123710000E+02  0.10570000000E+00 0.  1.
<mgrwt>
<rscale>  0 0.91468263E+02</rscale>
<asrwt>0</asrwt>
<pdfrwt beam="2">  1        1 0.55447415E-02 0.91468263E+02</pdfrwt>
<pdfrwt beam="1">  1       -1 0.89283839E-02 0.91468263E+02</pdfrwt>
<totfact> 0.88422110E+04</totfact>
</mgrwt>
</event>
<event>
 5    1  0.2734570E+000  0.8437554E+02  0.7818608E-02  0.1317074E+00
          1   -1    0    0  501    0  0.00000000000E+00  0.00000000000E+00  0.10137698628E+03  0.10137698639E+03  0.46700000000E-02 0. -1.
         -1   -1    0    0    0  501 -0.00000000000E+00 -0.00000000000E+00 -0.17556328987E+02  0.17556329608E+02  0.46700000000E-02 0.  1.
         23    2    1    2    0    0  0.00000000000E+00  0.00000000000E+00  0.83820657295E+02  0.11893331600E+03  0.84375535937E+02 0.  0.
        -13    1    3    3    0    0 -0.35733644801E+02 -0.21745475477E+02  0.34184963535E+02  0.54022050857E+02  0.10570000000E+00 0.  1.
         13    1    3    3    0    0  0.35733644801E+02  0.21745475477E+02  0.49635693761E+02  0.64911265140E+02  0.10570000000E+00 0. -1.
<mgrwt>
<rscale>  0 0.84375536E+02</rscale>
<asrwt>0</asrwt>
<pdfrwt beam="1">  1        1 0.15596459E-01 0.84375536E+02</pdfrwt>
<pdfrwt beam="2">  1       -1 0.27009738E-02 0.84375536E+02</pdfrwt>
<totfact> 0.12915829E+05</totfact>
</mgrwt>
</event>
<event>
 5    1  0.2734570E+000  0.8723245E+02  0.7818608E-02  0.1309696E+00
          1   -1    0    0  501    0  0.00000000000E+00  0.00000000000E+00  0.15819962548E+03  0.15819962555E+03  0.46700000000E-02 0. -1.
         -1   -1    0    0    0  501 -0.00000000000E+00 -0.00000000000E+00 -0.12025153684E+02  0.12025154591E+02  0.46700000000E-02 0.  1.
         23    2    1    2    0    0  0.00000000000E+00  0.00000000000E+00  0.14617447180E+03  0.17022478014E+03  0.87232445620E+02 0.  0.
        -13    1    3    3    0    0 -0.45936492448E+01  0.35346478010E+02  0.12214017038E+03  0.12723485181E+03  0.10570000000E+00 0. -1.
         13    1    3    3    0    0  0.45936492448E+01 -0.35346478010E+02  0.24034301417E+02  0.42989928334E+02  0.10570000000E+00 0.  1.
<mgrwt>
<rscale>  0 0.87232446E+02</rscale>
<asrwt>0</asrwt>
<pdfrwt beam="1">  1        1 0.24338403E-01 0.87232446E+02</pdfrwt>
<pdfrwt beam="2">  1       -1 0.18500238E-02 0.87232446E+02</pdfrwt>
<totfact> 0.12752205E+05</totfact>
</mgrwt>
</event>
<event>
 5    1  0.2734570E+000  0.9127008E+02  0.7818608E-02  0.1299805E+00
          1   -1    0    0  501    0  0.00000000000E+00  0.00000000000E+00  0.13446289008E+02  0.13446289818E+02  0.46700000000E-02 0. -1.
         -1   -1    0    0    0  501 -0.00000000000E+00 -0.00000000000E+00 -0.15487965978E+03  0.15487965985E+03  0.46700000000E-02 0.  1.
         23    2    1    2    0    0  0.00000000000E+00  0.00000000000E+00 -0.14143337077E+03  0.16832594967E+03  0.91270077045E+02 0.  0.
        -13    1    3    3    0    0  0.12130056679E+02 -0.41975641588E+02 -0.95005891600E+02  0.10457161839E+03  0.10570000000E+00 0. -1.
         13    1    3    3    0    0 -0.12130056679E+02  0.41975641588E+02 -0.46427479170E+02  0.63754331276E+02  0.10570000000E+00 0.  1.
<mgrwt>
<rscale>  0 0.91270077E+02</rscale>
<asrwt>0</asrwt>
<pdfrwt beam="1">  1        1 0.20686600E-02 0.91270077E+02</pdfrwt>
<pdfrwt beam="2">  1       -1 0.23827639E-01 0.91270077E+02</pdfrwt>
<totfact> 0.74027323E+04</totfact>
</mgrwt>
</event>
<event>
 5    1  0.2734570E+000  0.9036466E+02  0.7818608E-02  0.1301971E+00
         -1   -1    0    0    0  501 -0.00000000000E+00  0.00000000000E+00  0.25122240758E+02  0.25122241192E+02  0.46700000000E-02 0.  1.
          1   -1    0    0  501    0  0.00000000000E+00 -0.00000000000E+00 -0.81260385217E+02  0.81260385351E+02  0.46700000000E-02 0. -1.
         23    2    1    2    0    0  0.00000000000E+00  0.00000000000E+00 -0.56138144459E+02  0.10638262654E+03  0.90364661052E+02 0.  0.
        -13    1    3    3    0    0  0.15774351282E+02  0.28982023417E+02 -0.64405095778E+02  0.72365843976E+02  0.10570000000E+00 0. -1.
         13    1    3    3    0    0 -0.15774351282E+02 -0.28982023417E+02  0.82669513187E+01  0.34016782568E+02  0.10570000000E+00 0.  1.
<mgrwt>
<rscale>  0 0.90364661E+02</rscale>
<asrwt>0</asrwt>
<pdfrwt beam="2">  1        1 0.12501598E-01 0.90364661E+02</pdfrwt>
<pdfrwt beam="1">  1       -1 0.38649602E-02 0.90364661E+02</pdfrwt>
<totfact> 0.10349999E+05</totfact>
</mgrwt>
</event>
<event>
 5    1  0.2734570E+000  0.5606147E+02  0.7818608E-02  0.1415145E+00
          1   -1    0    0  501    0  0.00000000000E+00  0.00000000000E+00  0.45876983726E+02  0.45876983964E+02  0.46700000000E-02 0. -1.
         -1   -1    0    0    0  501 -0.00000000000E+00 -0.00000000000E+00 -0.17126713628E+02  0.17126714264E+02  0.46700000000E-02 0.  1.
         23    2    1    2    0    0  0.00000000000E+00  0.00000000000E+00  0.28750270098E+02  0.63003698228E+02  0.56061465907E+02 0.  0.
        -13    1    3    3    0    0 -0.14575729553E+02  0.35679716612E+01  0.40982412853E+02  0.43643460558E+02  0.10570000000E+00 0. -1.
         13    1    3    3    0    0  0.14575729553E+02 -0.35679716612E+01 -0.12232142754E+02  0.19360237670E+02  0.10570000000E+00 0.  1.
<mgrwt>
<rscale>  0 0.56061466E+02</rscale>
<asrwt>0</asrwt>
<pdfrwt beam="1">  1        1 0.70579975E-02 0.56061466E+02</pdfrwt>
<pdfrwt beam="2">  1       -1 0.26348791E-02 0.56061466E+02</pdfrwt>
<totfact> 0.34412160E+05</totfact>
</mgrwt>
</event>
<event>
 5    1  0.2734570E+000  0.9161204E+02  0.7818608E-02  0.1298994E+00
         -1   -1    0    0    0  501 -0.00000000000E+00  0.00000000000E+00  0.64666087592E+02  0.64666087761E+02  0.46700000000E-02 0.  1.
          1   -1    0    0  501    0  0.00000000000E+00 -0.00000000000E+00 -0.32446550926E+02  0.32446551262E+02  0.46700000000E-02 0. -1.
         23    2    1    2    0    0  0.00000000000E+00  0.00000000000E+00  0.32219536666E+02  0.97112639023E+02  0.91612041321E+02 0.  0.
        -13    1    3    3    0    0  0.34332482094E+02  0.29854333167E+02  0.21736967783E+02  0.50423283079E+02  0.10570000000E+00 0. -1.
         13    1    3    3    0    0 -0.34332482094E+02 -0.29854333167E+02  0.10482568884E+02  0.46689355944E+02  0.10570000000E+00 0.  1.
<mgrwt>
<rscale>  0 0.91612041E+02</rscale>
<asrwt>0</asrwt>
<pdfrwt beam="2">  1        1 0.49917771E-02 0.91612041E+02</pdfrwt>
<pdfrwt beam="1">  1       -1 0.99486289E-02 0.91612041E+02</pdfrwt>
<totfact> 0.86587989E+04</totfact>
</mgrwt>
</event>
<event>
 5    1  0.2734570E+000  0.9059094E+02  0.7818608E-02  0.1301427E+00
          1   -1    0    0  501    0  0.00000000000E+00  0.00000000000E+00  0.10306354095E+03  0.10306354106E+03  0.46700000000E-02 0. -1.
         -1   -1    0    0    0  501 -0.00000000000E+00 -0.00000000000E+00 -0.19906940548E+02  0.19906941096E+02  0.46700000000E-02 0.  1.
         23    2    1    2    0    0  0.00000000000E+00  0.00000000000E+00  0.83156600401E+02  0.12297048215E+03  0.90590944858E+02 0.  0.
        -13    1    3    3    0    0 -0.31572603611E+02  0.23307058266E+02  0.10874650176E+02  0.40722444091E+02  0.10570000000E+00 0.  1.
         13    1    3    3    0    0  0.31572603611E+02 -0.23307058266E+02  0.72281950226E+02  0.82248038060E+02  0.10570000000E+00 0. -1.
<mgrwt>
<rscale>  0 0.90590945E+02</rscale>
<asrwt>0</asrwt>
<pdfrwt beam="1">  1        1 0.15855930E-01 0.90590945E+02</pdfrwt>
<pdfrwt beam="2">  1       -1 0.30626063E-02 0.90590945E+02</pdfrwt>
<totfact> 0.10683691E+05</totfact>
</mgrwt>
</event>
<event>
 5    1  0.2734570E+000  0.9190063E+02  0.7818608E-02  0.1298313E+00
         -1   -1    0    0    0  501 -0.00000000000E+00  0.00000000000E+00  0.39474407164E+02  0.39474407440E+02  0.46700000000E-02 0.  1.
          1   -1    0    0  501    0  0.00000000000E+00 -0.00000000000E+00 -0.53488619254E+02  0.53488619458E+02  0.46700000000E-02 0. -1.
         23    2    1    2    0    0  0.00000000000E+00  0.00000000000E+00 -0.14014212091E+02  0.92963026898E+02  0.91900632367E+02 0.  0.
        -13    1    3    3    0    0 -0.16111180669E+02  0.28342759731E+00  0.36522553231E+02  0.39919400556E+02  0.10570000000E+00 0.  1.
         13    1    3    3    0    0  0.16111180669E+02 -0.28342759731E+00 -0.50536765322E+02  0.53043626342E+02  0.10570000000E+00 0. -1.
<mgrwt>
<rscale>  0 0.91900632E+02</rscale>
<asrwt>0</asrwt>
<pdfrwt beam="2">  1        1 0.82290184E-02 0.91900632E+02</pdfrwt>
<pdfrwt beam="1">  1       -1 0.60729857E-02 0.91900632E+02</pdfrwt>
<totfact> 0.92650361E+04</totfact>
</mgrwt>
</event>
<event>
 5    1  0.2734570E+000  0.9356231E+02  0.7818608E-02  0.1294447E+00
         -1   -1    0    0    0  501 -0.00000000000E+00  0.00000000000E+00  0.30228789329E+02  0.30228789690E+02  0.46700000000E-02 0.  1.
          1   -1    0    0  501    0  0.00000000000E+00 -0.00000000000E+00 -0.72397088820E+02  0.72397088971E+02  0.46700000000E-02 0. -1.
         23    2    1    2    0    0  0.00000000000E+00  0.00000000000E+00 -0.42168299491E+02  0.10262587866E+03  0.93562308057E+02 0.  0.
        -13    1    3    3    0    0  0.23632913625E+02 -0.39549536235E+02 -0.12187660357E+02  0.47657430273E+02  0.10570000000E+00 0. -1.
         13    1    3    3    0    0 -0.23632913625E+02  0.39549536235E+02 -0.29980639134E+02  0.54968448388E+02  0.10570000000E+00 0.  1.
<mgrwt>
<rscale>  0 0.93562308E+02</rscale>
<asrwt>0</asrwt>
<pdfrwt beam="2">  1        1 0.11138014E-01 0.93562308E+02</pdfrwt>
<pdfrwt beam="1">  1       -1 0.46505830E-02 0.93562308E+02</pdfrwt>
<totfact> 0.92353435E+04</totfact>
</mgrwt>
</event>
<event>
 5    1  0.2734570E+000  0.9040534E+02  0.7818608E-02  0.1301873E+00
         -1   -1    0    0    0  501 -0.00000000000E+00  0.00000000000E+00  0.85015443995E+01  0.85015456821E+01  0.46700000000E-02 0.  1.
          1   -1    0    0  501    0  0.00000000000E+00 -0.00000000000E+00 -0.24034236094E+03  0.24034236098E+03  0.46700000000E-02 0. -1.
         23    2    1    2    0    0  0.00000000000E+00  0.00000000000E+00 -0.23184081654E+03  0.24884390666E+03  0.90405340944E+02 0.  0.
        -13    1    3    3    0    0 -0.32873038947E+02 -0.20745765240E+02 -0.52418109941E+02  0.65258661397E+02  0.10570000000E+00 0.  1.
         13    1    3    3    0    0  0.32873038947E+02  0.20745765240E+02 -0.17942270660E+03  0.18358524527E+03  0.10570000000E+00 0. -1.
<mgrwt>
<rscale>  0 0.90405341E+02</rscale>
<asrwt>0</asrwt>
<pdfrwt beam="2">  1        1 0.36975743E-01 0.90405341E+02</pdfrwt>
<pdfrwt beam="1">  1       -1 0.13079302E-02 0.90405341E+02</pdfrwt>
<totfact> 0.12554096E+05</totfact>
</mgrwt>
</event>
<event>
 5    1  0.2734570E+000  0.9014034E+02  0.7818608E-02  0.1302512E+00
          1   -1    0    0  501    0  0.00000000000E+00  0.00000000000E+00  0.48275979597E+02  0.48275979823E+02  0.46700000000E-02 0. -1.
         -1   -1    0    0    0  501 -0.00000000000E+00 -0.00000000000E+00 -0.42077243653E+02  0.42077243912E+02  0.46700000000E-02 0.  1.
         23    2    1    2    0    0  0.00000000000E+00  0.00000000000E+00  0.61987359444E+01  0.90353223735E+02  0.90140338984E+02 0.  0.
        -13    1    3    3    0    0 -0.18728398453E+02  0.37833430855E+01  0.44015404519E+02  0.47983680569E+02  0.10570000000E+00 0. -1.
         13    1    3    3    0    0  0.18728398453E+02 -0.37833430855E+01 -0.37816668575E+02  0.42369543166E+02  0.10570000000E+00 0.  1.
<mgrwt>
<rscale>  0 0.90140339E+02</rscale>
<asrwt>0</asrwt>
<pdfrwt beam="1">  1        1 0.74270739E-02 0.90140339E+02</pdfrwt>
<pdfrwt beam="2">  1       -1 0.64734221E-02 0.90140339E+02</pdfrwt>
<totfact> 0.96300012E+04</totfact>
</mgrwt>
</event>
<event>
 5    1  0.2734570E+000  0.9398349E+02  0.7818608E-02  0.1293482E+00
          1   -1    0    0  501    0  0.00000000000E+00  0.00000000000E+00  0.12104624314E+03  0.12104624323E+03  0.46700000000E-02 0. -1.
         -1   -1    0    0    0  501 -0.00000000000E+00 -0.00000000000E+00 -0.18242815190E+02  0.18242815788E+02  0.46700000000E-02 0.  1.
         23    2    1    2    0    0  0.00000000000E+00  0.00000000000E+00  0.10280342795E+03  0.13928905902E+03  0.93983494104E+02 0.  0.
        -13    1    3    3    0    0  0.42178896419E+02  0.17864073389E+02  0.35855723300E+02  0.58170684086E+02  0.10570000000E+00 0. -1.
         13    1    3    3    0    0 -0.42178896419E+02 -0.17864073389E+02  0.66947704653E+02  0.81118374935E+02  0.10570000000E+00 0.  1.
<mgrwt>
<rscale>  0 0.93983494E+02</rscale>
<asrwt>0</asrwt>
<pdfrwt beam="1">  1        1 0.18622500E-01 0.93983494E+02</pdfrwt>
<pdfrwt beam="2">  1       -1 0.28065869E-02 0.93983494E+02</pdfrwt>
<totfact> 0.99363797E+04</totfact>
</mgrwt>
</event>
<event>
 5    1  0.2734570E+000  0.9200275E+02  0.7818608E-02  0.1298073E+00
          1   -1    0    0  501    0  0.00000000000E+00  0.00000000000E+00  0.18153763695E+03  0.18153763701E+03  0.46700000000E-02 0. -1.
         -1   -1    0    0    0  501 -0.00000000000E+00 -0.00000000000E+00 -0.11656681082E+02  0.11656682017E+02  0.46700000000E-02 0.  1.
         23    2    1    2    0    0  0.00000000000E+00  0.00000000000E+00  0.16988095587E+03  0.19319431903E+03  0.92002748533E+02 0.  0.
        -13    1    3    3    0    0  0.37517397410E+01 -0.33277676883E+02  0.18714920582E+02  0.38363247447E+02  0.10570000000E+00 0.  1.
         13    1    3    3    0    0 -0.37517397410E+01  0.33277676883E+02  0.15116603529E+03  0.15483107158E+03  0.10570000000E+00 0. -1.
<mgrwt>
<rscale>  0 0.92002749E+02</rscale>
<asrwt>0</asrwt>
<pdfrwt beam="1">  1        1 0.27928864E-01 0.92002749E+02</pdfrwt>
<pdfrwt beam="2">  1       -1 0.17933358E-02 0.92002749E+02</pdfrwt>
<totfact> 0.11342982E+05</totfact>
</mgrwt>
</event>
<event>
 5    1  0.2734570E+000  0.9535143E+02  0.7818608E-02  0.1290387E+00
          1   -1    0    0  501    0  0.00000000000E+00  0.00000000000E+00  0.23366663878E+03  0.23366663882E+03  0.46700000000E-02 0. -1.
         -1   -1    0    0    0  501 -0.00000000000E+00 -0.00000000000E+00 -0.97274198287E+01  0.97274209497E+01  0.46700000000E-02 0.  1.
         23    2    1    2    0    0  0.00000000000E+00  0.00000000000E+00  0.22393921895E+03  0.24339405977E+03  0.95351426575E+02 0.  0.
        -13    1    3    3    0    0 -0.17332807414E+02 -0.42238584123E+02  0.76929348959E+02  0.89457588305E+02  0.10570000000E+00 0.  1.
         13    1    3    3    0    0  0.17332807414E+02  0.42238584123E+02  0.14700986999E+03  0.15393647147E+03  0.10570000000E+00 0. -1.
<mgrwt>
<rscale>  0 0.95351427E+02</rscale>
<asrwt>0</asrwt>
<pdfrwt beam="1">  1        1 0.35948719E-01 0.95351427E+02</pdfrwt>
<pdfrwt beam="2">  1       -1 0.14965260E-02 0.95351427E+02</pdfrwt>
<totfact> 0.10823858E+05</totfact>
</mgrwt>
</event>
<event>
 5    1  0.2734570E+000  0.9176645E+02  0.7818608E-02  0.1298629E+00
         -1   -1    0    0    0  501 -0.00000000000E+00  0.00000000000E+00  0.22248360006E+02  0.22248360497E+02  0.46700000000E-02 0.  1.
          1   -1    0    0  501    0  0.00000000000E+00 -0.00000000000E+00 -0.94625873063E+02  0.94625873179E+02  0.46700000000E-02 0. -1.
         23    2    1    2    0    0  0.00000000000E+00  0.00000000000E+00 -0.72377513057E+02  0.11687423368E+03  0.91766454115E+02 0.  0.
        -13    1    3    3    0    0 -0.30220235523E+02  0.27667785532E+02 -0.62490796647E+02  0.74725362692E+02  0.10570000000E+00 0. -1.
         13    1    3    3    0    0  0.30220235523E+02 -0.27667785532E+02 -0.98867164098E+01  0.42148870983E+02  0.10570000000E+00 0.  1.
<mgrwt>
<rscale>  0 0.91766454E+02</rscale>
<asrwt>0</asrwt>
<pdfrwt beam="2">  1        1 0.14557826E-01 0.91766454E+02</pdfrwt>
<pdfrwt beam="1">  1       -1 0.34228247E-02 0.91766454E+02</pdfrwt>
<totfact> 0.10169491E+05</totfact>
</mgrwt>
</event>
<event>
 5    1  0.2734570E+000  0.9259010E+02  0.7818608E-02  0.1296698E+00
          1   -1    0    0  501    0  0.00000000000E+00  0.00000000000E+00  0.35797725702E+02  0.35797726007E+02  0.46700000000E-02 0. -1.
         -1   -1    0    0    0  501 -0.00000000000E+00 -0.00000000000E+00 -0.59870603989E+02  0.59870604171E+02  0.46700000000E-02 0.  1.
         23    2    1    2    0    0  0.00000000000E+00  0.00000000000E+00 -0.24072878287E+02  0.95668330178E+02  0.92590096285E+02 0.  0.
        -13    1    3    3    0    0  0.19727259316E+02 -0.37167584096E+02 -0.31981730121E+02  0.52852968712E+02  0.10570000000E+00 0.  1.
         13    1    3    3    0    0 -0.19727259316E+02  0.37167584096E+02  0.79088518344E+01  0.42815361466E+02  0.10570000000E+00 0. -1.
<mgrwt>
<rscale>  0 0.92590096E+02</rscale>
<asrwt>0</asrwt>
<pdfrwt beam="1">  1        1 0.55073425E-02 0.92590096E+02</pdfrwt>
<pdfrwt beam="2">  1       -1 0.92108621E-02 0.92590096E+02</pdfrwt>
<totfact> 0.85314177E+04</totfact>
</mgrwt>
</event>
<event>
 5    1  0.2734570E+000  0.9071928E+02  0.7818608E-02  0.1301119E+00
          1   -1    0    0  501    0  0.00000000000E+00  0.00000000000E+00  0.41466662627E+02  0.41466662890E+02  0.46700000000E-02 0. -1.
         -1   -1    0    0    0  501 -0.00000000000E+00 -0.00000000000E+00 -0.49618093734E+02  0.49618093954E+02  0.46700000000E-02 0.  1.
         23    2    1    2    0    0  0.00000000000E+00  0.00000000000E+00 -0.81514311070E+01  0.91084756844E+02  0.90719276343E+02 0.  0.
        -13    1    3    3    0    0  0.36811350243E+02  0.19527393182E+02  0.13915487289E+02  0.43932295071E+02  0.10570000000E+00 0. -1.
         13    1    3    3    0    0 -0.36811350243E+02 -0.19527393182E+02 -0.22066918396E+02  0.47152461773E+02  0.10570000000E+00 0.  1.
<mgrwt>
<rscale>  0 0.90719276E+02</rscale>
<asrwt>0</asrwt>
<pdfrwt beam="1">  1        1 0.63794866E-02 0.90719276E+02</pdfrwt>
<pdfrwt beam="2">  1       -1 0.76335529E-02 0.90719276E+02</pdfrwt>
<totfact> 0.92461569E+04</totfact>
</mgrwt>
</event>
<event>
 5    1  0.2734570E+000  0.9057860E+02  0.7818608E-02  0.1301457E+00
          1   -1    0    0  501    0  0.00000000000E+00  0.00000000000E+00  0.23868045482E+03  0.23868045487E+03  0.46700000000E-02 0. -1.
         -1   -1    0    0    0  501 -0.00000000000E+00 -0.00000000000E+00 -0.85935834933E+01  0.85935847623E+01  0.46700000000E-02 0.  1.
         23    2    1    2    0    0  0.00000000000E+00  0.00000000000E+00  0.23008687133E+03  0.24727403963E+03  0.90578597457E+02 0.  0.
        -13    1    3    3    0    0  0.45258251307E+02  0.15805433563E+01  0.11654360648E+03  0.12503291892E+03  0.10570000000E+00 0.  1.
         13    1    3    3    0    0 -0.45258251307E+02 -0.15805433563E+01  0.11354326485E+03  0.12224112071E+03  0.10570000000E+00 0. -1.
<mgrwt>
<rscale>  0 0.90578597E+02</rscale>
<asrwt>0</asrwt>
<pdfrwt beam="1">  1        1 0.36720067E-01 0.90578597E+02</pdfrwt>
<pdfrwt beam="2">  1       -1 0.13220900E-02 0.90578597E+02</pdfrwt>
<totfact> 0.12473233E+05</totfact>
</mgrwt>
</event>
<event>
 5    1  0.2734570E+000  0.9102069E+02  0.7818608E-02  0.1300399E+00
         -1   -1    0    0    0  501 -0.00000000000E+00  0.00000000000E+00  0.13299071241E+03  0.13299071249E+03  0.46700000000E-02 0.  1.
          1   -1    0    0  501    0  0.00000000000E+00 -0.00000000000E+00 -0.15573955497E+02  0.15573956197E+02  0.46700000000E-02 0. -1.
         23    2    1    2    0    0  0.00000000000E+00  0.00000000000E+00  0.11741675691E+03  0.14856466869E+03  0.91020689839E+02 0.  0.
        -13    1    3    3    0    0 -0.27874976601E+02  0.34399579528E+01  0.11715720187E+03  0.12047683907E+03  0.10570000000E+00 0.  1.
         13    1    3    3    0    0  0.27874976601E+02 -0.34399579528E+01  0.25955504530E+00  0.28087829616E+02  0.10570000000E+00 0. -1.
<mgrwt>
<rscale>  0 0.91020690E+02</rscale>
<asrwt>0</asrwt>
<pdfrwt beam="2">  1        1 0.23959931E-02 0.91020690E+02</pdfrwt>
<pdfrwt beam="1">  1       -1 0.20460110E-01 0.91020690E+02</pdfrwt>
<totfact> 0.77188744E+04</totfact>
</mgrwt>
</event>
<event>
 5    1  0.2734570E+000  0.9390379E+02  0.7818608E-02  0.1293664E+00
          1   -1    0    0  501    0  0.00000000000E+00  0.00000000000E+00  0.61383812439E+02  0.61383812616E+02  0.46700000000E-02 0. -1.
         -1   -1    0    0    0  501 -0.00000000000E+00 -0.00000000000E+00 -0.35913057095E+02  0.35913057399E+02  0.46700000000E-02 0.  1.
         23    2    1    2    0    0  0.00000000000E+00  0.00000000000E+00  0.25470755343E+02  0.97296870015E+02  0.93903788726E+02 0.  0.
        -13    1    3    3    0    0  0.14870237955E+01 -0.39037206276E+02 -0.14250969865E+02  0.41583843355E+02  0.10570000000E+00 0.  1.
         13    1    3    3    0    0 -0.14870237955E+01  0.39037206276E+02  0.39721725208E+02  0.55713026660E+02  0.10570000000E+00 0. -1.
<mgrwt>
<rscale>  0 0.93903789E+02</rscale>
<asrwt>0</asrwt>
<pdfrwt beam="1">  1        1 0.94436634E-02 0.93903789E+02</pdfrwt>
<pdfrwt beam="2">  1       -1 0.55250858E-02 0.93903789E+02</pdfrwt>
<totfact> 0.89098043E+04</totfact>
</mgrwt>
</event>
<event>
 5    1  0.2734570E+000  0.8370085E+02  0.7818608E-02  0.1318865E+00
         -1   -1    0    0    0  501 -0.00000000000E+00  0.00000000000E+00  0.86092164706E+01  0.86092177372E+01  0.46700000000E-02 0.  1.
          1   -1    0    0  501    0  0.00000000000E+00 -0.00000000000E+00 -0.20343989954E+03  0.20343989960E+03  0.46700000000E-02 0. -1.
         23    2    1    2    0    0  0.00000000000E+00  0.00000000000E+00 -0.19483068307E+03  0.21204911733E+03  0.83700854808E+02 0.  0.
        -13    1    3    3    0    0  0.38338687006E+02  0.16281039121E+02 -0.10771234544E+03  0.11548544362E+03  0.10570000000E+00 0. -1.
         13    1    3    3    0    0 -0.38338687006E+02 -0.16281039121E+02 -0.87118337633E+02  0.96563673712E+02  0.10570000000E+00 0.  1.
<mgrwt>
<rscale>  0 0.83700855E+02</rscale>
<asrwt>0</asrwt>
<pdfrwt beam="2">  1        1 0.31298442E-01 0.83700855E+02</pdfrwt>
<pdfrwt beam="1">  1       -1 0.13244951E-02 0.83700855E+02</pdfrwt>
<totfact> 0.14924545E+05</totfact>
</mgrwt>
</event>
<event>
 5    1  0.2734570E+000  0.9498301E+02  0.7818608E-02  0.1291214E+00
         -1   -1    0    0    0  501 -0.00000000000E+00  0.00000000000E+00  0.46481941702E+02  0.46481941936E+02  0.46700000000E-02 0.  1.
          1   -1    0    0  501    0  0.00000000000E+00 -0.00000000000E+00 -0.48522996022E+02  0.48522996247E+02  0.46700000000E-02 0. -1.
         23    2    1    2    0    0  0.00000000000E+00  0.00000000000E+00 -0.20410543206E+01  0.95004938183E+02  0.94983010988E+02 0.  0.
        -13    1    3    3    0    0  0.35824246309E+02 -0.68627119126E+01 -0.31440678261E+02  0.48156005445E+02  0.10570000000E+00 0.  1.
         13    1    3    3    0    0 -0.35824246309E+02  0.68627119126E+01  0.29399623940E+02  0.46848932738E+02  0.10570000000E+00 0. -1.
<mgrwt>
<rscale>  0 0.94983011E+02</rscale>
<asrwt>0</asrwt>
<pdfrwt beam="2">  1        1 0.74650763E-02 0.94983011E+02</pdfrwt>
<pdfrwt beam="1">  1       -1 0.71510680E-02 0.94983011E+02</pdfrwt>
<totfact> 0.83206931E+04</totfact>
</mgrwt>
</event>
<event>
 5    1  0.2734570E+000  0.9100304E+02  0.7818608E-02  0.1300441E+00
         -1   -1    0    0    0  501 -0.00000000000E+00  0.00000000000E+00  0.76063073890E+02  0.76063074033E+02  0.46700000000E-02 0.  1.
          1   -1    0    0  501    0  0.00000000000E+00 -0.00000000000E+00 -0.27219361223E+02  0.27219361624E+02  0.46700000000E-02 0. -1.
         23    2    1    2    0    0  0.00000000000E+00  0.00000000000E+00  0.48843712666E+02  0.10328243566E+03  0.91003039775E+02 0.  0.
        -13    1    3    3    0    0  0.71909471633E+01  0.25078457883E+02  0.66731278667E+02  0.71649937166E+02  0.10570000000E+00 0.  1.
         13    1    3    3    0    0 -0.71909471633E+01 -0.25078457883E+02 -0.17887566001E+02  0.31632498491E+02  0.10570000000E+00 0. -1.
<mgrwt>
<rscale>  0 0.91003040E+02</rscale>
<asrwt>0</asrwt>
<pdfrwt beam="2">  1        1 0.41875941E-02 0.91003040E+02</pdfrwt>
<pdfrwt beam="1">  1       -1 0.11702011E-01 0.91003040E+02</pdfrwt>
<totfact> 0.85787190E+04</totfact>
</mgrwt>
</event>
<event>
 5    1  0.2734570E+000  0.8900619E+02  0.7818608E-02  0.1305276E+00
          1   -1    0    0  501    0  0.00000000000E+00  0.00000000000E+00  0.32646091756E+02  0.32646092090E+02  0.46700000000E-02 0. -1.
         -1   -1    0    0    0  501 -0.00000000000E+00 -0.00000000000E+00 -0.60666543816E+02  0.60666543996E+02  0.46700000000E-02 0.  1.
         23    2    1    2    0    0  0.00000000000E+00  0.00000000000E+00 -0.28020452059E+02  0.93312636086E+02  0.89006192592E+02 0.  0.
        -13    1    3    3    0    0  0.17212554300E+02  0.25403784348E+02 -0.47801537183E+02  0.56803366223E+02  0.10570000000E+00 0.  1.
         13    1    3    3    0    0 -0.17212554300E+02 -0.25403784348E+02  0.19781085124E+02  0.36509269863E+02  0.10570000000E+00 0. -1.
<mgrwt>
<rscale>  0 0.89006193E+02</rscale>
<asrwt>0</asrwt>
<pdfrwt beam="1">  1        1 0.50224757E-02 0.89006193E+02</pdfrwt>
<pdfrwt beam="2">  1       -1 0.93333144E-02 0.89006193E+02</pdfrwt>
<totfact> 0.94101295E+04</totfact>
</mgrwt>
</event>
<event>
 5    1  0.2734570E+000  0.8818442E+02  0.7818608E-02  0.1307309E+00
          1   -1    0    0  501    0  0.00000000000E+00  0.00000000000E+00  0.31165601894E+03  0.31165601898E+03  0.46700000000E-02 0. -1.
         -1   -1    0    0    0  501 -0.00000000000E+00 -0.00000000000E+00 -0.62380405394E+01  0.62380422875E+01  0.46700000000E-02 0.  1.
         23    2    1    2    0    0  0.00000000000E+00  0.00000000000E+00  0.30541797840E+03  0.31789406127E+03  0.88184424111E+02 0.  0.
        -13    1    3    3    0    0 -0.39343228384E+02  0.10336119160E+02  0.21403292917E+03  0.21786424883E+03  0.10570000000E+00 0. -1.
         13    1    3    3    0    0  0.39343228384E+02 -0.10336119160E+02  0.91385049236E+02  0.10002981243E+03  0.10570000000E+00 0.  1.
<mgrwt>
<rscale>  0 0.88184424E+02</rscale>
<asrwt>0</asrwt>
<pdfrwt beam="1">  1        1 0.47947089E-01 0.88184424E+02</pdfrwt>
<pdfrwt beam="2">  1       -1 0.95969850E-03 0.88184424E+02</pdfrwt>
<totfact> 0.14101697E+05</totfact>
</mgrwt>
</event>
<event>
 5    1  0.2734570E+000  0.9071394E+02  0.7818608E-02  0.1301132E+00
         -1   -1    0    0    0  501 -0.00000000000E+00  0.00000000000E+00  0.66585398024E+02  0.66585398188E+02  0.46700000000E-02 0.  1.
          1   -1    0    0  501    0  0.00000000000E+00 -0.00000000000E+00 -0.30896482952E+02  0.30896483305E+02  0.46700000000E-02 0. -1.
         23    2    1    2    0    0  0.00000000000E+00  0.00000000000E+00  0.35688915072E+02  0.97481881493E+02  0.90713938072E+02 0.  0.
        -13    1    3    3    0    0 -0.17998520480E+02 -0.31738447414E+02 -0.11109539548E+02  0.38140645317E+02  0.10570000000E+00 0. -1.
         13    1    3    3    0    0  0.17998520480E+02  0.31738447414E+02  0.46798454620E+02  0.59341236177E+02  0.10570000000E+00 0.  1.
<mgrwt>
<rscale>  0 0.90713938E+02</rscale>
<asrwt>0</asrwt>
<pdfrwt beam="2">  1        1 0.47533052E-02 0.90713938E+02</pdfrwt>
<pdfrwt beam="1">  1       -1 0.10243907E-01 0.90713938E+02</pdfrwt>
<totfact> 0.88374165E+04</totfact>
</mgrwt>
</event>
<event>
 5    1  0.2734570E+000  0.9410449E+02  0.7818608E-02  0.1293206E+00
          1   -1    0    0  501    0  0.00000000000E+00  0.00000000000E+00  0.22678135678E+02  0.22678136159E+02  0.46700000000E-02 0. -1.
         -1   -1    0    0    0  501 -0.00000000000E+00 -0.00000000000E+00 -0.97623273888E+02  0.97623274000E+02  0.46700000000E-02 0.  1.
         23    2    1    2    0    0  0.00000000000E+00  0.00000000000E+00 -0.74945138210E+02  0.12030141016E+03  0.94104492692E+02 0.  0.
        -13    1    3    3    0    0  0.14057199800E+02 -0.91025563063E+01  0.18739019322E+02  0.25132119194E+02  0.10570000000E+00 0. -1.
         13    1    3    3    0    0 -0.14057199800E+02  0.91025563063E+01 -0.93684157533E+02  0.95169290964E+02  0.10570000000E+00 0.  1.
<mgrwt>
<rscale>  0 0.94104493E+02</rscale>
<asrwt>0</asrwt>
<pdfrwt beam="1">  1        1 0.34889440E-02 0.94104493E+02</pdfrwt>
<pdfrwt beam="2">  1       -1 0.15018965E-01 0.94104493E+02</pdfrwt>
<totfact> 0.75339730E+04</totfact>
</mgrwt>
</event>
<event>
 5    1  0.2734570E+000  0.9006875E+02  0.7818608E-02  0.1302685E+00
          1   -1    0    0  501    0  0.00000000000E+00  0.00000000000E+00  0.28472587559E+02  0.28472587942E+02  0.46700000000E-02 0. -1.
         -1   -1    0    0    0  501 -0.00000000000E+00 -0.00000000000E+00 -0.71229737498E+02  0.71229737651E+02  0.46700000000E-02 0.  1.
         23    2    1    2    0    0  0.00000000000E+00  0.00000000000E+00 -0.42757149938E+02  0.99702325593E+02  0.90068750729E+02 0.  0.
        -13    1    3    3    0    0 -0.89974431783E+01  0.35092571523E+02 -0.50991330878E+02  0.62550536025E+02  0.10570000000E+00 0.  1.
         13    1    3    3    0    0  0.89974431783E+01 -0.35092571523E+02  0.82341809393E+01  0.37151789568E+02  0.10570000000E+00 0. -1.
<mgrwt>
<rscale>  0 0.90068751E+02</rscale>
<asrwt>0</asrwt>
<pdfrwt beam="1">  1        1 0.43803981E-02 0.90068751E+02</pdfrwt>
<pdfrwt beam="2">  1       -1 0.10958421E-01 0.90068751E+02</pdfrwt>
<totfact> 0.89026706E+04</totfact>
</mgrwt>
</event>
<event>
 5    1  0.2734570E+000  0.6759209E+02  0.7818608E-02  0.1368478E+00
         -1   -1    0    0    0  501 -0.00000000000E+00  0.00000000000E+00  0.14666758053E+02  0.14666758796E+02  0.46700000000E-02 0.  1.
          1   -1    0    0  501    0  0.00000000000E+00 -0.00000000000E+00 -0.77874919536E+02  0.77874919676E+02  0.46700000000E-02 0. -1.
         23    2    1    2    0    0  0.00000000000E+00  0.00000000000E+00 -0.63208161483E+02  0.92541678473E+02  0.67592089600E+02 0.  0.
        -13    1    3    3    0    0 -0.11615385517E+01 -0.15725321036E+02 -0.72529697877E+02  0.74224006494E+02  0.10570000000E+00 0. -1.
         13    1    3    3    0    0  0.11615385517E+01  0.15725321036E+02  0.93215363934E+01  0.18317671978E+02  0.10570000000E+00 0.  1.
<mgrwt>
<rscale>  0 0.67592090E+02</rscale>
<asrwt>0</asrwt>
<pdfrwt beam="2">  1        1 0.11980757E-01 0.67592090E+02</pdfrwt>
<pdfrwt beam="1">  1       -1 0.22564244E-02 0.67592090E+02</pdfrwt>
<totfact> 0.22443535E+05</totfact>
</mgrwt>
</event>
<event>
 5    1  0.2734570E+000  0.9120909E+02  0.7818608E-02  0.1299950E+00
         -1   -1    0    0    0  501 -0.00000000000E+00  0.00000000000E+00  0.35963938323E+02  0.35963938626E+02  0.46700000000E-02 0.  1.
          1   -1    0    0  501    0  0.00000000000E+00 -0.00000000000E+00 -0.57829440916E+02  0.57829441105E+02  0.46700000000E-02 0. -1.
         23    2    1    2    0    0  0.00000000000E+00  0.00000000000E+00 -0.21865502593E+02  0.93793379731E+02  0.91209088789E+02 0.  0.
        -13    1    3    3    0    0  0.12668532420E+02  0.14376438292E+02  0.31623240871E+02  0.36975860061E+02  0.10570000000E+00 0.  1.
         13    1    3    3    0    0 -0.12668532420E+02 -0.14376438292E+02 -0.53488743464E+02  0.56817519670E+02  0.10570000000E+00 0. -1.
<mgrwt>
<rscale>  0 0.91209089E+02</rscale>
<asrwt>0</asrwt>
<pdfrwt beam="2">  1        1 0.88968371E-02 0.91209089E+02</pdfrwt>
<pdfrwt beam="1">  1       -1 0.55329136E-02 0.91209089E+02</pdfrwt>
<totfact> 0.95742033E+04</totfact>
</mgrwt>
</event>
<event>
 5    1  0.2734570E+000  0.9207194E+02  0.7818608E-02  0.1297910E+00
          1   -1    0    0  501    0  0.00000000000E+00  0.00000000000E+00  0.50732366144E+02  0.50732366359E+02  0.46700000000E-02 0. -1.
         -1   -1    0    0    0  501 -0.00000000000E+00 -0.00000000000E+00 -0.41774329520E+02  0.41774329781E+02  0.46700000000E-02 0.  1.
         23    2    1    2    0    0  0.00000000000E+00  0.00000000000E+00  0.89580366237E+01  0.92506696140E+02  0.92071941494E+02 0.  0.
        -13    1    3    3    0    0  0.35710930299E+02  0.13484097142E+02 -0.21375894926E+02  0.43749645426E+02  0.10570000000E+00 0.  1.
         13    1    3    3    0    0 -0.35710930299E+02 -0.13484097142E+02  0.30333931550E+02  0.48757050714E+02  0.10570000000E+00 0. -1.
<mgrwt>
<rscale>  0 0.92071941E+02</rscale>
<asrwt>0</asrwt>
<pdfrwt beam="1">  1        1 0.78049794E-02 0.92071941E+02</pdfrwt>
<pdfrwt beam="2">  1       -1 0.64268200E-02 0.92071941E+02</pdfrwt>
<totfact> 0.91434623E+04</totfact>
</mgrwt>
</event>
<event>
 5    1  0.2734570E+000  0.8929210E+02  0.7818608E-02  0.1304575E+00
          1   -1    0    0  501    0  0.00000000000E+00  0.00000000000E+00  0.38554000342E+03  0.38554000344E+03  0.46700000000E-02 0. -1.
         -1   -1    0    0    0  501 -0.00000000000E+00 -0.00000000000E+00 -0.51700717145E+01  0.51700738237E+01  0.46700000000E-02 0.  1.
         23    2    1    2    0    0  0.00000000000E+00  0.00000000000E+00  0.38036993170E+03  0.39071007727E+03  0.89292102317E+02 0.  0.
        -13    1    3    3    0    0 -0.42488000000E+02 -0.67084806530E+01  0.24251455469E+03  0.24629972446E+03  0.10570000000E+00 0. -1.
         13    1    3    3    0    0  0.42488000000E+02  0.67084806530E+01  0.13785537701E+03  0.14441035281E+03  0.10570000000E+00 0.  1.
<mgrwt>
<rscale>  0 0.89292102E+02</rscale>
<asrwt>0</asrwt>
<pdfrwt beam="1">  1        1 0.59313839E-01 0.89292102E+02</pdfrwt>
<pdfrwt beam="2">  1       -1 0.79539591E-03 0.89292102E+02</pdfrwt>
<totfact> 0.14170484E+05</totfact>
</mgrwt>
</event>
<event>
 5    1  0.2734570E+000  0.9228832E+02  0.7818608E-02  0.1297403E+00
          1   -1    0    0  501    0  0.00000000000E+00  0.00000000000E+00  0.38257909108E+03  0.38257909111E+03  0.46700000000E-02 0. -1.
         -1   -1    0    0    0  501 -0.00000000000E+00 -0.00000000000E+00 -0.55656019971E+01  0.55656039564E+01  0.46700000000E-02 0.  1.
         23    2    1    2    0    0  0.00000000000E+00  0.00000000000E+00  0.37701348908E+03  0.38814469507E+03  0.92288316468E+02 0.  0.
        -13    1    3    3    0    0  0.27991444530E+02 -0.34895936641E+02  0.23609436553E+03  0.24029525165E+03  0.10570000000E+00 0. -1.
         13    1    3    3    0    0 -0.27991444530E+02  0.34895936641E+02  0.14091912356E+03  0.14784944341E+03  0.10570000000E+00 0.  1.
<mgrwt>
<rscale>  0 0.92288316E+02</rscale>
<asrwt>0</asrwt>
<pdfrwt beam="1">  1        1 0.58858312E-01 0.92288316E+02</pdfrwt>
<pdfrwt beam="2">  1       -1 0.85624676E-03 0.92288316E+02</pdfrwt>
<totfact> 0.12964659E+05</totfact>
</mgrwt>
</event>
<event>
 5    1  0.2734570E+000  0.9188661E+02  0.7818608E-02  0.1298346E+00
          1   -1    0    0  501    0  0.00000000000E+00  0.00000000000E+00  0.39581475138E+02  0.39581475414E+02  0.46700000000E-02 0. -1.
         -1   -1    0    0    0  501 -0.00000000000E+00 -0.00000000000E+00 -0.53327658596E+02  0.53327658801E+02  0.46700000000E-02 0.  1.
         23    2    1    2    0    0  0.00000000000E+00  0.00000000000E+00 -0.13746183458E+02  0.92909134214E+02  0.91886613067E+02 0.  0.
        -13    1    3    3    0    0 -0.56003090646E+01  0.29092657606E+02 -0.42378376521E+02  0.51707679867E+02  0.10570000000E+00 0.  1.
         13    1    3    3    0    0  0.56003090646E+01 -0.29092657606E+02  0.28632193063E+02  0.41201454347E+02  0.10570000000E+00 0. -1.
<mgrwt>
<rscale>  0 0.91886613E+02</rscale>
<asrwt>0</asrwt>
<pdfrwt beam="1">  1        1 0.60894577E-02 0.91886613E+02</pdfrwt>
<pdfrwt beam="2">  1       -1 0.82042552E-02 0.91886613E+02</pdfrwt>
<totfact> 0.88553339E+04</totfact>
</mgrwt>
</event>
<event>
 5    1  0.2734570E+000  0.9426595E+02  0.7818608E-02  0.1292838E+00
         -1   -1    0    0    0  501 -0.00000000000E+00  0.00000000000E+00  0.11141135057E+03  0.11141135067E+03  0.46700000000E-02 0.  1.
          1   -1    0    0  501    0  0.00000000000E+00 -0.00000000000E+00 -0.19939774902E+02  0.19939775449E+02  0.46700000000E-02 0. -1.
         23    2    1    2    0    0  0.00000000000E+00  0.00000000000E+00  0.91471575668E+02  0.13135112612E+03  0.94265949191E+02 0.  0.
        -13    1    3    3    0    0 -0.30149437464E+02 -0.33239541115E+02  0.65814941001E+02  0.79658479175E+02  0.10570000000E+00 0.  1.
         13    1    3    3    0    0  0.30149437464E+02  0.33239541115E+02  0.25656634666E+02  0.51692646941E+02  0.10570000000E+00 0. -1.
<mgrwt>
<rscale>  0 0.94265949E+02</rscale>
<asrwt>0</asrwt>
<pdfrwt beam="2">  1        1 0.30676577E-02 0.94265949E+02</pdfrwt>
<pdfrwt beam="1">  1       -1 0.17140208E-01 0.94265949E+02</pdfrwt>
<totfact> 0.73129531E+04</totfact>
</mgrwt>
</event>
<event>
 5    1  0.2734570E+000  0.9206814E+02  0.7818608E-02  0.1297919E+00
          1   -1    0    0  501    0  0.00000000000E+00  0.00000000000E+00  0.26129483795E+02  0.26129484212E+02  0.46700000000E-02 0. -1.
         -1   -1    0    0    0  501 -0.00000000000E+00 -0.00000000000E+00 -0.81101320907E+02  0.81101321041E+02  0.46700000000E-02 0.  1.
         23    2    1    2    0    0  0.00000000000E+00  0.00000000000E+00 -0.54971837112E+02  0.10723080525E+03  0.92068141720E+02 0.  0.
        -13    1    3    3    0    0 -0.18021406799E+02  0.21195336212E+02  0.15229953053E+02  0.31717125069E+02  0.10570000000E+00 0. -1.
         13    1    3    3    0    0  0.18021406799E+02 -0.21195336212E+02 -0.70201790165E+02  0.75513680184E+02  0.10570000000E+00 0.  1.
<mgrwt>
<rscale>  0 0.92068142E+02</rscale>
<asrwt>0</asrwt>
<pdfrwt beam="1">  1        1 0.40199207E-02 0.92068142E+02</pdfrwt>
<pdfrwt beam="2">  1       -1 0.12477126E-01 0.92068142E+02</pdfrwt>
<totfact> 0.82374340E+04</totfact>
</mgrwt>
</event>
<event>
 5    1  0.2734570E+000  0.9533084E+02  0.7818608E-02  0.1290433E+00
          1   -1    0    0  501    0  0.00000000000E+00  0.00000000000E+00  0.39465721088E+03  0.39465721091E+03  0.46700000000E-02 0. -1.
         -1   -1    0    0    0  501 -0.00000000000E+00 -0.00000000000E+00 -0.57568745307E+01  0.57568764248E+01  0.46700000000E-02 0.  1.
         23    2    1    2    0    0  0.00000000000E+00  0.00000000000E+00  0.38890033635E+03  0.40041408733E+03  0.95330843496E+02 0.  0.
        -13    1    3    3    0    0  0.47462116708E+02  0.25297602575E+01  0.17934730822E+03  0.18553846056E+03  0.10570000000E+00 0. -1.
         13    1    3    3    0    0 -0.47462116708E+02 -0.25297602575E+01  0.20955302813E+03  0.21487562677E+03  0.10570000000E+00 0.  1.
<mgrwt>
<rscale>  0 0.95330843E+02</rscale>
<asrwt>0</asrwt>
<pdfrwt beam="1">  1        1 0.60716492E-01 0.95330843E+02</pdfrwt>
<pdfrwt beam="2">  1       -1 0.88567318E-03 0.95330843E+02</pdfrwt>
<totfact> 0.11953667E+05</totfact>
</mgrwt>
</event>
<event>
 5    1  0.2734570E+000  0.9174631E+02  0.7818608E-02  0.1298677E+00
         -1   -1    0    0    0  501 -0.00000000000E+00  0.00000000000E+00  0.26628000909E+02  0.26628001318E+02  0.46700000000E-02 0.  1.
          1   -1    0    0  501    0  0.00000000000E+00 -0.00000000000E+00 -0.79027577739E+02  0.79027577877E+02  0.46700000000E-02 0. -1.
         23    2    1    2    0    0  0.00000000000E+00  0.00000000000E+00 -0.52399576830E+02  0.10565557920E+03  0.91746311987E+02 0.  0.
        -13    1    3    3    0    0 -0.40822025623E+01 -0.34095429119E+02  0.88282003358E+01  0.35455760579E+02  0.10570000000E+00 0.  1.
         13    1    3    3    0    0  0.40822025623E+01  0.34095429119E+02 -0.61227777166E+02  0.70199818616E+02  0.10570000000E+00 0. -1.
<mgrwt>
<rscale>  0 0.91746312E+02</rscale>
<asrwt>0</asrwt>
<pdfrwt beam="2">  1        1 0.12158089E-01 0.91746312E+02</pdfrwt>
<pdfrwt beam="1">  1       -1 0.40966156E-02 0.91746312E+02</pdfrwt>
<totfact> 0.98843256E+04</totfact>
</mgrwt>
</event>
<event>
 4    1  0.2734570E+000  0.5309573E+02  0.7818608E-02  0.1429325E+00
         -1   -1    0    0    0  501 -0.00000000000E+00  0.00000000000E+00  0.43690096216E+02  0.43690096465E+02  0.46700000000E-02 0. -1.
          1   -1    0    0  501    0  0.00000000000E+00 -0.00000000000E+00 -0.16131554266E+02  0.16131554942E+02  0.46700000000E-02 0.  1.
        -13    1    1    2    0    0 -0.88300065574E+01 -0.21512592243E+02  0.28208519423E+02  0.36558068621E+02  0.10570000000E+00 0. -1.
         13    1    1    2    0    0  0.88300065574E+01  0.21512592243E+02 -0.64997747287E+00  0.23263582785E+02  0.10570000000E+00 0.  1.
<mgrwt>
<rscale>  0 0.53095732E+02</rscale>
<asrwt>0</asrwt>
<pdfrwt beam="2">  1        1 0.24817777E-02 0.53095732E+02</pdfrwt>
<pdfrwt beam="1">  1       -1 0.67215533E-02 0.53095732E+02</pdfrwt>
<totfact> 0.35775276E+05</totfact>
</mgrwt>
</event>
<event>
 5    1  0.2734570E+000  0.9313338E+02  0.7818608E-02  0.1295436E+00
         -1   -1    0    0    0  501 -0.00000000000E+00  0.00000000000E+00  0.28978238403E+02  0.28978238779E+02  0.46700000000E-02 0.  1.
          1   -1    0    0  501    0  0.00000000000E+00 -0.00000000000E+00 -0.74830525394E+02  0.74830525540E+02  0.46700000000E-02 0. -1.
         23    2    1    2    0    0  0.00000000000E+00  0.00000000000E+00 -0.45852286992E+02  0.10380876432E+03  0.93133384600E+02 0.  0.
        -13    1    3    3    0    0  0.29330054030E+02  0.92387958208E+01  0.16051281212E+02  0.34688070265E+02  0.10570000000E+00 0.  1.
         13    1    3    3    0    0 -0.29330054030E+02 -0.92387958208E+01 -0.61903568204E+02  0.69120694054E+02  0.10570000000E+00 0. -1.
<mgrwt>
<rscale>  0 0.93133385E+02</rscale>
<asrwt>0</asrwt>
<pdfrwt beam="2">  1        1 0.11512389E-01 0.93133385E+02</pdfrwt>
<pdfrwt beam="1">  1       -1 0.44581906E-02 0.93133385E+02</pdfrwt>
<totfact> 0.94023671E+04</totfact>
</mgrwt>
</event>
<event>
 5    1  0.2734570E+000  0.9155575E+02  0.7818608E-02  0.1299127E+00
         -1   -1    0    0    0  501 -0.00000000000E+00  0.00000000000E+00  0.54692736377E+02  0.54692736576E+02  0.46700000000E-02 0.  1.
          1   -1    0    0  501    0  0.00000000000E+00 -0.00000000000E+00 -0.38316124142E+02  0.38316124427E+02  0.46700000000E-02 0. -1.
         23    2    1    2    0    0  0.00000000000E+00  0.00000000000E+00  0.16376612234E+02  0.93008861003E+02  0.91555746935E+02 0.  0.
        -13    1    3    3    0    0 -0.20226198078E+02 -0.39799164824E+02 -0.20981083575E+01  0.44693241553E+02  0.10570000000E+00 0. -1.
         13    1    3    3    0    0  0.20226198078E+02  0.39799164824E+02  0.18474720592E+02  0.48315619450E+02  0.10570000000E+00 0.  1.
<mgrwt>
<rscale>  0 0.91555747E+02</rscale>
<asrwt>0</asrwt>
<pdfrwt beam="2">  1        1 0.58947884E-02 0.91555747E+02</pdfrwt>
<pdfrwt beam="1">  1       -1 0.84142672E-02 0.91555747E+02</pdfrwt>
<totfact> 0.89018564E+04</totfact>
</mgrwt>
</event>
<event>
 5    1  0.2734570E+000  0.9084210E+02  0.7818608E-02  0.1300825E+00
          1   -1    0    0  501    0  0.00000000000E+00  0.00000000000E+00  0.93686714538E+02  0.93686714655E+02  0.46700000000E-02 0. -1.
         -1   -1    0    0    0  501 -0.00000000000E+00 -0.00000000000E+00 -0.22020961763E+02  0.22020962259E+02  0.46700000000E-02 0.  1.
         23    2    1    2    0    0  0.00000000000E+00  0.00000000000E+00  0.71665752775E+02  0.11570767691E+03  0.90842095836E+02 0.  0.
        -13    1    3    3    0    0 -0.35678069434E+02 -0.79527925514E+01  0.70173568159E+02  0.79123399754E+02  0.10570000000E+00 0. -1.
         13    1    3    3    0    0  0.35678069434E+02  0.79527925514E+01  0.14921846161E+01  0.36584277160E+02  0.10570000000E+00 0.  1.
<mgrwt>
<rscale>  0 0.90842096E+02</rscale>
<asrwt>0</asrwt>
<pdfrwt beam="1">  1        1 0.14413341E-01 0.90842096E+02</pdfrwt>
<pdfrwt beam="2">  1       -1 0.33878404E-02 0.90842096E+02</pdfrwt>
<totfact> 0.10437700E+05</totfact>
</mgrwt>
</event>
<event>
 5    1  0.2734570E+000  0.9127523E+02  0.7818608E-02  0.1299793E+00
         -1   -1    0    0    0  501 -0.00000000000E+00  0.00000000000E+00  0.10572161398E+02  0.10572162429E+02  0.46700000000E-02 0.  1.
          1   -1    0    0  501    0  0.00000000000E+00 -0.00000000000E+00 -0.19700720633E+03  0.19700720639E+03  0.46700000000E-02 0. -1.
         23    2    1    2    0    0  0.00000000000E+00  0.00000000000E+00 -0.18643504494E+03  0.20757936882E+03  0.91275234202E+02 0.  0.
        -13    1    3    3    0    0 -0.43813045145E+02 -0.12761915246E+02 -0.91908087829E+02  0.10261363061E+03  0.10570000000E+00 0. -1.
         13    1    3    3    0    0  0.43813045145E+02  0.12761915246E+02 -0.94526957106E+02  0.10496573821E+03  0.10570000000E+00 0.  1.
<mgrwt>
<rscale>  0 0.91275234E+02</rscale>
<asrwt>0</asrwt>
<pdfrwt beam="2">  1        1 0.30308798E-01 0.91275234E+02</pdfrwt>
<pdfrwt beam="1">  1       -1 0.16264866E-02 0.91275234E+02</pdfrwt>
<totfact> 0.11771918E+05</totfact>
</mgrwt>
</event>
<event>
 5    1  0.2734570E+000  0.9143525E+02  0.7818608E-02  0.1299413E+00
         -1   -1    0    0    0  501 -0.00000000000E+00  0.00000000000E+00  0.21049896481E+03  0.21049896486E+03  0.46700000000E-02 0.  1.
          1   -1    0    0  501    0  0.00000000000E+00 -0.00000000000E+00 -0.99292700757E+01  0.99292711739E+01  0.46700000000E-02 0. -1.
         23    2    1    2    0    0  0.00000000000E+00  0.00000000000E+00  0.20056969474E+03  0.22042823604E+03  0.91435249199E+02 0.  0.
        -13    1    3    3    0    0  0.21853424874E+02  0.40097008554E+02  0.10553772911E+03  0.11499376379E+03  0.10570000000E+00 0. -1.
         13    1    3    3    0    0 -0.21853424874E+02 -0.40097008554E+02  0.95031965631E+02  0.10543447225E+03  0.10570000000E+00 0.  1.
<mgrwt>
<rscale>  0 0.91435249E+02</rscale>
<asrwt>0</asrwt>
<pdfrwt beam="2">  1        1 0.15275802E-02 0.91435249E+02</pdfrwt>
<pdfrwt beam="1">  1       -1 0.32384455E-01 0.91435249E+02</pdfrwt>
<totfact> 0.67893651E+04</totfact>
</mgrwt>
</event>
<event>
 5    1  0.2734570E+000  0.8899873E+02  0.7818608E-02  0.1305295E+00
         -1   -1    0    0    0  501 -0.00000000000E+00  0.00000000000E+00  0.12427407152E+03  0.12427407161E+03  0.46700000000E-02 0.  1.
          1   -1    0    0  501    0  0.00000000000E+00 -0.00000000000E+00 -0.15934082356E+02  0.15934083040E+02  0.46700000000E-02 0. -1.
         23    2    1    2    0    0  0.00000000000E+00  0.00000000000E+00  0.10833998916E+03  0.14020815465E+03  0.88998726832E+02 0.  0.
        -13    1    3    3    0    0  0.41113739199E+02 -0.12077052829E+02  0.73073909256E+02  0.84711286984E+02  0.10570000000E+00 0. -1.
         13    1    3    3    0    0 -0.41113739199E+02  0.12077052829E+02  0.35266079908E+02  0.55496867664E+02  0.10570000000E+00 0.  1.
<mgrwt>
<rscale>  0 0.88998727E+02</rscale>
<asrwt>0</asrwt>
<pdfrwt beam="2">  1        1 0.24513975E-02 0.88998727E+02</pdfrwt>
<pdfrwt beam="1">  1       -1 0.19119086E-01 0.88998727E+02</pdfrwt>
<totfact> 0.82990030E+04</totfact>
</mgrwt>
</event>
<event>
 5    1  0.2734570E+000  0.8834930E+02  0.7818608E-02  0.1306899E+00
          1   -1    0    0  501    0  0.00000000000E+00  0.00000000000E+00  0.14215717230E+02  0.14215717997E+02  0.46700000000E-02 0. -1.
         -1   -1    0    0    0  501 -0.00000000000E+00 -0.00000000000E+00 -0.13727057062E+03  0.13727057070E+03  0.46700000000E-02 0.  1.
         23    2    1    2    0    0  0.00000000000E+00  0.00000000000E+00 -0.12305485339E+03  0.15148628870E+03  0.88349299492E+02 0.  0.
        -13    1    3    3    0    0  0.27526679328E+02 -0.80846274622E+00 -0.23040045451E+01  0.27634965103E+02  0.10570000000E+00 0. -1.
         13    1    3    3    0    0 -0.27526679328E+02  0.80846274622E+00 -0.12075084885E+03  0.12385132360E+03  0.10570000000E+00 0.  1.
<mgrwt>
<rscale>  0 0.88349299E+02</rscale>
<asrwt>0</asrwt>
<pdfrwt beam="1">  1        1 0.21870336E-02 0.88349299E+02</pdfrwt>
<pdfrwt beam="2">  1       -1 0.21118549E-01 0.88349299E+02</pdfrwt>
<totfact> 0.82795894E+04</totfact>
</mgrwt>
</event>
<event>
 5    1  0.2734570E+000  0.9184518E+02  0.7818608E-02  0.1298444E+00
          1   -1    0    0  501    0  0.00000000000E+00  0.00000000000E+00  0.45708460129E+02  0.45708460368E+02  0.46700000000E-02 0. -1.
         -1   -1    0    0    0  501 -0.00000000000E+00 -0.00000000000E+00 -0.46137719005E+02  0.46137719241E+02  0.46700000000E-02 0.  1.
         23    2    1    2    0    0  0.00000000000E+00  0.00000000000E+00 -0.42925887582E+00  0.91846179609E+02  0.91845176496E+02 0.  0.
        -13    1    3    3    0    0 -0.38859609339E+02  0.22408920210E+02 -0.10045504630E+02  0.45969036086E+02  0.10570000000E+00 0.  1.
         13    1    3    3    0    0  0.38859609339E+02 -0.22408920210E+02  0.96162457539E+01  0.45877143523E+02  0.10570000000E+00 0. -1.
<mgrwt>
<rscale>  0 0.91845176E+02</rscale>
<asrwt>0</asrwt>
<pdfrwt beam="1">  1        1 0.70320708E-02 0.91845176E+02</pdfrwt>
<pdfrwt beam="2">  1       -1 0.70981106E-02 0.91845176E+02</pdfrwt>
<totfact> 0.90628994E+04</totfact>
</mgrwt>
</event>
<event>
 5    1  0.2734570E+000  0.9216848E+02  0.7818608E-02  0.1297684E+00
         -1   -1    0    0    0  501 -0.00000000000E+00  0.00000000000E+00  0.26386904648E+02  0.26386905061E+02  0.46700000000E-02 0.  1.
          1   -1    0    0  501    0  0.00000000000E+00 -0.00000000000E+00 -0.80485277601E+02  0.80485277737E+02  0.46700000000E-02 0. -1.
         23    2    1    2    0    0  0.00000000000E+00  0.00000000000E+00 -0.54098372954E+02  0.10687218280E+03  0.92168484309E+02 0.  0.
        -13    1    3    3    0    0 -0.28789228999E+02 -0.30003285172E+02 -0.40118663407E+01  0.41774670214E+02  0.10570000000E+00 0.  1.
         13    1    3    3    0    0  0.28789228999E+02  0.30003285172E+02 -0.50086506613E+02  0.65097512584E+02  0.10570000000E+00 0. -1.
<mgrwt>
<rscale>  0 0.92168484E+02</rscale>
<asrwt>0</asrwt>
<pdfrwt beam="2">  1        1 0.12382350E-01 0.92168484E+02</pdfrwt>
<pdfrwt beam="1">  1       -1 0.40595239E-02 0.92168484E+02</pdfrwt>
<totfact> 0.97886000E+04</totfact>
</mgrwt>
</event>
<event>
 5    1  0.2734570E+000  0.9092339E+02  0.7818608E-02  0.1300631E+00
          1   -1    0    0  501    0  0.00000000000E+00  0.00000000000E+00  0.28599523281E+02  0.28599523662E+02  0.46700000000E-02 0. -1.
         -1   -1    0    0    0  501 -0.00000000000E+00 -0.00000000000E+00 -0.72265740870E+02  0.72265741021E+02  0.46700000000E-02 0.  1.
         23    2    1    2    0    0  0.00000000000E+00  0.00000000000E+00 -0.43666217590E+02  0.10086526468E+03  0.90923391165E+02 0.  0.
        -13    1    3    3    0    0 -0.28284484786E+02 -0.10261289644E+01 -0.61299699189E+02  0.67518362787E+02  0.10570000000E+00 0.  1.
         13    1    3    3    0    0  0.28284484786E+02  0.10261289644E+01  0.17633481599E+02  0.33346901896E+02  0.10570000000E+00 0. -1.
<mgrwt>
<rscale>  0 0.90923391E+02</rscale>
<asrwt>0</asrwt>
<pdfrwt beam="1">  1        1 0.43999267E-02 0.90923391E+02</pdfrwt>
<pdfrwt beam="2">  1       -1 0.11117806E-01 0.90923391E+02</pdfrwt>
<totfact> 0.86706277E+04</totfact>
</mgrwt>
</event>
<event>
 5    1  0.2734570E+000  0.9124211E+02  0.7818608E-02  0.1299871E+00
          1   -1    0    0  501    0  0.00000000000E+00  0.00000000000E+00  0.36938362168E+03  0.36938362171E+03  0.46700000000E-02 0. -1.
         -1   -1    0    0    0  501 -0.00000000000E+00 -0.00000000000E+00 -0.56344681388E+01  0.56344700741E+01  0.46700000000E-02 0.  1.
         23    2    1    2    0    0  0.00000000000E+00  0.00000000000E+00  0.36374915354E+03  0.37501809179E+03  0.91242109046E+02 0.  0.
        -13    1    3    3    0    0 -0.37966095835E+02 -0.23015510460E+02  0.13874131861E+03  0.14567190126E+03  0.10570000000E+00 0. -1.
         13    1    3    3    0    0  0.37966095835E+02  0.23015510460E+02  0.22500783493E+03  0.22934619052E+03  0.10570000000E+00 0.  1.
<mgrwt>
<rscale>  0 0.91242109E+02</rscale>
<asrwt>0</asrwt>
<pdfrwt beam="1">  1        1 0.56828262E-01 0.91242109E+02</pdfrwt>
<pdfrwt beam="2">  1       -1 0.86684122E-03 0.91242109E+02</pdfrwt>
<totfact> 0.13283394E+05</totfact>
</mgrwt>
</event>
<event>
 5    1  0.2734570E+000  0.9005898E+02  0.7818608E-02  0.1302709E+00
         -1   -1    0    0    0  501 -0.00000000000E+00  0.00000000000E+00  0.23282167612E+02  0.23282168080E+02  0.46700000000E-02 0.  1.
          1   -1    0    0  501    0  0.00000000000E+00 -0.00000000000E+00 -0.87090478584E+02  0.87090478709E+02  0.46700000000E-02 0. -1.
         23    2    1    2    0    0  0.00000000000E+00  0.00000000000E+00 -0.63808310972E+02  0.11037264679E+03  0.90058984061E+02 0.  0.
        -13    1    3    3    0    0 -0.21453658297E+02  0.55786169426E+01  0.16131893414E+02  0.27415863636E+02  0.10570000000E+00 0. -1.
         13    1    3    3    0    0  0.21453658297E+02 -0.55786169426E+01 -0.79940204386E+02  0.82956783153E+02  0.10570000000E+00 0.  1.
<mgrwt>
<rscale>  0 0.90058984E+02</rscale>
<asrwt>0</asrwt>
<pdfrwt beam="2">  1        1 0.13398535E-01 0.90058984E+02</pdfrwt>
<pdfrwt beam="1">  1       -1 0.35818720E-02 0.90058984E+02</pdfrwt>
<totfact> 0.10561840E+05</totfact>
</mgrwt>
</event>
<event>
 5    1  0.2734570E+000  0.9116329E+02  0.7818608E-02  0.1300059E+00
          1   -1    0    0  501    0  0.00000000000E+00  0.00000000000E+00  0.25408485292E+02  0.25408485721E+02  0.46700000000E-02 0.  1.
         -1   -1    0    0    0  501 -0.00000000000E+00 -0.00000000000E+00 -0.81771359032E+02  0.81771359165E+02  0.46700000000E-02 0. -1.
         23    2    1    2    0    0  0.00000000000E+00  0.00000000000E+00 -0.56362873740E+02  0.10717984489E+03  0.91163290933E+02 0.  0.
        -13    1    3    3    0    0 -0.12692057825E+02 -0.14468001700E+02 -0.76759863972E+02  0.79135954499E+02  0.10570000000E+00 0. -1.
         13    1    3    3    0    0  0.12692057825E+02  0.14468001700E+02  0.20396990232E+02  0.28043890387E+02  0.10570000000E+00 0.  1.
<mgrwt>
<rscale>  0 0.91163291E+02</rscale>
<asrwt>0</asrwt>
<pdfrwt beam="1">  1        1 0.39089978E-02 0.91163291E+02</pdfrwt>
<pdfrwt beam="2">  1       -1 0.12580209E-01 0.91163291E+02</pdfrwt>
<totfact> 0.84368621E+04</totfact>
</mgrwt>
</event>
<event>
 5    1  0.2734570E+000  0.9149156E+02  0.7818608E-02  0.1299279E+00
          1   -1    0    0  501    0  0.00000000000E+00  0.00000000000E+00  0.49496133657E+02  0.49496133877E+02  0.46700000000E-02 0. -1.
         -1   -1    0    0    0  501 -0.00000000000E+00 -0.00000000000E+00 -0.42279592071E+02  0.42279592329E+02  0.46700000000E-02 0.  1.
         23    2    1    2    0    0  0.00000000000E+00  0.00000000000E+00  0.72165415860E+01  0.91775726206E+02  0.91491559437E+02 0.  0.
        -13    1    3    3    0    0 -0.31298455642E+02 -0.13112729708E+02  0.34381366624E+02  0.48307624133E+02  0.10570000000E+00 0. -1.
         13    1    3    3    0    0  0.31298455642E+02  0.13112729708E+02 -0.27164825038E+02  0.43468102073E+02  0.10570000000E+00 0.  1.
<mgrwt>
<rscale>  0 0.91491559E+02</rscale>
<asrwt>0</asrwt>
<pdfrwt beam="1">  1        1 0.76147898E-02 0.91491559E+02</pdfrwt>
<pdfrwt beam="2">  1       -1 0.65045527E-02 0.91491559E+02</pdfrwt>
<totfact> 0.92722509E+04</totfact>
</mgrwt>
</event>
<event>
 5    1  0.2734570E+000  0.9194897E+02  0.7818608E-02  0.1298199E+00
         -1   -1    0    0    0  501 -0.00000000000E+00  0.00000000000E+00  0.12857889100E+03  0.12857889108E+03  0.46700000000E-02 0.  1.
          1   -1    0    0  501    0  0.00000000000E+00 -0.00000000000E+00 -0.16438571704E+02  0.16438572367E+02  0.46700000000E-02 0. -1.
         23    2    1    2    0    0  0.00000000000E+00  0.00000000000E+00  0.11214031929E+03  0.14501746345E+03  0.91948972230E+02 0.  0.
        -13    1    3    3    0    0  0.28644849288E+02  0.15490737189E+02  0.48879622794E+01  0.32930133269E+02  0.10570000000E+00 0. -1.
         13    1    3    3    0    0 -0.28644849288E+02 -0.15490737189E+02  0.10725235701E+03  0.11208733018E+03  0.10570000000E+00 0.  1.
<mgrwt>
<rscale>  0 0.91948972E+02</rscale>
<asrwt>0</asrwt>
<pdfrwt beam="2">  1        1 0.25290110E-02 0.91948972E+02</pdfrwt>
<pdfrwt beam="1">  1       -1 0.19781369E-01 0.91948972E+02</pdfrwt>
<totfact> 0.75733122E+04</totfact>
</mgrwt>
</event>
<event>
 5    1  0.2734570E+000  0.9247259E+02  0.7818608E-02  0.1296972E+00
          1   -1    0    0  501    0  0.00000000000E+00  0.00000000000E+00  0.13070507358E+03  0.13070507367E+03  0.46700000000E-02 0. -1.
         -1   -1    0    0    0  501 -0.00000000000E+00 -0.00000000000E+00 -0.16355867928E+02  0.16355868595E+02  0.46700000000E-02 0.  1.
         23    2    1    2    0    0  0.00000000000E+00  0.00000000000E+00  0.11434920566E+03  0.14706094226E+03  0.92472590020E+02 0.  0.
        -13    1    3    3    0    0 -0.24805299972E+02  0.15928380572E+02  0.52780554406E+00  0.29483995074E+02  0.10570000000E+00 0.  1.
         13    1    3    3    0    0  0.24805299972E+02 -0.15928380572E+02  0.11382140011E+03  0.11757694719E+03  0.10570000000E+00 0. -1.
<mgrwt>
<rscale>  0 0.92472590E+02</rscale>
<asrwt>0</asrwt>
<pdfrwt beam="1">  1        1 0.20108473E-01 0.92472590E+02</pdfrwt>
<pdfrwt beam="2">  1       -1 0.25162874E-02 0.92472590E+02</pdfrwt>
<totfact> 0.10526719E+05</totfact>
</mgrwt>
</event>
<event>
 5    1  0.2734570E+000  0.8995079E+02  0.7818608E-02  0.1302971E+00
         -1   -1    0    0    0  501 -0.00000000000E+00  0.00000000000E+00  0.83175584155E+01  0.83175597265E+01  0.46700000000E-02 0.  1.
          1   -1    0    0  501    0  0.00000000000E+00 -0.00000000000E+00 -0.24319470694E+03  0.24319470699E+03  0.46700000000E-02 0. -1.
         23    2    1    2    0    0  0.00000000000E+00  0.00000000000E+00 -0.23487714853E+03  0.25151226672E+03  0.89950794368E+02 0.  0.
        -13    1    3    3    0    0  0.33638140006E+02  0.41318031991E+01 -0.34767356918E+02  0.48552822166E+02  0.10570000000E+00 0.  1.
         13    1    3    3    0    0 -0.33638140006E+02 -0.41318031991E+01 -0.20010979161E+03  0.20295944455E+03  0.10570000000E+00 0. -1.
<mgrwt>
<rscale>  0 0.89950794E+02</rscale>
<asrwt>0</asrwt>
<pdfrwt beam="2">  1        1 0.37414565E-01 0.89950794E+02</pdfrwt>
<pdfrwt beam="1">  1       -1 0.12796247E-02 0.89950794E+02</pdfrwt>
<totfact> 0.12753301E+05</totfact>
</mgrwt>
</event>
<event>
 5    1  0.2734570E+000  0.9159922E+02  0.7818608E-02  0.1299025E+00
         -1   -1    0    0    0  501 -0.00000000000E+00  0.00000000000E+00  0.10336614498E+02  0.10336615553E+02  0.46700000000E-02 0.  1.
          1   -1    0    0  501    0  0.00000000000E+00 -0.00000000000E+00 -0.20292950458E+03  0.20292950463E+03  0.46700000000E-02 0. -1.
         23    2    1    2    0    0  0.00000000000E+00  0.00000000000E+00 -0.19259289008E+03  0.21326612018E+03  0.91599217842E+02 0.  0.
        -13    1    3    3    0    0  0.31045386619E+02  0.14313710386E+02 -0.16725640115E+03  0.17071442011E+03  0.10570000000E+00 0. -1.
         13    1    3    3    0    0 -0.31045386619E+02 -0.14313710386E+02 -0.25336488926E+02  0.42551700071E+02  0.10570000000E+00 0.  1.
<mgrwt>
<rscale>  0 0.91599218E+02</rscale>
<asrwt>0</asrwt>
<pdfrwt beam="2">  1        1 0.31219921E-01 0.91599218E+02</pdfrwt>
<pdfrwt beam="1">  1       -1 0.15902486E-02 0.91599218E+02</pdfrwt>
<totfact> 0.11727680E+05</totfact>
</mgrwt>
</event>
<event>
 4    1  0.2734570E+000  0.1487463E+03  0.7818608E-02  0.1202022E+00
         -1   -1    0    0    0  501 -0.00000000000E+00  0.00000000000E+00  0.32699431985E+02  0.32699432319E+02  0.46700000000E-02 0.  1.
          1   -1    0    0  501    0  0.00000000000E+00 -0.00000000000E+00 -0.16915785160E+03  0.16915785167E+03  0.46700000000E-02 0. -1.
        -13    1    1    2    0    0 -0.13132448450E+02 -0.58781801926E+02 -0.90205401104E+01  0.60902731929E+02  0.10570000000E+00 0.  1.
         13    1    1    2    0    0  0.13132448450E+02  0.58781801926E+02 -0.12743787951E+03  0.14095455206E+03  0.10570000000E+00 0. -1.
<mgrwt>
<rscale>  0 0.14874630E+03</rscale>
<asrwt>0</asrwt>
<pdfrwt beam="2">  1        1 0.26024284E-01 0.14874630E+03</pdfrwt>
<pdfrwt beam="1">  1       -1 0.50306820E-02 0.14874630E+03</pdfrwt>
<totfact> 0.29504619E+04</totfact>
</mgrwt>
</event>
<event>
 5    1  0.2734570E+000  0.7590186E+02  0.7818608E-02  0.1341101E+00
          1   -1    0    0  501    0  0.00000000000E+00  0.00000000000E+00  0.25278242324E+02  0.25278242756E+02  0.46700000000E-02 0. -1.
         -1   -1    0    0    0  501 -0.00000000000E+00 -0.00000000000E+00 -0.56976790650E+02  0.56976790841E+02  0.46700000000E-02 0.  1.
         23    2    1    2    0    0  0.00000000000E+00  0.00000000000E+00 -0.31698548326E+02  0.82255033597E+02  0.75901861546E+02 0.  0.
        -13    1    3    3    0    0 -0.32967170689E+02 -0.17237252425E+02 -0.23980997809E+02  0.44261231827E+02  0.10570000000E+00 0.  1.
         13    1    3    3    0    0  0.32967170689E+02  0.17237252425E+02 -0.77175505164E+01  0.37993801770E+02  0.10570000000E+00 0. -1.
<mgrwt>
<rscale>  0 0.75901862E+02</rscale>
<asrwt>0</asrwt>
<pdfrwt beam="1">  1        1 0.38889604E-02 0.75901862E+02</pdfrwt>
<pdfrwt beam="2">  1       -1 0.87656601E-02 0.75901862E+02</pdfrwt>
<totfact> 0.14207987E+05</totfact>
</mgrwt>
</event>
<event>
 5    1  0.2734570E+000  0.8891190E+02  0.7818608E-02  0.1305508E+00
         -1   -1    0    0    0  501 -0.00000000000E+00  0.00000000000E+00  0.15338792415E+02  0.15338793125E+02  0.46700000000E-02 0.  1.
          1   -1    0    0  501    0  0.00000000000E+00 -0.00000000000E+00 -0.12884530792E+03  0.12884530801E+03  0.46700000000E-02 0. -1.
         23    2    1    2    0    0  0.00000000000E+00  0.00000000000E+00 -0.11350651551E+03  0.14418410113E+03  0.88911899973E+02 0.  0.
        -13    1    3    3    0    0 -0.23446789172E+02 -0.20218567415E+01 -0.11791511189E+03  0.12024069449E+03  0.10570000000E+00 0. -1.
         13    1    3    3    0    0  0.23446789172E+02  0.20218567415E+01  0.44085963804E+01  0.23943406643E+02  0.10570000000E+00 0.  1.
<mgrwt>
<rscale>  0 0.88911900E+02</rscale>
<asrwt>0</asrwt>
<pdfrwt beam="2">  1        1 0.19822354E-01 0.88911900E+02</pdfrwt>
<pdfrwt beam="1">  1       -1 0.23598144E-02 0.88911900E+02</pdfrwt>
<totfact> 0.11676439E+05</totfact>
</mgrwt>
</event>
<event>
 5    1  0.2734570E+000  0.9022926E+02  0.7818608E-02  0.1302297E+00
          1   -1    0    0  501    0  0.00000000000E+00  0.00000000000E+00  0.12068045772E+02  0.12068046676E+02  0.46700000000E-02 0. -1.
         -1   -1    0    0    0  501 -0.00000000000E+00 -0.00000000000E+00 -0.16865447302E+03  0.16865447309E+03  0.46700000000E-02 0.  1.
         23    2    1    2    0    0  0.00000000000E+00  0.00000000000E+00 -0.15658642725E+03  0.18072251976E+03  0.90229263272E+02 0.  0.
        -13    1    3    3    0    0  0.34811902087E+02  0.63417767708E+01 -0.13434766630E+03  0.13892945430E+03  0.10570000000E+00 0.  1.
         13    1    3    3    0    0 -0.34811902087E+02 -0.63417767708E+01 -0.22238760946E+02  0.41793065459E+02  0.10570000000E+00 0. -1.
<mgrwt>
<rscale>  0 0.90229263E+02</rscale>
<asrwt>0</asrwt>
<pdfrwt beam="1">  1        1 0.18566226E-02 0.90229263E+02</pdfrwt>
<pdfrwt beam="2">  1       -1 0.25946840E-01 0.90229263E+02</pdfrwt>
<totfact> 0.74684084E+04</totfact>
</mgrwt>
</event>
<event>
 5    1  0.2734570E+000  0.9345641E+02  0.7818608E-02  0.1294691E+00
         -1   -1    0    0    0  501 -0.00000000000E+00  0.00000000000E+00  0.88580019990E+02  0.88580020113E+02  0.46700000000E-02 0.  1.
          1   -1    0    0  501    0  0.00000000000E+00 -0.00000000000E+00 -0.24650312996E+02  0.24650313438E+02  0.46700000000E-02 0. -1.
         23    2    1    2    0    0  0.00000000000E+00  0.00000000000E+00  0.63929706994E+02  0.11323033355E+03  0.93456412299E+02 0.  0.
        -13    1    3    3    0    0 -0.26067605173E+02  0.26009125891E+02  0.66818062931E+02  0.76293245936E+02  0.10570000000E+00 0.  1.
         13    1    3    3    0    0  0.26067605173E+02 -0.26009125891E+02 -0.28883559374E+01  0.36937087616E+02  0.10570000000E+00 0. -1.
<mgrwt>
<rscale>  0 0.93456412E+02</rscale>
<asrwt>0</asrwt>
<pdfrwt beam="2">  1        1 0.37923558E-02 0.93456412E+02</pdfrwt>
<pdfrwt beam="1">  1       -1 0.13627696E-01 0.93456412E+02</pdfrwt>
<totfact> 0.78059950E+04</totfact>
</mgrwt>
</event>
<event>
 5    1  0.2734570E+000  0.9151293E+02  0.7818608E-02  0.1299229E+00
         -1   -1    0    0    0  501 -0.00000000000E+00  0.00000000000E+00  0.34124653406E+02  0.34124653726E+02  0.46700000000E-02 0.  1.
          1   -1    0    0  501    0  0.00000000000E+00 -0.00000000000E+00 -0.61353129853E+02  0.61353130031E+02  0.46700000000E-02 0. -1.
         23    2    1    2    0    0  0.00000000000E+00  0.00000000000E+00 -0.27228476447E+02  0.95477783757E+02  0.91512934941E+02 0.  0.
        -13    1    3    3    0    0  0.68067824018E+01  0.34499702616E+02  0.16930110863E+02  0.39028215353E+02  0.10570000000E+00 0.  1.
         13    1    3    3    0    0 -0.68067824018E+01 -0.34499702616E+02 -0.44158587310E+02  0.56449568404E+02  0.10570000000E+00 0. -1.
<mgrwt>
<rscale>  0 0.91512935E+02</rscale>
<asrwt>0</asrwt>
<pdfrwt beam="2">  1        1 0.94389431E-02 0.91512935E+02</pdfrwt>
<pdfrwt beam="1">  1       -1 0.52499467E-02 0.91512935E+02</pdfrwt>
<totfact> 0.95715177E+04</totfact>
</mgrwt>
</event>
<event>
 5    1  0.2734570E+000  0.9172185E+02  0.7818608E-02  0.1298735E+00
          1   -1    0    0  501    0  0.00000000000E+00  0.00000000000E+00  0.22470352629E+03  0.22470352634E+03  0.46700000000E-02 0. -1.
         -1   -1    0    0    0  501 -0.00000000000E+00 -0.00000000000E+00 -0.93599972582E+01  0.93599984232E+01  0.46700000000E-02 0.  1.
         23    2    1    2    0    0  0.00000000000E+00  0.00000000000E+00  0.21534352903E+03  0.23406352476E+03  0.91721851966E+02 0.  0.
        -13    1    3    3    0    0 -0.12140736739E+02 -0.31832385667E+02  0.29327883364E+02  0.44953689291E+02  0.10570000000E+00 0.  1.
         13    1    3    3    0    0  0.12140736739E+02  0.31832385667E+02  0.18601564567E+03  0.18910983547E+03  0.10570000000E+00 0. -1.
<mgrwt>
<rscale>  0 0.91721852E+02</rscale>
<asrwt>0</asrwt>
<pdfrwt beam="1">  1        1 0.34569771E-01 0.91721852E+02</pdfrwt>
<pdfrwt beam="2">  1       -1 0.14399998E-02 0.91721852E+02</pdfrwt>
<totfact> 0.11920383E+05</totfact>
</mgrwt>
</event>
<event>
 5    1  0.2734570E+000  0.9190725E+02  0.7818608E-02  0.1298298E+00
         -1   -1    0    0    0  501 -0.00000000000E+00  0.00000000000E+00  0.58265814612E+02  0.58265814799E+02  0.46700000000E-02 0. -1.
          1   -1    0    0  501    0  0.00000000000E+00 -0.00000000000E+00 -0.36243129727E+02  0.36243130028E+02  0.46700000000E-02 0.  1.
         23    2    1    2    0    0  0.00000000000E+00  0.00000000000E+00  0.22022684885E+02  0.94508944827E+02  0.91907246737E+02 0.  0.
        -13    1    3    3    0    0 -0.22888087338E+02  0.14942008503E+02 -0.26974803454E+02  0.38402856065E+02  0.10570000000E+00 0.  1.
         13    1    3    3    0    0  0.22888087338E+02 -0.14942008503E+02  0.48997488339E+02  0.56106088761E+02  0.10570000000E+00 0. -1.
<mgrwt>
<rscale>  0 0.91907247E+02</rscale>
<asrwt>0</asrwt>
<pdfrwt beam="2">  1        1 0.55758662E-02 0.91907247E+02</pdfrwt>
<pdfrwt beam="1">  1       -1 0.89639714E-02 0.91907247E+02</pdfrwt>
<totfact> 0.87301406E+04</totfact>
</mgrwt>
</event>
<event>
 5    1  0.2734570E+000  0.8249357E+02  0.7818608E-02  0.1322120E+00
          1   -1    0    0  501    0  0.00000000000E+00  0.00000000000E+00  0.87880207750E+02  0.87880207874E+02  0.46700000000E-02 0. -1.
         -1   -1    0    0    0  501 -0.00000000000E+00 -0.00000000000E+00 -0.19359275204E+02  0.19359275767E+02  0.46700000000E-02 0.  1.
         23    2    1    2    0    0  0.00000000000E+00  0.00000000000E+00  0.68520932546E+02  0.10723948364E+03  0.82493567354E+02 0.  0.
        -13    1    3    3    0    0  0.11529174520E+02 -0.28869687820E+02  0.69501635168E+02  0.76137173598E+02  0.10570000000E+00 0.  1.
         13    1    3    3    0    0 -0.11529174520E+02  0.28869687820E+02 -0.98070262202E+00  0.31102310044E+02  0.10570000000E+00 0. -1.
<mgrwt>
<rscale>  0 0.82493567E+02</rscale>
<asrwt>0</asrwt>
<pdfrwt beam="1">  1        1 0.13520032E-01 0.82493567E+02</pdfrwt>
<pdfrwt beam="2">  1       -1 0.29783501E-02 0.82493567E+02</pdfrwt>
<totfact> 0.13421711E+05</totfact>
</mgrwt>
</event>
<event>
 5    1  0.2734570E+000  0.9031175E+02  0.7818608E-02  0.1302098E+00
         -1   -1    0    0    0  501 -0.00000000000E+00  0.00000000000E+00  0.91379817926E+02  0.91379818046E+02  0.46700000000E-02 0.  1.
          1   -1    0    0  501    0  0.00000000000E+00 -0.00000000000E+00 -0.22314042252E+02  0.22314042741E+02  0.46700000000E-02 0. -1.
         23    2    1    2    0    0  0.00000000000E+00  0.00000000000E+00  0.69065775674E+02  0.11369386079E+03  0.90311752342E+02 0.  0.
        -13    1    3    3    0    0  0.27367984817E+02 -0.35403396238E+02  0.42152631854E+02  0.61475707421E+02  0.10570000000E+00 0.  1.
         13    1    3    3    0    0 -0.27367984817E+02  0.35403396238E+02  0.26913143820E+02  0.52218153366E+02  0.10570000000E+00 0. -1.
<mgrwt>
<rscale>  0 0.90311752E+02</rscale>
<asrwt>0</asrwt>
<pdfrwt beam="2">  1        1 0.34329296E-02 0.90311752E+02</pdfrwt>
<pdfrwt beam="1">  1       -1 0.14058434E-01 0.90311752E+02</pdfrwt>
<totfact> 0.84767210E+04</totfact>
</mgrwt>
</event>
<event>
 5    1  0.2734570E+000  0.9105252E+02  0.7818608E-02  0.1300323E+00
          1   -1    0    0  501    0  0.00000000000E+00  0.00000000000E+00  0.14812191583E+02  0.14812192320E+02  0.46700000000E-02 0. -1.
         -1   -1    0    0    0  501 -0.00000000000E+00 -0.00000000000E+00 -0.13992800756E+03  0.13992800764E+03  0.46700000000E-02 0.  1.
         23    2    1    2    0    0  0.00000000000E+00  0.00000000000E+00 -0.12511581597E+03  0.15474019995E+03  0.91052523717E+02 0.  0.
        -13    1    3    3    0    0  0.84044873435E+00 -0.42198626264E+02 -0.91558446083E+02  0.10081860262E+03  0.10570000000E+00 0.  1.
         13    1    3    3    0    0 -0.84044873435E+00  0.42198626264E+02 -0.33557369891E+02  0.53921597335E+02  0.10570000000E+00 0. -1.
<mgrwt>
<rscale>  0 0.91052524E+02</rscale>
<asrwt>0</asrwt>
<pdfrwt beam="1">  1        1 0.22787989E-02 0.91052524E+02</pdfrwt>
<pdfrwt beam="2">  1       -1 0.21527385E-01 0.91052524E+02</pdfrwt>
<totfact> 0.76258377E+04</totfact>
</mgrwt>
</event>
<event>
 5    1  0.2734570E+000  0.8915732E+02  0.7818608E-02  0.1304905E+00
          1   -1    0    0  501    0  0.00000000000E+00  0.00000000000E+00  0.10347334786E+03  0.10347334796E+03  0.46700000000E-02 0. -1.
         -1   -1    0    0    0  501 -0.00000000000E+00 -0.00000000000E+00 -0.19205495703E+02  0.19205496271E+02  0.46700000000E-02 0.  1.
         23    2    1    2    0    0  0.00000000000E+00  0.00000000000E+00  0.84267852153E+02  0.12267884423E+03  0.89157321156E+02 0.  0.
        -13    1    3    3    0    0  0.33909343169E+02 -0.10049994594E+02  0.79473513383E+02  0.86987909778E+02  0.10570000000E+00 0.  1.
         13    1    3    3    0    0 -0.33909343169E+02  0.10049994594E+02  0.47943387695E+01  0.35690934455E+02  0.10570000000E+00 0. -1.
<mgrwt>
<rscale>  0 0.89157321E+02</rscale>
<asrwt>0</asrwt>
<pdfrwt beam="1">  1        1 0.15918977E-01 0.89157321E+02</pdfrwt>
<pdfrwt beam="2">  1       -1 0.29546916E-02 0.89157321E+02</pdfrwt>
<totfact> 0.11164118E+05</totfact>
</mgrwt>
</event>
<event>
 5    1  0.2734570E+000  0.8888025E+02  0.7818608E-02  0.1305586E+00
          1   -1    0    0  501    0  0.00000000000E+00  0.00000000000E+00  0.79624003146E+02  0.79624003283E+02  0.46700000000E-02 0. -1.
         -1   -1    0    0    0  501 -0.00000000000E+00 -0.00000000000E+00 -0.24803132575E+02  0.24803133015E+02  0.46700000000E-02 0.  1.
         23    2    1    2    0    0  0.00000000000E+00  0.00000000000E+00  0.54820870571E+02  0.10442713630E+03  0.88880250591E+02 0.  0.
        -13    1    3    3    0    0 -0.23371317355E+02 -0.29056605155E+02  0.55813582599E+02  0.67124302254E+02  0.10570000000E+00 0. -1.
         13    1    3    3    0    0  0.23371317355E+02  0.29056605155E+02 -0.99271202845E+00  0.37302834044E+02  0.10570000000E+00 0.  1.
<mgrwt>
<rscale>  0 0.88880251E+02</rscale>
<asrwt>0</asrwt>
<pdfrwt beam="1">  1        1 0.12249847E-01 0.88880251E+02</pdfrwt>
<pdfrwt beam="2">  1       -1 0.38158665E-02 0.88880251E+02</pdfrwt>
<totfact> 0.10795272E+05</totfact>
</mgrwt>
</event>
<event>
 5    1  0.2734570E+000  0.8942087E+02  0.7818608E-02  0.1304260E+00
          1   -1    0    0  501    0  0.00000000000E+00  0.00000000000E+00  0.10432708596E+03  0.10432708606E+03  0.46700000000E-02 0. -1.
         -1   -1    0    0    0  501 -0.00000000000E+00 -0.00000000000E+00 -0.19161112643E+02  0.19161113212E+02  0.46700000000E-02 0.  1.
         23    2    1    2    0    0  0.00000000000E+00  0.00000000000E+00  0.85165973314E+02  0.12348819927E+03  0.89420871999E+02 0.  0.
        -13    1    3    3    0    0 -0.27400859209E+02 -0.23336811171E+02  0.59519779498E+01  0.36480831337E+02  0.10570000000E+00 0.  1.
         13    1    3    3    0    0  0.27400859209E+02  0.23336811171E+02  0.79213995364E+02  0.87007367935E+02  0.10570000000E+00 0. -1.
<mgrwt>
<rscale>  0 0.89420872E+02</rscale>
<asrwt>0</asrwt>
<pdfrwt beam="1">  1        1 0.16050321E-01 0.89420872E+02</pdfrwt>
<pdfrwt beam="2">  1       -1 0.29478636E-02 0.89420872E+02</pdfrwt>
<totfact> 0.11090199E+05</totfact>
</mgrwt>
</event>
<event>
 5    1  0.2734570E+000  0.8511270E+02  0.7818608E-02  0.1315138E+00
         -1   -1    0    0    0  501 -0.00000000000E+00  0.00000000000E+00  0.30309692796E+02  0.30309693156E+02  0.46700000000E-02 0.  1.
          1   -1    0    0  501    0  0.00000000000E+00 -0.00000000000E+00 -0.59751273844E+02  0.59751274027E+02  0.46700000000E-02 0. -1.
         23    2    1    2    0    0  0.00000000000E+00  0.00000000000E+00 -0.29441581048E+02  0.90060967183E+02  0.85112696558E+02 0.  0.
        -13    1    3    3    0    0  0.34989856175E+02 -0.21700989288E+02 -0.33337011845E+01  0.41307961791E+02  0.10570000000E+00 0.  1.
         13    1    3    3    0    0 -0.34989856175E+02  0.21700989288E+02 -0.26107879864E+02  0.48753005392E+02  0.10570000000E+00 0. -1.
<mgrwt>
<rscale>  0 0.85112697E+02</rscale>
<asrwt>0</asrwt>
<pdfrwt beam="2">  1        1 0.91925037E-02 0.85112697E+02</pdfrwt>
<pdfrwt beam="1">  1       -1 0.46630297E-02 0.85112697E+02</pdfrwt>
<totfact> 0.11644207E+05</totfact>
</mgrwt>
</event>
<event>
 5    1  0.2734570E+000  0.9248992E+02  0.7818608E-02  0.1296932E+00
         -1   -1    0    0    0  501 -0.00000000000E+00  0.00000000000E+00  0.56246107804E+02  0.56246107998E+02  0.46700000000E-02 0.  1.
          1   -1    0    0  501    0  0.00000000000E+00 -0.00000000000E+00 -0.38022124226E+02  0.38022124512E+02  0.46700000000E-02 0. -1.
         23    2    1    2    0    0  0.00000000000E+00  0.00000000000E+00  0.18223983578E+02  0.94268232510E+02  0.92489924225E+02 0.  0.
        -13    1    3    3    0    0 -0.40127112596E+02  0.86023671695E+01  0.30838495545E+02  0.51334295224E+02  0.10570000000E+00 0.  1.
         13    1    3    3    0    0  0.40127112596E+02 -0.86023671695E+01 -0.12614511967E+02  0.42933937286E+02  0.10570000000E+00 0. -1.
<mgrwt>
<rscale>  0 0.92489924E+02</rscale>
<asrwt>0</asrwt>
<pdfrwt beam="2">  1        1 0.58495576E-02 0.92489924E+02</pdfrwt>
<pdfrwt beam="1">  1       -1 0.86532474E-02 0.92489924E+02</pdfrwt>
<totfact> 0.86386978E+04</totfact>
</mgrwt>
</event>
<event>
 5    1  0.2734570E+000  0.9056638E+02  0.7818608E-02  0.1301486E+00
         -1   -1    0    0    0  501 -0.00000000000E+00  0.00000000000E+00  0.11185712860E+02  0.11185713835E+02  0.46700000000E-02 0.  1.
          1   -1    0    0  501    0  0.00000000000E+00 -0.00000000000E+00 -0.18332020844E+03  0.18332020850E+03  0.46700000000E-02 0. -1.
         23    2    1    2    0    0  0.00000000000E+00  0.00000000000E+00 -0.17213449558E+03  0.19450592234E+03  0.90566380377E+02 0.  0.
        -13    1    3    3    0    0  0.62390997545E+01  0.30636610294E+02 -0.15716078104E+02  0.34993349933E+02  0.10570000000E+00 0.  1.
         13    1    3    3    0    0 -0.62390997545E+01 -0.30636610294E+02 -0.15641841748E+03  0.15951257240E+03  0.10570000000E+00 0. -1.
<mgrwt>
<rscale>  0 0.90566380E+02</rscale>
<asrwt>0</asrwt>
<pdfrwt beam="2">  1        1 0.28203107E-01 0.90566380E+02</pdfrwt>
<pdfrwt beam="1">  1       -1 0.17208791E-02 0.90566380E+02</pdfrwt>
<totfact> 0.11855152E+05</totfact>
</mgrwt>
</event>
<event>
 5    1  0.2734570E+000  0.9146389E+02  0.7818608E-02  0.1299345E+00
         -1   -1    0    0    0  501 -0.00000000000E+00  0.00000000000E+00  0.19015490441E+02  0.19015491015E+02  0.46700000000E-02 0.  1.
          1   -1    0    0  501    0  0.00000000000E+00 -0.00000000000E+00 -0.10998459208E+03  0.10998459218E+03  0.46700000000E-02 0. -1.
         23    2    1    2    0    0  0.00000000000E+00  0.00000000000E+00 -0.90969101637E+02  0.12900008319E+03  0.91463894576E+02 0.  0.
        -13    1    3    3    0    0  0.27030532073E+02  0.15227025682E+02  0.19031568707E+01  0.31082875573E+02  0.10570000000E+00 0.  1.
         13    1    3    3    0    0 -0.27030532073E+02 -0.15227025682E+02 -0.92872258507E+02  0.97917207620E+02  0.10570000000E+00 0. -1.
<mgrwt>
<rscale>  0 0.91463895E+02</rscale>
<asrwt>0</asrwt>
<pdfrwt beam="2">  1        1 0.16920706E-01 0.91463895E+02</pdfrwt>
<pdfrwt beam="1">  1       -1 0.29254602E-02 0.91463895E+02</pdfrwt>
<totfact> 0.10523308E+05</totfact>
</mgrwt>
</event>
<event>
 5    1  0.2734570E+000  0.9358153E+02  0.7818608E-02  0.1294403E+00
          1   -1    0    0  501    0  0.00000000000E+00  0.00000000000E+00  0.46588336299E+02  0.46588336533E+02  0.46700000000E-02 0. -1.
         -1   -1    0    0    0  501 -0.00000000000E+00 -0.00000000000E+00 -0.46994075621E+02  0.46994075853E+02  0.46700000000E-02 0.  1.
         23    2    1    2    0    0  0.00000000000E+00  0.00000000000E+00 -0.40573932182E+00  0.93582412386E+02  0.93581532813E+02 0.  0.
        -13    1    3    3    0    0  0.15025400155E+02 -0.22606637957E+01  0.44052392328E+02  0.46599331465E+02  0.10570000000E+00 0. -1.
         13    1    3    3    0    0 -0.15025400155E+02  0.22606637957E+01 -0.44458131650E+02  0.46983080922E+02  0.10570000000E+00 0.  1.
<mgrwt>
<rscale>  0 0.93581533E+02</rscale>
<asrwt>0</asrwt>
<pdfrwt beam="1">  1        1 0.71674364E-02 0.93581533E+02</pdfrwt>
<pdfrwt beam="2">  1       -1 0.72298578E-02 0.93581533E+02</pdfrwt>
<totfact> 0.86224070E+04</totfact>
</mgrwt>
</event>
<event>
 5    1  0.2734570E+000  0.9171071E+02  0.7818608E-02  0.1298761E+00
          1   -1    0    0  501    0  0.00000000000E+00  0.00000000000E+00  0.13329158292E+03  0.13329158301E+03  0.46700000000E-02 0. -1.
         -1   -1    0    0    0  501 -0.00000000000E+00 -0.00000000000E+00 -0.15775289732E+02  0.15775290424E+02  0.46700000000E-02 0.  1.
         23    2    1    2    0    0  0.00000000000E+00  0.00000000000E+00  0.11751629319E+03  0.14906687343E+03  0.91710705965E+02 0.  0.
        -13    1    3    3    0    0  0.20305385204E+02  0.34014817360E+02  0.96297069989E+02  0.10412710180E+03  0.10570000000E+00 0. -1.
         13    1    3    3    0    0 -0.20305385204E+02 -0.34014817360E+02  0.21219223204E+02  0.44939771630E+02  0.10570000000E+00 0.  1.
<mgrwt>
<rscale>  0 0.91710706E+02</rscale>
<asrwt>0</asrwt>
<pdfrwt beam="1">  1        1 0.20506397E-01 0.91710706E+02</pdfrwt>
<pdfrwt beam="2">  1       -1 0.24269678E-02 0.91710706E+02</pdfrwt>
<totfact> 0.10803378E+05</totfact>
</mgrwt>
</event>
<event>
 5    1  0.2734570E+000  0.9130572E+02  0.7818608E-02  0.1299720E+00
          1   -1    0    0  501    0  0.00000000000E+00  0.00000000000E+00  0.69651916088E+02  0.69651916244E+02  0.46700000000E-02 0. -1.
         -1   -1    0    0    0  501 -0.00000000000E+00 -0.00000000000E+00 -0.29922849792E+02  0.29922850156E+02  0.46700000000E-02 0.  1.
         23    2    1    2    0    0  0.00000000000E+00  0.00000000000E+00  0.39729066296E+02  0.99574766400E+02  0.91305724875E+02 0.  0.
        -13    1    3    3    0    0  0.46738899873E+01 -0.35023505495E+02  0.51390736995E+02  0.62365937868E+02  0.10570000000E+00 0. -1.
         13    1    3    3    0    0 -0.46738899873E+01  0.35023505495E+02 -0.11661670699E+02  0.37208828532E+02  0.10570000000E+00 0.  1.
<mgrwt>
<rscale>  0 0.91305725E+02</rscale>
<asrwt>0</asrwt>
<pdfrwt beam="1">  1        1 0.10715679E-01 0.91305725E+02</pdfrwt>
<pdfrwt beam="2">  1       -1 0.46035155E-02 0.91305725E+02</pdfrwt>
<totfact> 0.98207280E+04</totfact>
</mgrwt>
</event>
<event>
 5    1  0.2734570E+000  0.8980080E+02  0.7818608E-02  0.1303335E+00
         -1   -1    0    0    0  501 -0.00000000000E+00  0.00000000000E+00  0.79857371110E+02  0.79857371247E+02  0.46700000000E-02 0.  1.
          1   -1    0    0  501    0  0.00000000000E+00 -0.00000000000E+00 -0.25245580308E+02  0.25245580740E+02  0.46700000000E-02 0. -1.
         23    2    1    2    0    0  0.00000000000E+00  0.00000000000E+00  0.54611790802E+02  0.10510295199E+03  0.89800795218E+02 0.  0.
        -13    1    3    3    0    0  0.88895456721E+01  0.24879369233E+02  0.69796896856E+02  0.74629920400E+02  0.10570000000E+00 0.  1.
         13    1    3    3    0    0 -0.88895456721E+01 -0.24879369233E+02 -0.15185106054E+02  0.30473031586E+02  0.10570000000E+00 0. -1.
<mgrwt>
<rscale>  0 0.89800795E+02</rscale>
<asrwt>0</asrwt>
<pdfrwt beam="2">  1        1 0.38839355E-02 0.89800795E+02</pdfrwt>
<pdfrwt beam="1">  1       -1 0.12285749E-01 0.89800795E+02</pdfrwt>
<totfact> 0.88033725E+04</totfact>
</mgrwt>
</event>
<event>
 5    1  0.2734570E+000  0.7610236E+02  0.7818608E-02  0.1340491E+00
          1   -1    0    0  501    0  0.00000000000E+00  0.00000000000E+00  0.57410489259E+01  0.57410508252E+01  0.46700000000E-02 0. -1.
         -1   -1    0    0    0  501 -0.00000000000E+00 -0.00000000000E+00 -0.25219991791E+03  0.25219991795E+03  0.46700000000E-02 0.  1.
         23    2    1    2    0    0  0.00000000000E+00  0.00000000000E+00 -0.24645886898E+03  0.25794096878E+03  0.76102360498E+02 0.  0.
        -13    1    3    3    0    0 -0.13427068168E+02  0.34133781830E+02 -0.88917784995E+02  0.96186199023E+02  0.10570000000E+00 0.  1.
         13    1    3    3    0    0  0.13427068168E+02 -0.34133781830E+02 -0.15754108399E+03  0.16175476975E+03  0.10570000000E+00 0. -1.
<mgrwt>
<rscale>  0 0.76102360E+02</rscale>
<asrwt>0</asrwt>
<pdfrwt beam="1">  1        1 0.88323864E-03 0.76102360E+02</pdfrwt>
<pdfrwt beam="2">  1       -1 0.38799979E-01 0.76102360E+02</pdfrwt>
<totfact> 0.10320298E+05</totfact>
</mgrwt>
</event>
<event>
 5    1  0.2734570E+000  0.8821725E+02  0.7818608E-02  0.1307227E+00
         -1   -1    0    0    0  501 -0.00000000000E+00  0.00000000000E+00  0.62871486047E+02  0.62871486220E+02  0.46700000000E-02 0.  1.
          1   -1    0    0  501    0  0.00000000000E+00 -0.00000000000E+00 -0.30945198670E+02  0.30945199023E+02  0.46700000000E-02 0. -1.
         23    2    1    2    0    0  0.00000000000E+00  0.00000000000E+00  0.31926287377E+02  0.93816685243E+02  0.88217246637E+02 0.  0.
        -13    1    3    3    0    0  0.30104075081E+02 -0.60489140269E+01  0.49638739938E+02  0.58368316513E+02  0.10570000000E+00 0.  1.
         13    1    3    3    0    0 -0.30104075081E+02  0.60489140269E+01 -0.17712452562E+02  0.35448368730E+02  0.10570000000E+00 0. -1.
<mgrwt>
<rscale>  0 0.88217247E+02</rscale>
<asrwt>0</asrwt>
<pdfrwt beam="2">  1        1 0.47607998E-02 0.88217247E+02</pdfrwt>
<pdfrwt beam="1">  1       -1 0.96725365E-02 0.88217247E+02</pdfrwt>
<totfact> 0.95721469E+04</totfact>
</mgrwt>
</event>
<event>
 5    1  0.2734570E+000  0.8987057E+02  0.7818608E-02  0.1303165E+00
         -1   -1    0    0    0  501 -0.00000000000E+00  0.00000000000E+00  0.60265082488E+01  0.60265100582E+01  0.46700000000E-02 0.  1.
          1   -1    0    0  501    0  0.00000000000E+00 -0.00000000000E+00 -0.33504968149E+03  0.33504968152E+03  0.46700000000E-02 0. -1.
         23    2    1    2    0    0  0.00000000000E+00  0.00000000000E+00 -0.32902317324E+03  0.34107619158E+03  0.89870573235E+02 0.  0.
        -13    1    3    3    0    0  0.17194727824E+02 -0.41039697768E+02 -0.18828941968E+03  0.19347566305E+03  0.10570000000E+00 0. -1.
         13    1    3    3    0    0 -0.17194727824E+02  0.41039697768E+02 -0.14073375356E+03  0.14760052853E+03  0.10570000000E+00 0.  1.
<mgrwt>
<rscale>  0 0.89870573E+02</rscale>
<asrwt>0</asrwt>
<pdfrwt beam="2">  1        1 0.51546090E-01 0.89870573E+02</pdfrwt>
<pdfrwt beam="1">  1       -1 0.92715552E-03 0.89870573E+02</pdfrwt>
<totfact> 0.13590988E+05</totfact>
</mgrwt>
</event>
<event>
 5    1  0.2734570E+000  0.9324309E+02  0.7818608E-02  0.1295183E+00
         -1   -1    0    0    0  501 -0.00000000000E+00  0.00000000000E+00  0.66122331384E+02  0.66122331549E+02  0.46700000000E-02 0.  1.
          1   -1    0    0  501    0  0.00000000000E+00 -0.00000000000E+00 -0.32871928907E+02  0.32871929238E+02  0.46700000000E-02 0. -1.
         23    2    1    2    0    0  0.00000000000E+00  0.00000000000E+00  0.33250402477E+02  0.98994260787E+02  0.93243093063E+02 0.  0.
        -13    1    3    3    0    0  0.71374575018E+01  0.15905753904E+02 -0.29280872333E+02  0.34078100944E+02  0.10570000000E+00 0. -1.
         13    1    3    3    0    0 -0.71374575018E+01 -0.15905753904E+02  0.62531274811E+02  0.64916159843E+02  0.10570000000E+00 0.  1.
<mgrwt>
<rscale>  0 0.93243093E+02</rscale>
<asrwt>0</asrwt>
<pdfrwt beam="2">  1        1 0.50572199E-02 0.93243093E+02</pdfrwt>
<pdfrwt beam="1">  1       -1 0.10172666E-01 0.93243093E+02</pdfrwt>
<totfact> 0.82488844E+04</totfact>
</mgrwt>
</event>
<event>
 5    1  0.2734570E+000  0.9133398E+02  0.7818608E-02  0.1299653E+00
         -1   -1    0    0    0  501 -0.00000000000E+00  0.00000000000E+00  0.14707606989E+02  0.14707607730E+02  0.46700000000E-02 0.  1.
          1   -1    0    0  501    0  0.00000000000E+00 -0.00000000000E+00 -0.14179559647E+03  0.14179559655E+03  0.46700000000E-02 0. -1.
         23    2    1    2    0    0  0.00000000000E+00  0.00000000000E+00 -0.12708798948E+03  0.15650320428E+03  0.91333979869E+02 0.  0.
        -13    1    3    3    0    0  0.41297859118E+02 -0.18555665932E+02 -0.73773173256E+02  0.86558177953E+02  0.10570000000E+00 0. -1.
         13    1    3    3    0    0 -0.41297859118E+02  0.18555665932E+02 -0.53314816227E+02  0.69945026325E+02  0.10570000000E+00 0.  1.
<mgrwt>
<rscale>  0 0.91333980E+02</rscale>
<asrwt>0</asrwt>
<pdfrwt beam="2">  1        1 0.21814706E-01 0.91333980E+02</pdfrwt>
<pdfrwt beam="1">  1       -1 0.22627089E-02 0.91333980E+02</pdfrwt>
<totfact> 0.11047060E+05</totfact>
</mgrwt>
</event>
<event>
 5    1  0.2734570E+000  0.9128336E+02  0.7818608E-02  0.1299773E+00
         -1   -1    0    0    0  501 -0.00000000000E+00  0.00000000000E+00  0.13573429533E+02  0.13573430336E+02  0.46700000000E-02 0.  1.
          1   -1    0    0  501    0  0.00000000000E+00 -0.00000000000E+00 -0.15347357069E+03  0.15347357076E+03  0.46700000000E-02 0. -1.
         23    2    1    2    0    0  0.00000000000E+00  0.00000000000E+00 -0.13990014116E+03  0.16704700110E+03  0.91283355985E+02 0.  0.
        -13    1    3    3    0    0 -0.35136256618E+02 -0.43968131981E+01 -0.17252177006E+02  0.39389557999E+02  0.10570000000E+00 0.  1.
         13    1    3    3    0    0  0.35136256618E+02  0.43968131981E+01 -0.12264796415E+03  0.12765744310E+03  0.10570000000E+00 0. -1.
<mgrwt>
<rscale>  0 0.91283356E+02</rscale>
<asrwt>0</asrwt>
<pdfrwt beam="2">  1        1 0.23611317E-01 0.91283356E+02</pdfrwt>
<pdfrwt beam="1">  1       -1 0.20882201E-02 0.91283356E+02</pdfrwt>
<totfact> 0.11225251E+05</totfact>
</mgrwt>
</event>
<event>
 5    1  0.2734570E+000  0.8926448E+02  0.7818608E-02  0.1304643E+00
          1   -1    0    0  501    0  0.00000000000E+00  0.00000000000E+00  0.11973513792E+03  0.11973513801E+03  0.46700000000E-02 0. -1.
         -1   -1    0    0    0  501 -0.00000000000E+00 -0.00000000000E+00 -0.16637028534E+02  0.16637029189E+02  0.46700000000E-02 0.  1.
         23    2    1    2    0    0  0.00000000000E+00  0.00000000000E+00  0.10309810938E+03  0.13637216720E+03  0.89264482454E+02 0.  0.
        -13    1    3    3    0    0 -0.15875248507E+02 -0.22400370871E+02  0.10530753086E+03  0.10882778762E+03  0.10570000000E+00 0. -1.
         13    1    3    3    0    0  0.15875248507E+02  0.22400370871E+02 -0.22094214791E+01  0.27544379574E+02  0.10570000000E+00 0.  1.
<mgrwt>
<rscale>  0 0.89264482E+02</rscale>
<asrwt>0</asrwt>
<pdfrwt beam="1">  1        1 0.18420790E-01 0.89264482E+02</pdfrwt>
<pdfrwt beam="2">  1       -1 0.25595429E-02 0.89264482E+02</pdfrwt>
<totfact> 0.11405714E+05</totfact>
</mgrwt>
</event>
<event>
 5    1  0.2734570E+000  0.1196915E+03  0.7818608E-02  0.1243607E+00
         -1   -1    0    0    0  501 -0.00000000000E+00  0.00000000000E+00  0.47800589041E+03  0.47800589043E+03  0.46700000000E-02 0.  1.
          1   -1    0    0  501    0  0.00000000000E+00 -0.00000000000E+00 -0.74926174292E+01  0.74926188846E+01  0.46700000000E-02 0. -1.
         23    2    1    2    0    0  0.00000000000E+00  0.00000000000E+00  0.47051327298E+03  0.48549850931E+03  0.11969153060E+03 0.  0.
        -13    1    3    3    0    0 -0.10173482145E+02  0.54959450428E+02  0.32201327463E+03  0.32682809112E+03  0.10570000000E+00 0.  1.
         13    1    3    3    0    0  0.10173482145E+02 -0.54959450428E+02  0.14849999834E+03  0.15867041820E+03  0.10570000000E+00 0. -1.
<mgrwt>
<rscale>  0 0.11969153E+03</rscale>
<asrwt>0</asrwt>
<pdfrwt beam="2">  1        1 0.11527100E-02 0.11969153E+03</pdfrwt>
<pdfrwt beam="1">  1       -1 0.73539399E-01 0.11969153E+03</pdfrwt>
<totfact> 0.23511209E+04</totfact>
</mgrwt>
</event>
<event>
 5    1  0.2734570E+000  0.8814199E+02  0.7818608E-02  0.1307415E+00
          1   -1    0    0  501    0  0.00000000000E+00  0.00000000000E+00  0.15268282072E+03  0.15268282080E+03  0.46700000000E-02 0. -1.
         -1   -1    0    0    0  501 -0.00000000000E+00 -0.00000000000E+00 -0.12720830698E+02  0.12720831555E+02  0.46700000000E-02 0.  1.
         23    2    1    2    0    0  0.00000000000E+00  0.00000000000E+00  0.13996199003E+03  0.16540365235E+03  0.88141985221E+02 0.  0.
        -13    1    3    3    0    0 -0.27693856967E+02  0.30467560620E+02  0.40487402915E+02  0.57744808694E+02  0.10570000000E+00 0. -1.
         13    1    3    3    0    0  0.27693856967E+02 -0.30467560620E+02  0.99474587112E+02  0.10765884366E+03  0.10570000000E+00 0.  1.
<mgrwt>
<rscale>  0 0.88141985E+02</rscale>
<asrwt>0</asrwt>
<pdfrwt beam="1">  1        1 0.23489663E-01 0.88141985E+02</pdfrwt>
<pdfrwt beam="2">  1       -1 0.19570511E-02 0.88141985E+02</pdfrwt>
<totfact> 0.12322189E+05</totfact>
</mgrwt>
</event>
<event>
 5    1  0.2734570E+000  0.8701602E+02  0.7818608E-02  0.1310243E+00
         -1   -1    0    0    0  501 -0.00000000000E+00  0.00000000000E+00  0.49291600347E+02  0.49291600569E+02  0.46700000000E-02 0.  1.
          1   -1    0    0  501    0  0.00000000000E+00 -0.00000000000E+00 -0.38403031374E+02  0.38403031658E+02  0.46700000000E-02 0. -1.
         23    2    1    2    0    0  0.00000000000E+00  0.00000000000E+00  0.10888568974E+02  0.87694632226E+02  0.87016019140E+02 0.  0.
        -13    1    3    3    0    0 -0.20962104054E+02 -0.18998247381E+02  0.38756453432E+02  0.47983508261E+02  0.10570000000E+00 0. -1.
         13    1    3    3    0    0  0.20962104054E+02  0.18998247381E+02 -0.27867884458E+02  0.39711123965E+02  0.10570000000E+00 0.  1.
<mgrwt>
<rscale>  0 0.87016019E+02</rscale>
<asrwt>0</asrwt>
<pdfrwt beam="2">  1        1 0.59081587E-02 0.87016019E+02</pdfrwt>
<pdfrwt beam="1">  1       -1 0.75833231E-02 0.87016019E+02</pdfrwt>
<totfact> 0.10277282E+05</totfact>
</mgrwt>
</event>
<event>
 5    1  0.2734570E+000  0.9170877E+02  0.7818608E-02  0.1298766E+00
         -1   -1    0    0    0  501 -0.00000000000E+00  0.00000000000E+00  0.32929602252E+02  0.32929602583E+02  0.46700000000E-02 0.  1.
          1   -1    0    0  501    0  0.00000000000E+00 -0.00000000000E+00 -0.63852104183E+02  0.63852104354E+02  0.46700000000E-02 0. -1.
         23    2    1    2    0    0  0.00000000000E+00  0.00000000000E+00 -0.30922501931E+02  0.96781706937E+02  0.91708765513E+02 0.  0.
        -13    1    3    3    0    0  0.26415571515E+02 -0.35635228269E+02 -0.32013458261E+01  0.44473719204E+02  0.10570000000E+00 0. -1.
         13    1    3    3    0    0 -0.26415571515E+02  0.35635228269E+02 -0.27721156105E+02  0.52307987732E+02  0.10570000000E+00 0.  1.
<mgrwt>
<rscale>  0 0.91708766E+02</rscale>
<asrwt>0</asrwt>
<pdfrwt beam="2">  1        1 0.98234007E-02 0.91708766E+02</pdfrwt>
<pdfrwt beam="1">  1       -1 0.50660927E-02 0.91708766E+02</pdfrwt>
<totfact> 0.95730456E+04</totfact>
</mgrwt>
</event>
<event>
 5    1  0.2734570E+000  0.9066986E+02  0.7818608E-02  0.1301238E+00
         -1   -1    0    0    0  501 -0.00000000000E+00  0.00000000000E+00  0.61723021909E+02  0.61723022086E+02  0.46700000000E-02 0.  1.
          1   -1    0    0  501    0  0.00000000000E+00 -0.00000000000E+00 -0.33298040722E+02  0.33298041049E+02  0.46700000000E-02 0. -1.
         23    2    1    2    0    0  0.00000000000E+00  0.00000000000E+00  0.28424981187E+02  0.95021063135E+02  0.90669856533E+02 0.  0.
        -13    1    3    3    0    0  0.28448483019E+02  0.28571573402E+02 -0.75088104952E+01  0.41012734611E+02  0.10570000000E+00 0. -1.
         13    1    3    3    0    0 -0.28448483019E+02 -0.28571573402E+02  0.35933791682E+02  0.54008328524E+02  0.10570000000E+00 0.  1.
<mgrwt>
<rscale>  0 0.90669857E+02</rscale>
<asrwt>0</asrwt>
<pdfrwt beam="2">  1        1 0.51227756E-02 0.90669857E+02</pdfrwt>
<pdfrwt beam="1">  1       -1 0.94958494E-02 0.90669857E+02</pdfrwt>
<totfact> 0.89546928E+04</totfact>
</mgrwt>
</event>
<event>
 5    1  0.2734570E+000  0.9198774E+02  0.7818608E-02  0.1298108E+00
          1   -1    0    0  501    0  0.00000000000E+00  0.00000000000E+00  0.15331728221E+02  0.15331728932E+02  0.46700000000E-02 0. -1.
         -1   -1    0    0    0  501 -0.00000000000E+00 -0.00000000000E+00 -0.13797765208E+03  0.13797765216E+03  0.46700000000E-02 0.  1.
         23    2    1    2    0    0  0.00000000000E+00  0.00000000000E+00 -0.12264592386E+03  0.15330938109E+03  0.91987736635E+02 0.  0.
        -13    1    3    3    0    0  0.22378883287E+02 -0.70353225197E+01 -0.12725733248E+03  0.12940150703E+03  0.10570000000E+00 0.  1.
         13    1    3    3    0    0 -0.22378883287E+02  0.70353225197E+01  0.46114086181E+01  0.23907874060E+02  0.10570000000E+00 0. -1.
<mgrwt>
<rscale>  0 0.91987737E+02</rscale>
<asrwt>0</asrwt>
<pdfrwt beam="1">  1        1 0.23587276E-02 0.91987737E+02</pdfrwt>
<pdfrwt beam="2">  1       -1 0.21227330E-01 0.91987737E+02</pdfrwt>
<totfact> 0.74495827E+04</totfact>
</mgrwt>
</event>
<event>
 5    1  0.2734570E+000  0.8990968E+02  0.7818608E-02  0.1303071E+00
         -1   -1    0    0    0  501 -0.00000000000E+00  0.00000000000E+00  0.86914404308E+01  0.86914416854E+01  0.46700000000E-02 0.  1.
          1   -1    0    0  501    0  0.00000000000E+00 -0.00000000000E+00 -0.23252040742E+03  0.23252040747E+03  0.46700000000E-02 0. -1.
         23    2    1    2    0    0  0.00000000000E+00  0.00000000000E+00 -0.22382896699E+03  0.24121184915E+03  0.89909675275E+02 0.  0.
        -13    1    3    3    0    0 -0.32938330044E+02  0.15641257951E+02 -0.41373872117E+02  0.55148807810E+02  0.10570000000E+00 0.  1.
         13    1    3    3    0    0  0.32938330044E+02 -0.15641257951E+02 -0.18245509487E+03  0.18606304134E+03  0.10570000000E+00 0. -1.
<mgrwt>
<rscale>  0 0.89909675E+02</rscale>
<asrwt>0</asrwt>
<pdfrwt beam="2">  1        1 0.35772366E-01 0.89909675E+02</pdfrwt>
<pdfrwt beam="1">  1       -1 0.13371450E-02 0.89909675E+02</pdfrwt>
<totfact> 0.12657859E+05</totfact>
</mgrwt>
</event>
<event>
 5    1  0.2734570E+000  0.9139821E+02  0.7818608E-02  0.1299501E+00
          1   -1    0    0  501    0  0.00000000000E+00  0.00000000000E+00  0.49793104876E+02  0.49793105095E+02  0.46700000000E-02 0. -1.
         -1   -1    0    0    0  501 -0.00000000000E+00 -0.00000000000E+00 -0.41941715244E+02  0.41941715504E+02  0.46700000000E-02 0.  1.
         23    2    1    2    0    0  0.00000000000E+00  0.00000000000E+00  0.78513896324E+01  0.91734820599E+02  0.91398211093E+02 0.  0.
        -13    1    3    3    0    0  0.27272475276E+02 -0.85142283607E+01  0.39723801899E+02  0.48931294711E+02  0.10570000000E+00 0. -1.
         13    1    3    3    0    0 -0.27272475276E+02  0.85142283607E+01 -0.31872412267E+02  0.42803525888E+02  0.10570000000E+00 0.  1.
<mgrwt>
<rscale>  0 0.91398211E+02</rscale>
<asrwt>0</asrwt>
<pdfrwt beam="1">  1        1 0.76604777E-02 0.91398211E+02</pdfrwt>
<pdfrwt beam="2">  1       -1 0.64525716E-02 0.91398211E+02</pdfrwt>
<totfact> 0.93071661E+04</totfact>
</mgrwt>
</event>
<event>
 5    1  0.2734570E+000  0.7264958E+02  0.7818608E-02  0.1351308E+00
         -1   -1    0    0    0  501 -0.00000000000E+00  0.00000000000E+00  0.90442553366E+01  0.90442565423E+01  0.46700000000E-02 0.  1.
          1   -1    0    0  501    0  0.00000000000E+00 -0.00000000000E+00 -0.14589265337E+03  0.14589265345E+03  0.46700000000E-02 0. -1.
         23    2    1    2    0    0  0.00000000000E+00  0.00000000000E+00 -0.13684839803E+03  0.15493690999E+03  0.72649583840E+02 0.  0.
        -13    1    3    3    0    0 -0.18989558577E+02 -0.28410756489E+02 -0.42156526877E+02  0.54267470459E+02  0.10570000000E+00 0. -1.
         13    1    3    3    0    0  0.18989558577E+02  0.28410756489E+02 -0.94691871157E+02  0.10066943953E+03  0.10570000000E+00 0.  1.
<mgrwt>
<rscale>  0 0.72649584E+02</rscale>
<asrwt>0</asrwt>
<pdfrwt beam="2">  1        1 0.22445022E-01 0.72649584E+02</pdfrwt>
<pdfrwt beam="1">  1       -1 0.13914241E-02 0.72649584E+02</pdfrwt>
<totfact> 0.20425687E+05</totfact>
</mgrwt>
</event>
<event>
 5    1  0.2734570E+000  0.9334113E+02  0.7818608E-02  0.1294957E+00
         -1   -1    0    0    0  501 -0.00000000000E+00  0.00000000000E+00  0.31094130383E+03  0.31094130387E+03  0.46700000000E-02 0.  1.
          1   -1    0    0  501    0  0.00000000000E+00 -0.00000000000E+00 -0.70049915587E+01  0.70049931153E+01  0.46700000000E-02 0. -1.
         23    2    1    2    0    0  0.00000000000E+00  0.00000000000E+00  0.30393631227E+03  0.31794629698E+03  0.93341126233E+02 0.  0.
        -13    1    3    3    0    0 -0.40561019635E+02 -0.19717428204E+02  0.11107048268E+03  0.11987759000E+03  0.10570000000E+00 0. -1.
         13    1    3    3    0    0  0.40561019635E+02  0.19717428204E+02  0.19286582959E+03  0.19806870698E+03  0.10570000000E+00 0.  1.
<mgrwt>
<rscale>  0 0.93341126E+02</rscale>
<asrwt>0</asrwt>
<pdfrwt beam="2">  1        1 0.10776912E-02 0.93341126E+02</pdfrwt>
<pdfrwt beam="1">  1       -1 0.47837121E-01 0.93341126E+02</pdfrwt>
<totfact> 0.56165298E+04</totfact>
</mgrwt>
</event>
<event>
 5    1  0.2734570E+000  0.8883495E+02  0.7818608E-02  0.1305698E+00
          1   -1    0    0  501    0  0.00000000000E+00  0.00000000000E+00  0.17387869600E+02  0.17387870227E+02  0.46700000000E-02 0. -1.
         -1   -1    0    0    0  501 -0.00000000000E+00 -0.00000000000E+00 -0.11346485965E+03  0.11346485974E+03  0.46700000000E-02 0.  1.
         23    2    1    2    0    0  0.00000000000E+00  0.00000000000E+00 -0.96076990048E+02  0.13085272997E+03  0.88834953279E+02 0.  0.
        -13    1    3    3    0    0 -0.16306204382E+02 -0.41234221409E+02 -0.44212202732E+02  0.62616957443E+02  0.10570000000E+00 0.  1.
         13    1    3    3    0    0  0.16306204382E+02  0.41234221409E+02 -0.51864787316E+02  0.68235772527E+02  0.10570000000E+00 0. -1.
<mgrwt>
<rscale>  0 0.88834953E+02</rscale>
<asrwt>0</asrwt>
<pdfrwt beam="1">  1        1 0.26750570E-02 0.88834953E+02</pdfrwt>
<pdfrwt beam="2">  1       -1 0.17456132E-01 0.88834953E+02</pdfrwt>
<totfact> 0.84933289E+04</totfact>
</mgrwt>
</event>
<event>
 5    1  0.2734570E+000  0.8851514E+02  0.7818608E-02  0.1306488E+00
          1   -1    0    0  501    0  0.00000000000E+00  0.00000000000E+00  0.11877842202E+03  0.11877842211E+03  0.46700000000E-02 0. -1.
         -1   -1    0    0    0  501 -0.00000000000E+00 -0.00000000000E+00 -0.16490641158E+02  0.16490641819E+02  0.46700000000E-02 0.  1.
         23    2    1    2    0    0  0.00000000000E+00  0.00000000000E+00  0.10228778086E+03  0.13526906393E+03  0.88515137368E+02 0.  0.
        -13    1    3    3    0    0  0.33472353831E+02 -0.20324991344E+02  0.19631127216E+02  0.43805205996E+02  0.10570000000E+00 0.  1.
         13    1    3    3    0    0 -0.33472353831E+02  0.20324991344E+02  0.82656653647E+02  0.91463857937E+02  0.10570000000E+00 0. -1.
<mgrwt>
<rscale>  0 0.88515137E+02</rscale>
<asrwt>0</asrwt>
<pdfrwt beam="1">  1        1 0.18273603E-01 0.88515137E+02</pdfrwt>
<pdfrwt beam="2">  1       -1 0.25370218E-02 0.88515137E+02</pdfrwt>
<totfact> 0.11652417E+05</totfact>
</mgrwt>
</event>
<event>
 5    1  0.2734570E+000  0.7565371E+02  0.7818608E-02  0.1341859E+00
          1   -1    0    0  501    0  0.00000000000E+00  0.00000000000E+00  0.97808012273E+02  0.97808012385E+02  0.46700000000E-02 0. -1.
         -1   -1    0    0    0  501 -0.00000000000E+00 -0.00000000000E+00 -0.14629381979E+02  0.14629382725E+02  0.46700000000E-02 0.  1.
         23    2    1    2    0    0  0.00000000000E+00  0.00000000000E+00  0.83178630294E+02  0.11243739511E+03  0.75653706330E+02 0.  0.
        -13    1    3    3    0    0 -0.29920284658E+02  0.11272019694E+02  0.71630561143E+02  0.78442528798E+02  0.10570000000E+00 0. -1.
         13    1    3    3    0    0  0.29920284658E+02 -0.11272019694E+02  0.11548069151E+02  0.33994866312E+02  0.10570000000E+00 0.  1.
<mgrwt>
<rscale>  0 0.75653706E+02</rscale>
<asrwt>0</asrwt>
<pdfrwt beam="1">  1        1 0.15047387E-01 0.75653706E+02</pdfrwt>
<pdfrwt beam="2">  1       -1 0.22506741E-02 0.75653706E+02</pdfrwt>
<totfact> 0.17206386E+05</totfact>
</mgrwt>
</event>
<event>
 5    1  0.2734570E+000  0.9005028E+02  0.7818608E-02  0.1302730E+00
          1   -1    0    0  501    0  0.00000000000E+00  0.00000000000E+00  0.25127552183E+03  0.25127552187E+03  0.46700000000E-02 0. -1.
         -1   -1    0    0    0  501 -0.00000000000E+00 -0.00000000000E+00 -0.80678883217E+01  0.80678896732E+01  0.46700000000E-02 0.  1.
         23    2    1    2    0    0  0.00000000000E+00  0.00000000000E+00  0.24320763350E+03  0.25934341154E+03  0.90050275490E+02 0.  0.
        -13    1    3    3    0    0 -0.28226060488E+02  0.32332311051E+02  0.16079309911E+03  0.16642271697E+03  0.10570000000E+00 0. -1.
         13    1    3    3    0    0  0.28226060488E+02 -0.32332311051E+02  0.82414534393E+02  0.92920694575E+02  0.10570000000E+00 0.  1.
<mgrwt>
<rscale>  0 0.90050275E+02</rscale>
<asrwt>0</asrwt>
<pdfrwt beam="1">  1        1 0.38657765E-01 0.90050275E+02</pdfrwt>
<pdfrwt beam="2">  1       -1 0.12412139E-02 0.90050275E+02</pdfrwt>
<totfact> 0.12796791E+05</totfact>
</mgrwt>
</event>
<event>
 5    1  0.2734570E+000  0.9056837E+02  0.7818608E-02  0.1301481E+00
         -1   -1    0    0    0  501 -0.00000000000E+00  0.00000000000E+00  0.21271550067E+03  0.21271550072E+03  0.46700000000E-02 0.  1.
          1   -1    0    0  501    0  0.00000000000E+00 -0.00000000000E+00 -0.96403756983E+01  0.96403768294E+01  0.46700000000E-02 0. -1.
         23    2    1    2    0    0  0.00000000000E+00  0.00000000000E+00  0.20307512497E+03  0.22235587755E+03  0.90568371406E+02 0.  0.
        -13    1    3    3    0    0  0.16958268342E+02 -0.34499725246E+02  0.16029811092E+03  0.16484328753E+03  0.10570000000E+00 0.  1.
         13    1    3    3    0    0 -0.16958268342E+02  0.34499725246E+02  0.42777014056E+02  0.57512590024E+02  0.10570000000E+00 0. -1.
<mgrwt>
<rscale>  0 0.90568371E+02</rscale>
<asrwt>0</asrwt>
<pdfrwt beam="2">  1        1 0.14831348E-02 0.90568371E+02</pdfrwt>
<pdfrwt beam="1">  1       -1 0.32725462E-01 0.90568371E+02</pdfrwt>
<totfact> 0.69383619E+04</totfact>
</mgrwt>
</event>
<event>
 5    1  0.2734570E+000  0.9246021E+02  0.7818608E-02  0.1297001E+00
          1   -1    0    0  501    0  0.00000000000E+00  0.00000000000E+00  0.10361454993E+03  0.10361455003E+03  0.46700000000E-02 0. -1.
         -1   -1    0    0    0  501 -0.00000000000E+00 -0.00000000000E+00 -0.20626663653E+02  0.20626664182E+02  0.46700000000E-02 0.  1.
         23    2    1    2    0    0  0.00000000000E+00  0.00000000000E+00  0.82987886276E+02  0.12424121422E+03  0.92460207880E+02 0.  0.
        -13    1    3    3    0    0  0.17148404416E+02 -0.37034958377E+02  0.12314487009E+02  0.42629962219E+02  0.10570000000E+00 0. -1.
         13    1    3    3    0    0 -0.17148404416E+02  0.37034958377E+02  0.70673399267E+02  0.81611251996E+02  0.10570000000E+00 0.  1.
<mgrwt>
<rscale>  0 0.92460208E+02</rscale>
<asrwt>0</asrwt>
<pdfrwt beam="1">  1        1 0.15940700E-01 0.92460208E+02</pdfrwt>
<pdfrwt beam="2">  1       -1 0.31733329E-02 0.92460208E+02</pdfrwt>
<totfact> 0.10114145E+05</totfact>
</mgrwt>
</event>
<event>
 5    1  0.2734570E+000  0.9224370E+02  0.7818608E-02  0.1297507E+00
          1   -1    0    0  501    0  0.00000000000E+00  0.00000000000E+00  0.30871035341E+02  0.30871035695E+02  0.46700000000E-02 0. -1.
         -1   -1    0    0    0  501 -0.00000000000E+00 -0.00000000000E+00 -0.68906826429E+02  0.68906826587E+02  0.46700000000E-02 0.  1.
         23    2    1    2    0    0  0.00000000000E+00  0.00000000000E+00 -0.38035791088E+02  0.99777862282E+02  0.92243701128E+02 0.  0.
        -13    1    3    3    0    0  0.37934813083E+01 -0.40154577218E+02  0.51796100743E+01  0.40664728021E+02  0.10570000000E+00 0. -1.
         13    1    3    3    0    0 -0.37934813083E+01  0.40154577218E+02 -0.43215401162E+02  0.59113134260E+02  0.10570000000E+00 0.  1.
<mgrwt>
<rscale>  0 0.92243701E+02</rscale>
<asrwt>0</asrwt>
<pdfrwt beam="1">  1        1 0.47493901E-02 0.92243701E+02</pdfrwt>
<pdfrwt beam="2">  1       -1 0.10601050E-01 0.92243701E+02</pdfrwt>
<totfact> 0.84222678E+04</totfact>
</mgrwt>
</event>
<event>
 5    1  0.2734570E+000  0.8768457E+02  0.7818608E-02  0.1308558E+00
          1   -1    0    0  501    0  0.00000000000E+00  0.00000000000E+00  0.10074764677E+03  0.10074764688E+03  0.46700000000E-02 0. -1.
         -1   -1    0    0    0  501 -0.00000000000E+00 -0.00000000000E+00 -0.19078816849E+02  0.19078817420E+02  0.46700000000E-02 0.  1.
         23    2    1    2    0    0  0.00000000000E+00  0.00000000000E+00  0.81668829921E+02  0.11982646430E+03  0.87684569712E+02 0.  0.
        -13    1    3    3    0    0  0.11440242744E+02  0.30772702284E+02  0.80542326049E+02  0.86976524521E+02  0.10570000000E+00 0. -1.
         13    1    3    3    0    0 -0.11440242744E+02 -0.30772702284E+02  0.11265038722E+01  0.32849939777E+02  0.10570000000E+00 0.  1.
<mgrwt>
<rscale>  0 0.87684570E+02</rscale>
<asrwt>0</asrwt>
<pdfrwt beam="1">  1        1 0.15499638E-01 0.87684570E+02</pdfrwt>
<pdfrwt beam="2">  1       -1 0.29352027E-02 0.87684570E+02</pdfrwt>
<totfact> 0.11628633E+05</totfact>
</mgrwt>
</event>
<event>
 5    1  0.2734570E+000  0.9088744E+02  0.7818608E-02  0.1300717E+00
          1   -1    0    0  501    0  0.00000000000E+00  0.00000000000E+00  0.33052922681E+03  0.33052922684E+03  0.46700000000E-02 0. -1.
         -1   -1    0    0    0  501 -0.00000000000E+00 -0.00000000000E+00 -0.62479545946E+01  0.62479563399E+01  0.46700000000E-02 0.  1.
         23    2    1    2    0    0  0.00000000000E+00  0.00000000000E+00  0.32428127221E+03  0.33677718318E+03  0.90887444694E+02 0.  0.
        -13    1    3    3    0    0  0.26643750743E+02 -0.36260233986E+02  0.13858076316E+03  0.14570289329E+03  0.10570000000E+00 0. -1.
         13    1    3    3    0    0 -0.26643750743E+02  0.36260233986E+02  0.18570050906E+03  0.19107428989E+03  0.10570000000E+00 0.  1.
<mgrwt>
<rscale>  0 0.90887445E+02</rscale>
<asrwt>0</asrwt>
<pdfrwt beam="1">  1        1 0.50850636E-01 0.90887445E+02</pdfrwt>
<pdfrwt beam="2">  1       -1 0.96122419E-03 0.90887445E+02</pdfrwt>
<totfact> 0.13157975E+05</totfact>
</mgrwt>
</event>
<event>
 5    1  0.2734570E+000  0.9192277E+02  0.7818608E-02  0.1298261E+00
         -1   -1    0    0    0  501 -0.00000000000E+00  0.00000000000E+00  0.11576625510E+02  0.11576626452E+02  0.46700000000E-02 0.  1.
          1   -1    0    0  501    0  0.00000000000E+00 -0.00000000000E+00 -0.18247535930E+03  0.18247535936E+03  0.46700000000E-02 0. -1.
         23    2    1    2    0    0  0.00000000000E+00  0.00000000000E+00 -0.17089873379E+03  0.19405198581E+03  0.91922771859E+02 0.  0.
        -13    1    3    3    0    0  0.17757011614E+02  0.37487404104E+02 -0.12723613438E+03  0.13382698529E+03  0.10570000000E+00 0.  1.
         13    1    3    3    0    0 -0.17757011614E+02 -0.37487404104E+02 -0.43662599414E+02  0.60225000523E+02  0.10570000000E+00 0. -1.
<mgrwt>
<rscale>  0 0.91922772E+02</rscale>
<asrwt>0</asrwt>
<pdfrwt beam="2">  1        1 0.28073130E-01 0.91922772E+02</pdfrwt>
<pdfrwt beam="1">  1       -1 0.17810195E-02 0.91922772E+02</pdfrwt>
<totfact> 0.11380817E+05</totfact>
</mgrwt>
</event>
<event>
 5    1  0.2734570E+000  0.9158761E+02  0.7818608E-02  0.1299052E+00
         -1   -1    0    0    0  501 -0.00000000000E+00  0.00000000000E+00  0.40560474038E+02  0.40560474307E+02  0.46700000000E-02 0.  1.
          1   -1    0    0  501    0  0.00000000000E+00 -0.00000000000E+00 -0.51702366401E+02  0.51702366612E+02  0.46700000000E-02 0. -1.
         23    2    1    2    0    0  0.00000000000E+00  0.00000000000E+00 -0.11141892364E+02  0.92262840919E+02  0.91587608600E+02 0.  0.
        -13    1    3    3    0    0 -0.40889366866E+02 -0.16060132686E+02  0.74547021958E+01  0.44558410451E+02  0.10570000000E+00 0. -1.
         13    1    3    3    0    0  0.40889366866E+02  0.16060132686E+02 -0.18596594559E+02  0.47704430468E+02  0.10570000000E+00 0.  1.
<mgrwt>
<rscale>  0 0.91587609E+02</rscale>
<asrwt>0</asrwt>
<pdfrwt beam="2">  1        1 0.79542103E-02 0.91587609E+02</pdfrwt>
<pdfrwt beam="1">  1       -1 0.62400729E-02 0.91587609E+02</pdfrwt>
<totfact> 0.93059793E+04</totfact>
</mgrwt>
</event>
<event>
 5    1  0.2734570E+000  0.9150579E+02  0.7818608E-02  0.1299246E+00
          1   -1    0    0  501    0  0.00000000000E+00  0.00000000000E+00  0.23595156965E+03  0.23595156970E+03  0.46700000000E-02 0. -1.
         -1   -1    0    0    0  501 -0.00000000000E+00 -0.00000000000E+00 -0.88718513169E+01  0.88718525460E+01  0.46700000000E-02 0.  1.
         23    2    1    2    0    0  0.00000000000E+00  0.00000000000E+00  0.22707971834E+03  0.24482342225E+03  0.91505789982E+02 0.  0.
        -13    1    3    3    0    0  0.41957093218E+02  0.10758399749E+02  0.74111409957E+02  0.85840859122E+02  0.10570000000E+00 0.  1.
         13    1    3    3    0    0 -0.41957093218E+02 -0.10758399749E+02  0.15296830838E+03  0.15898256312E+03  0.10570000000E+00 0. -1.
<mgrwt>
<rscale>  0 0.91505790E+02</rscale>
<asrwt>0</asrwt>
<pdfrwt beam="1">  1        1 0.36300243E-01 0.91505790E+02</pdfrwt>
<pdfrwt beam="2">  1       -1 0.13649003E-02 0.91505790E+02</pdfrwt>
<totfact> 0.12111026E+05</totfact>
</mgrwt>
</event>
<event>
 5    1  0.2734570E+000  0.9151577E+02  0.7818608E-02  0.1299222E+00
          1   -1    0    0  501    0  0.00000000000E+00  0.00000000000E+00  0.26425583105E+02  0.26425583517E+02  0.46700000000E-02 0. -1.
         -1   -1    0    0    0  501 -0.00000000000E+00 -0.00000000000E+00 -0.79233212504E+02  0.79233212641E+02  0.46700000000E-02 0.  1.
         23    2    1    2    0    0  0.00000000000E+00  0.00000000000E+00 -0.52807629399E+02  0.10565879616E+03  0.91515766308E+02 0.  0.
        -13    1    3    3    0    0 -0.31092954091E+02 -0.27322675790E+02 -0.48923963447E+02  0.64084832670E+02  0.10570000000E+00 0. -1.
         13    1    3    3    0    0  0.31092954091E+02  0.27322675790E+02 -0.38836659517E+01  0.41573963489E+02  0.10570000000E+00 0.  1.
<mgrwt>
<rscale>  0 0.91515766E+02</rscale>
<asrwt>0</asrwt>
<pdfrwt beam="1">  1        1 0.40654744E-02 0.91515766E+02</pdfrwt>
<pdfrwt beam="2">  1       -1 0.12189725E-01 0.91515766E+02</pdfrwt>
<totfact> 0.83986188E+04</totfact>
</mgrwt>
</event>
<event>
 5    1  0.2734570E+000  0.9550335E+02  0.7818608E-02  0.1290046E+00
         -1   -1    0    0    0  501 -0.00000000000E+00  0.00000000000E+00  0.29756959588E+03  0.29756959591E+03  0.46700000000E-02 0.  1.
          1   -1    0    0  501    0  0.00000000000E+00 -0.00000000000E+00 -0.76628199240E+01  0.76628213470E+01  0.46700000000E-02 0. -1.
         23    2    1    2    0    0  0.00000000000E+00  0.00000000000E+00  0.28990677595E+03  0.30523241726E+03  0.95503349697E+02 0.  0.
        -13    1    3    3    0    0 -0.38809364135E+02 -0.26691089533E+02  0.17004387541E+03  0.17644690913E+03  0.10570000000E+00 0. -1.
         13    1    3    3    0    0  0.38809364135E+02  0.26691089533E+02  0.11986290054E+03  0.12878550813E+03  0.10570000000E+00 0.  1.
<mgrwt>
<rscale>  0 0.95503350E+02</rscale>
<asrwt>0</asrwt>
<pdfrwt beam="2">  1        1 0.11788954E-02 0.95503350E+02</pdfrwt>
<pdfrwt beam="1">  1       -1 0.45779940E-01 0.95503350E+02</pdfrwt>
<totfact> 0.53826573E+04</totfact>
</mgrwt>
</event>
<event>
 5    1  0.2734570E+000  0.9420582E+02  0.7818608E-02  0.1292975E+00
          1   -1    0    0  501    0  0.00000000000E+00  0.00000000000E+00  0.99572777181E+02  0.99572777290E+02  0.46700000000E-02 0. -1.
         -1   -1    0    0    0  501 -0.00000000000E+00 -0.00000000000E+00 -0.22282033905E+02  0.22282034395E+02  0.46700000000E-02 0.  1.
         23    2    1    2    0    0  0.00000000000E+00  0.00000000000E+00  0.77290743276E+02  0.12185481168E+03  0.94205817945E+02 0.  0.
        -13    1    3    3    0    0 -0.39281360403E+02 -0.14080347126E+02  0.66907330419E+02  0.78853557222E+02  0.10570000000E+00 0. -1.
         13    1    3    3    0    0  0.39281360403E+02  0.14080347126E+02  0.10383412856E+02  0.43001254463E+02  0.10570000000E+00 0.  1.
<mgrwt>
<rscale>  0 0.94205818E+02</rscale>
<asrwt>0</asrwt>
<pdfrwt beam="1">  1        1 0.15318889E-01 0.94205818E+02</pdfrwt>
<pdfrwt beam="2">  1       -1 0.34280053E-02 0.94205818E+02</pdfrwt>
<totfact> 0.95454126E+04</totfact>
</mgrwt>
</event>
<event>
 5    1  0.2734570E+000  0.9312624E+02  0.7818608E-02  0.1295453E+00
          1   -1    0    0  501    0  0.00000000000E+00  0.00000000000E+00  0.79995705300E+01  0.79995718931E+01  0.46700000000E-02 0. -1.
         -1   -1    0    0    0  501 -0.00000000000E+00 -0.00000000000E+00 -0.27103001856E+03  0.27103001860E+03  0.46700000000E-02 0.  1.
         23    2    1    2    0    0  0.00000000000E+00  0.00000000000E+00 -0.26303044803E+03  0.27902959049E+03  0.93126235723E+02 0.  0.
        -13    1    3    3    0    0  0.58693899885E+01  0.37360273124E+02 -0.50125602248E+02  0.62791933558E+02  0.10570000000E+00 0. -1.
         13    1    3    3    0    0 -0.58693899885E+01 -0.37360273124E+02 -0.21290484578E+03  0.21623765694E+03  0.10570000000E+00 0.  1.
<mgrwt>
<rscale>  0 0.93126236E+02</rscale>
<asrwt>0</asrwt>
<pdfrwt beam="1">  1        1 0.12307035E-02 0.93126236E+02</pdfrwt>
<pdfrwt beam="2">  1       -1 0.41696919E-01 0.93126236E+02</pdfrwt>
<totfact> 0.59565898E+04</totfact>
</mgrwt>
</event>
<event>
 5    1  0.2734570E+000  0.9134755E+02  0.7818608E-02  0.1299621E+00
         -1   -1    0    0    0  501 -0.00000000000E+00  0.00000000000E+00  0.12650028032E+02  0.12650028894E+02  0.46700000000E-02 0.  1.
          1   -1    0    0  501    0  0.00000000000E+00 -0.00000000000E+00 -0.16490822643E+03  0.16490822649E+03  0.46700000000E-02 0. -1.
         23    2    1    2    0    0  0.00000000000E+00  0.00000000000E+00 -0.15225819839E+03  0.17755825539E+03  0.91347551022E+02 0.  0.
        -13    1    3    3    0    0  0.16692170104E+02  0.29093448136E+02 -0.15871561963E+02  0.37107612681E+02  0.10570000000E+00 0.  1.
         13    1    3    3    0    0 -0.16692170104E+02 -0.29093448136E+02 -0.13638663643E+03  0.14045064270E+03  0.10570000000E+00 0. -1.
<mgrwt>
<rscale>  0 0.91347551E+02</rscale>
<asrwt>0</asrwt>
<pdfrwt beam="2">  1        1 0.25370495E-01 0.91347551E+02</pdfrwt>
<pdfrwt beam="1">  1       -1 0.19461584E-02 0.91347551E+02</pdfrwt>
<totfact> 0.11354828E+05</totfact>
</mgrwt>
</event>
<event>
 5    1  0.2734570E+000  0.9103212E+02  0.7818608E-02  0.1300371E+00
         -1   -1    0    0    0  501 -0.00000000000E+00  0.00000000000E+00  0.17152036030E+03  0.17152036036E+03  0.46700000000E-02 0.  1.
          1   -1    0    0  501    0  0.00000000000E+00 -0.00000000000E+00 -0.12078516161E+02  0.12078517064E+02  0.46700000000E-02 0. -1.
         23    2    1    2    0    0  0.00000000000E+00  0.00000000000E+00  0.15944184414E+03  0.18359887743E+03  0.91032115928E+02 0.  0.
        -13    1    3    3    0    0 -0.30128266048E+02 -0.36836339007E+01  0.14812836654E+03  0.15120616958E+03  0.10570000000E+00 0.  1.
         13    1    3    3    0    0  0.30128266048E+02  0.36836339007E+01  0.11313477602E+02  0.32392707848E+02  0.10570000000E+00 0. -1.
<mgrwt>
<rscale>  0 0.91032116E+02</rscale>
<asrwt>0</asrwt>
<pdfrwt beam="2">  1        1 0.18582334E-02 0.91032116E+02</pdfrwt>
<pdfrwt beam="1">  1       -1 0.26387747E-01 0.91032116E+02</pdfrwt>
<totfact> 0.72673521E+04</totfact>
</mgrwt>
</event>
<event>
 5    1  0.2734570E+000  0.9698890E+02  0.7818608E-02  0.1286758E+00
          1   -1    0    0  501    0  0.00000000000E+00  0.00000000000E+00  0.34034093395E+03  0.34034093399E+03  0.46700000000E-02 0. -1.
         -1   -1    0    0    0  501 -0.00000000000E+00 -0.00000000000E+00 -0.69098698606E+01  0.69098714387E+01  0.46700000000E-02 0.  1.
         23    2    1    2    0    0  0.00000000000E+00  0.00000000000E+00  0.33343106409E+03  0.34725080542E+03  0.96988903312E+02 0.  0.
        -13    1    3    3    0    0 -0.46127897148E+02  0.77507220801E+01  0.21254413214E+03  0.21763013548E+03  0.10570000000E+00 0. -1.
         13    1    3    3    0    0  0.46127897148E+02 -0.77507220801E+01  0.12088693195E+03  0.12962066994E+03  0.10570000000E+00 0.  1.
<mgrwt>
<rscale>  0 0.96988903E+02</rscale>
<asrwt>0</asrwt>
<pdfrwt beam="1">  1        1 0.52360150E-01 0.96988903E+02</pdfrwt>
<pdfrwt beam="2">  1       -1 0.10630569E-02 0.96988903E+02</pdfrwt>
<totfact> 0.11122014E+05</totfact>
</mgrwt>
</event>
<event>
 5    1  0.2734570E+000  0.9005715E+02  0.7818608E-02  0.1302713E+00
         -1   -1    0    0    0  501 -0.00000000000E+00  0.00000000000E+00  0.61530100874E+02  0.61530101051E+02  0.46700000000E-02 0.  1.
          1   -1    0    0  501    0  0.00000000000E+00 -0.00000000000E+00 -0.32952532882E+02  0.32952533213E+02  0.46700000000E-02 0. -1.
         23    2    1    2    0    0  0.00000000000E+00  0.00000000000E+00  0.28577567992E+02  0.94482634264E+02  0.90057152882E+02 0.  0.
        -13    1    3    3    0    0 -0.31113536823E+02 -0.24829738361E+02  0.36370480145E+02  0.53920228849E+02  0.10570000000E+00 0. -1.
         13    1    3    3    0    0  0.31113536823E+02  0.24829738361E+02 -0.77929121532E+01  0.40562405415E+02  0.10570000000E+00 0.  1.
<mgrwt>
<rscale>  0 0.90057153E+02</rscale>
<asrwt>0</asrwt>
<pdfrwt beam="2">  1        1 0.50696205E-02 0.90057153E+02</pdfrwt>
<pdfrwt beam="1">  1       -1 0.94661693E-02 0.90057153E+02</pdfrwt>
<totfact> 0.91143820E+04</totfact>
</mgrwt>
</event>
<event>
 5    1  0.2734570E+000  0.8937375E+02  0.7818608E-02  0.1304375E+00
          1   -1    0    0  501    0  0.00000000000E+00  0.00000000000E+00  0.10617010875E+03  0.10617010885E+03  0.46700000000E-02 0. -1.
         -1   -1    0    0    0  501 -0.00000000000E+00 -0.00000000000E+00 -0.18808654677E+02  0.18808655257E+02  0.46700000000E-02 0.  1.
         23    2    1    2    0    0  0.00000000000E+00  0.00000000000E+00  0.87361454069E+02  0.12497876410E+03  0.89373753531E+02 0.  0.
        -13    1    3    3    0    0  0.30624586798E+02  0.30962540589E+02  0.57689816209E+02  0.72281880876E+02  0.10570000000E+00 0. -1.
         13    1    3    3    0    0 -0.30624586798E+02 -0.30962540589E+02  0.29671637859E+02  0.52696883229E+02  0.10570000000E+00 0.  1.
<mgrwt>
<rscale>  0 0.89373754E+02</rscale>
<asrwt>0</asrwt>
<pdfrwt beam="1">  1        1 0.16333863E-01 0.89373754E+02</pdfrwt>
<pdfrwt beam="2">  1       -1 0.28936392E-02 0.89373754E+02</pdfrwt>
<totfact> 0.11138552E+05</totfact>
</mgrwt>
</event>
<event>
 5    1  0.2734570E+000  0.9210951E+02  0.7818608E-02  0.1297822E+00
         -1   -1    0    0    0  501 -0.00000000000E+00  0.00000000000E+00  0.80881136135E+01  0.80881149617E+01  0.46700000000E-02 0.  1.
          1   -1    0    0  501    0  0.00000000000E+00 -0.00000000000E+00 -0.26224166910E+03  0.26224166914E+03  0.46700000000E-02 0. -1.
         23    2    1    2    0    0  0.00000000000E+00  0.00000000000E+00 -0.25415355548E+03  0.27032978410E+03  0.92109513118E+02 0.  0.
        -13    1    3    3    0    0  0.21717228090E+01  0.45362817033E+02 -0.10462396223E+03  0.11405562763E+03  0.10570000000E+00 0.  1.
         13    1    3    3    0    0 -0.21717228090E+01 -0.45362817033E+02 -0.14952959326E+03  0.15627415647E+03  0.10570000000E+00 0. -1.
<mgrwt>
<rscale>  0 0.92109513E+02</rscale>
<asrwt>0</asrwt>
<pdfrwt beam="2">  1        1 0.40344866E-01 0.92109513E+02</pdfrwt>
<pdfrwt beam="1">  1       -1 0.12443255E-02 0.92109513E+02</pdfrwt>
<totfact> 0.12147951E+05</totfact>
</mgrwt>
</event>
<event>
 5    1  0.2734570E+000  0.9731042E+02  0.7818608E-02  0.1286056E+00
         -1   -1    0    0    0  501 -0.00000000000E+00  0.00000000000E+00  0.32563309835E+02  0.32563310170E+02  0.46700000000E-02 0.  1.
          1   -1    0    0  501    0  0.00000000000E+00 -0.00000000000E+00 -0.72699293535E+02  0.72699293685E+02  0.46700000000E-02 0. -1.
         23    2    1    2    0    0  0.00000000000E+00  0.00000000000E+00 -0.40135983699E+02  0.10526260385E+03  0.97310423814E+02 0.  0.
        -13    1    3    3    0    0  0.29600345032E+01  0.11434520796E+02  0.30988816603E+02  0.33163654760E+02  0.10570000000E+00 0.  1.
         13    1    3    3    0    0 -0.29600345032E+01 -0.11434520796E+02 -0.71124800302E+02  0.72098949095E+02  0.10570000000E+00 0. -1.
<mgrwt>
<rscale>  0 0.97310424E+02</rscale>
<asrwt>0</asrwt>
<pdfrwt beam="2">  1        1 0.11184507E-01 0.97310424E+02</pdfrwt>
<pdfrwt beam="1">  1       -1 0.50097400E-02 0.97310424E+02</pdfrwt>
<totfact> 0.82873825E+04</totfact>
</mgrwt>
</event>
<event>
 5    1  0.2734570E+000  0.9152763E+02  0.7818608E-02  0.1299194E+00
         -1   -1    0    0    0  501 -0.00000000000E+00  0.00000000000E+00  0.10374109574E+02  0.10374110625E+02  0.46700000000E-02 0.  1.
          1   -1    0    0  501    0  0.00000000000E+00 -0.00000000000E+00 -0.20188013971E+03  0.20188013976E+03  0.46700000000E-02 0. -1.
         23    2    1    2    0    0  0.00000000000E+00  0.00000000000E+00 -0.19150603013E+03  0.21225425038E+03  0.91527630961E+02 0.  0.
        -13    1    3    3    0    0  0.30889108473E+02  0.16732426489E+02 -0.27737963225E+02  0.44760662359E+02  0.10570000000E+00 0.  1.
         13    1    3    3    0    0 -0.30889108473E+02 -0.16732426489E+02 -0.16376806691E+03  0.16749358802E+03  0.10570000000E+00 0. -1.
<mgrwt>
<rscale>  0 0.91527631E+02</rscale>
<asrwt>0</asrwt>
<pdfrwt beam="2">  1        1 0.31058480E-01 0.91527631E+02</pdfrwt>
<pdfrwt beam="1">  1       -1 0.15960171E-02 0.91527631E+02</pdfrwt>
<totfact> 0.11740484E+05</totfact>
</mgrwt>
</event>
<event>
 5    1  0.2734570E+000  0.8865228E+02  0.7818608E-02  0.1306149E+00
         -1   -1    0    0    0  501 -0.00000000000E+00  0.00000000000E+00  0.39213109981E+02  0.39213110259E+02  0.46700000000E-02 0.  1.
          1   -1    0    0  501    0  0.00000000000E+00 -0.00000000000E+00 -0.50105857494E+02  0.50105857711E+02  0.46700000000E-02 0. -1.
         23    2    1    2    0    0  0.00000000000E+00  0.00000000000E+00 -0.10892747513E+02  0.89318967971E+02  0.88652276287E+02 0.  0.
        -13    1    3    3    0    0  0.36908222638E+02  0.64106343394E+00  0.19277268878E+02  0.41644352900E+02  0.10570000000E+00 0.  1.
         13    1    3    3    0    0 -0.36908222638E+02 -0.64106343394E+00 -0.30170016391E+02  0.47674615070E+02  0.10570000000E+00 0. -1.
<mgrwt>
<rscale>  0 0.88652276E+02</rscale>
<asrwt>0</asrwt>
<pdfrwt beam="2">  1        1 0.77085935E-02 0.88652276E+02</pdfrwt>
<pdfrwt beam="1">  1       -1 0.60327862E-02 0.88652276E+02</pdfrwt>
<totfact> 0.10142635E+05</totfact>
</mgrwt>
</event>
<event>
 5    1  0.2734570E+000  0.9007576E+02  0.7818608E-02  0.1302668E+00
          1   -1    0    0  501    0  0.00000000000E+00  0.00000000000E+00  0.54191783779E+02  0.54191783980E+02  0.46700000000E-02 0. -1.
         -1   -1    0    0    0  501 -0.00000000000E+00 -0.00000000000E+00 -0.37430224279E+02  0.37430224570E+02  0.46700000000E-02 0.  1.
         23    2    1    2    0    0  0.00000000000E+00  0.00000000000E+00  0.16761559500E+02  0.91622008550E+02  0.90075760191E+02 0.  0.
        -13    1    3    3    0    0 -0.14026808491E+02  0.38911105042E+02  0.26507296419E+02  0.49127114591E+02  0.10570000000E+00 0. -1.
         13    1    3    3    0    0  0.14026808491E+02 -0.38911105042E+02 -0.97457369190E+01  0.42494893960E+02  0.10570000000E+00 0.  1.
<mgrwt>
<rscale>  0 0.90075760E+02</rscale>
<asrwt>0</asrwt>
<pdfrwt beam="1">  1        1 0.83371975E-02 0.90075760E+02</pdfrwt>
<pdfrwt beam="2">  1       -1 0.57584961E-02 0.90075760E+02</pdfrwt>
<totfact> 0.98164715E+04</totfact>
</mgrwt>
</event>
<event>
 5    1  0.2734570E+000  0.9107634E+02  0.7818608E-02  0.1300266E+00
         -1   -1    0    0    0  501 -0.00000000000E+00  0.00000000000E+00  0.16805872089E+03  0.16805872096E+03  0.46700000000E-02 0.  1.
          1   -1    0    0  501    0  0.00000000000E+00 -0.00000000000E+00 -0.12339287381E+02  0.12339288264E+02  0.46700000000E-02 0. -1.
         23    2    1    2    0    0  0.00000000000E+00  0.00000000000E+00  0.15571943351E+03  0.18039800922E+03  0.91076340276E+02 0.  0.
        -13    1    3    3    0    0  0.41600331142E+02  0.11800778159E+02  0.10614109315E+03  0.11461146864E+03  0.10570000000E+00 0. -1.
         13    1    3    3    0    0 -0.41600331142E+02 -0.11800778159E+02  0.49578340364E+02  0.65786540584E+02  0.10570000000E+00 0.  1.
<mgrwt>
<rscale>  0 0.91076340E+02</rscale>
<asrwt>0</asrwt>
<pdfrwt beam="2">  1        1 0.18983521E-02 0.91076340E+02</pdfrwt>
<pdfrwt beam="1">  1       -1 0.25855186E-01 0.91076340E+02</pdfrwt>
<totfact> 0.72958914E+04</totfact>
</mgrwt>
</event>
<event>
 5    1  0.2734570E+000  0.9156236E+02  0.7818608E-02  0.1299112E+00
         -1   -1    0    0    0  501 -0.00000000000E+00  0.00000000000E+00  0.36675553414E+02  0.36675553712E+02  0.46700000000E-02 0.  1.
          1   -1    0    0  501    0  0.00000000000E+00 -0.00000000000E+00 -0.57147503154E+02  0.57147503345E+02  0.46700000000E-02 0. -1.
         23    2    1    2    0    0  0.00000000000E+00  0.00000000000E+00 -0.20471949740E+02  0.93823057056E+02  0.91562357491E+02 0.  0.
        -13    1    3    3    0    0  0.23466758038E+02  0.28234465188E+02  0.17789470763E+02  0.40796448372E+02  0.10570000000E+00 0.  1.
         13    1    3    3    0    0 -0.23466758038E+02 -0.28234465188E+02 -0.38261420502E+02  0.53026608685E+02  0.10570000000E+00 0. -1.
<mgrwt>
<rscale>  0 0.91562357E+02</rscale>
<asrwt>0</asrwt>
<pdfrwt beam="2">  1        1 0.87919236E-02 0.91562357E+02</pdfrwt>
<pdfrwt beam="1">  1       -1 0.56423928E-02 0.91562357E+02</pdfrwt>
<totfact> 0.94548302E+04</totfact>
</mgrwt>
</event>
<event>
 5    1  0.2734570E+000  0.9533393E+02  0.7818608E-02  0.1290426E+00
         -1   -1    0    0    0  501 -0.00000000000E+00  0.00000000000E+00  0.43263268394E+02  0.43263268646E+02  0.46700000000E-02 0.  1.
          1   -1    0    0  501    0  0.00000000000E+00 -0.00000000000E+00 -0.52518904902E+02  0.52518905110E+02  0.46700000000E-02 0. -1.
         23    2    1    2    0    0  0.00000000000E+00  0.00000000000E+00 -0.92556365081E+01  0.95782173756E+02  0.95333928914E+02 0.  0.
        -13    1    3    3    0    0 -0.12535828987E+02 -0.42191272548E+02  0.13757891617E+02  0.46114436371E+02  0.10570000000E+00 0.  1.
         13    1    3    3    0    0  0.12535828987E+02  0.42191272548E+02 -0.23013528125E+02  0.49667737384E+02  0.10570000000E+00 0. -1.
<mgrwt>
<rscale>  0 0.95333929E+02</rscale>
<asrwt>0</asrwt>
<pdfrwt beam="2">  1        1 0.80798315E-02 0.95333929E+02</pdfrwt>
<pdfrwt beam="1">  1       -1 0.66558875E-02 0.95333929E+02</pdfrwt>
<totfact> 0.83367075E+04</totfact>
</mgrwt>
</event>
<event>
 5    1  0.2734570E+000  0.8664628E+02  0.7818608E-02  0.1311183E+00
         -1   -1    0    0    0  501 -0.00000000000E+00  0.00000000000E+00  0.39362463893E+02  0.39362464170E+02  0.46700000000E-02 0.  1.
          1   -1    0    0  501    0  0.00000000000E+00 -0.00000000000E+00 -0.47682342955E+02  0.47682343184E+02  0.46700000000E-02 0. -1.
         23    2    1    2    0    0  0.00000000000E+00  0.00000000000E+00 -0.83198790622E+01  0.87044807354E+02  0.86646281511E+02 0.  0.
        -13    1    3    3    0    0 -0.28318503091E+02 -0.18335215875E+02  0.23145317538E+02  0.40912524426E+02  0.10570000000E+00 0.  1.
         13    1    3    3    0    0  0.28318503091E+02  0.18335215875E+02 -0.31465196601E+02  0.46132282927E+02  0.10570000000E+00 0. -1.
<mgrwt>
<rscale>  0 0.86646282E+02</rscale>
<asrwt>0</asrwt>
<pdfrwt beam="2">  1        1 0.73357451E-02 0.86646282E+02</pdfrwt>
<pdfrwt beam="1">  1       -1 0.60557637E-02 0.86646282E+02</pdfrwt>
<totfact> 0.10730956E+05</totfact>
</mgrwt>
</event>
<event>
 5    1  0.2734570E+000  0.9150905E+02  0.7818608E-02  0.1299238E+00
          1   -1    0    0  501    0  0.00000000000E+00  0.00000000000E+00  0.69090251296E+02  0.69090251454E+02  0.46700000000E-02 0. -1.
         -1   -1    0    0    0  501 -0.00000000000E+00 -0.00000000000E+00 -0.30300603484E+02  0.30300603844E+02  0.46700000000E-02 0.  1.
         23    2    1    2    0    0  0.00000000000E+00  0.00000000000E+00  0.38789647812E+02  0.99390855298E+02  0.91509045124E+02 0.  0.
        -13    1    3    3    0    0  0.18238998192E+02  0.24810708569E+02  0.56150913569E+02  0.64040366815E+02  0.10570000000E+00 0. -1.
         13    1    3    3    0    0 -0.18238998192E+02 -0.24810708569E+02 -0.17361265757E+02  0.35350488482E+02  0.10570000000E+00 0.  1.
<mgrwt>
<rscale>  0 0.91509045E+02</rscale>
<asrwt>0</asrwt>
<pdfrwt beam="1">  1        1 0.10629269E-01 0.91509045E+02</pdfrwt>
<pdfrwt beam="2">  1       -1 0.46616314E-02 0.91509045E+02</pdfrwt>
<totfact> 0.97483745E+04</totfact>
</mgrwt>
</event>
<event>
 5    1  0.2734570E+000  0.8718879E+02  0.7818608E-02  0.1309806E+00
          1   -1    0    0  501    0  0.00000000000E+00  0.00000000000E+00  0.15366285582E+02  0.15366286291E+02  0.46700000000E-02 0. -1.
         -1   -1    0    0    0  501 -0.00000000000E+00 -0.00000000000E+00 -0.12367799610E+03  0.12367799619E+03  0.46700000000E-02 0.  1.
         23    2    1    2    0    0  0.00000000000E+00  0.00000000000E+00 -0.10831171052E+03  0.13904428248E+03  0.87188794319E+02 0.  0.
        -13    1    3    3    0    0 -0.30142902061E+02 -0.13405337458E+02 -0.99603771539E+02  0.10492483069E+03  0.10570000000E+00 0.  1.
         13    1    3    3    0    0  0.30142902061E+02  0.13405337458E+02 -0.87079389796E+01  0.34119451794E+02  0.10570000000E+00 0. -1.
<mgrwt>
<rscale>  0 0.87188794E+02</rscale>
<asrwt>0</asrwt>
<pdfrwt beam="1">  1        1 0.23640441E-02 0.87188794E+02</pdfrwt>
<pdfrwt beam="2">  1       -1 0.19027383E-01 0.87188794E+02</pdfrwt>
<totfact> 0.87596711E+04</totfact>
</mgrwt>
</event>
<event>
 5    1  0.2734570E+000  0.9021035E+02  0.7818608E-02  0.1302343E+00
         -1   -1    0    0    0  501 -0.00000000000E+00  0.00000000000E+00  0.14745651895E+02  0.14745652635E+02  0.46700000000E-02 0.  1.
          1   -1    0    0  501    0  0.00000000000E+00 -0.00000000000E+00 -0.13797128494E+03  0.13797128502E+03  0.46700000000E-02 0. -1.
         23    2    1    2    0    0  0.00000000000E+00  0.00000000000E+00 -0.12322563304E+03  0.15271693765E+03  0.90210345343E+02 0.  0.
        -13    1    3    3    0    0  0.17676076100E+02 -0.41444464686E+02 -0.65155025549E+02  0.79216638696E+02  0.10570000000E+00 0. -1.
         13    1    3    3    0    0 -0.17676076100E+02  0.41444464686E+02 -0.58070607493E+02  0.73500298955E+02  0.10570000000E+00 0.  1.
<mgrwt>
<rscale>  0 0.90210345E+02</rscale>
<asrwt>0</asrwt>
<pdfrwt beam="2">  1        1 0.21226351E-01 0.90210345E+02</pdfrwt>
<pdfrwt beam="1">  1       -1 0.22685620E-02 0.90210345E+02</pdfrwt>
<totfact> 0.11366153E+05</totfact>
</mgrwt>
</event>
<event>
 5    1  0.2734570E+000  0.9087615E+02  0.7818608E-02  0.1300744E+00
          1   -1    0    0  501    0  0.00000000000E+00  0.00000000000E+00  0.43609964783E+02  0.43609965033E+02  0.46700000000E-02 0. -1.
         -1   -1    0    0    0  501 -0.00000000000E+00 -0.00000000000E+00 -0.47342820483E+02  0.47342820714E+02  0.46700000000E-02 0.  1.
         23    2    1    2    0    0  0.00000000000E+00  0.00000000000E+00 -0.37328557007E+01  0.90952785746E+02  0.90876152116E+02 0.  0.
        -13    1    3    3    0    0 -0.42741821904E+01  0.44239430218E+02  0.75867349815E+01  0.45088419130E+02  0.10570000000E+00 0. -1.
         13    1    3    3    0    0  0.42741821904E+01 -0.44239430218E+02 -0.11319590682E+02  0.45864366617E+02  0.10570000000E+00 0.  1.
<mgrwt>
<rscale>  0 0.90876152E+02</rscale>
<asrwt>0</asrwt>
<pdfrwt beam="1">  1        1 0.67092253E-02 0.90876152E+02</pdfrwt>
<pdfrwt beam="2">  1       -1 0.72835109E-02 0.90876152E+02</pdfrwt>
<totfact> 0.92713924E+04</totfact>
</mgrwt>
</event>
<event>
 5    1  0.2734570E+000  0.9174047E+02  0.7818608E-02  0.1298691E+00
          1   -1    0    0  501    0  0.00000000000E+00  0.00000000000E+00  0.17912096107E+03  0.17912096113E+03  0.46700000000E-02 0. -1.
         -1   -1    0    0    0  501 -0.00000000000E+00 -0.00000000000E+00 -0.11746689172E+02  0.11746690100E+02  0.46700000000E-02 0.  1.
         23    2    1    2    0    0  0.00000000000E+00  0.00000000000E+00  0.16737427190E+03  0.19086765123E+03  0.91740467586E+02 0.  0.
        -13    1    3    3    0    0 -0.10079166829E+02 -0.41182316745E+02  0.47263556493E+02  0.63493525350E+02  0.10570000000E+00 0.  1.
         13    1    3    3    0    0  0.10079166829E+02  0.41182316745E+02  0.12011071540E+03  0.12737412588E+03  0.10570000000E+00 0. -1.
<mgrwt>
<rscale>  0 0.91740468E+02</rscale>
<asrwt>0</asrwt>
<pdfrwt beam="1">  1        1 0.27557071E-01 0.91740468E+02</pdfrwt>
<pdfrwt beam="2">  1       -1 0.18071830E-02 0.91740468E+02</pdfrwt>
<totfact> 0.11401142E+05</totfact>
</mgrwt>
</event>
<event>
 5    1  0.2734570E+000  0.8909653E+02  0.7818608E-02  0.1305054E+00
          1   -1    0    0  501    0  0.00000000000E+00  0.00000000000E+00  0.14976391653E+02  0.14976392381E+02  0.46700000000E-02 0. -1.
         -1   -1    0    0    0  501 -0.00000000000E+00 -0.00000000000E+00 -0.13251173468E+03  0.13251173477E+03  0.46700000000E-02 0.  1.
         23    2    1    2    0    0  0.00000000000E+00  0.00000000000E+00 -0.11753534303E+03  0.14748812715E+03  0.89096525118E+02 0.  0.
        -13    1    3    3    0    0  0.20380134637E+02 -0.34752045718E+02 -0.27294565416E+02  0.48662706904E+02  0.10570000000E+00 0. -1.
         13    1    3    3    0    0 -0.20380134637E+02  0.34752045718E+02 -0.90240777614E+02  0.98825420243E+02  0.10570000000E+00 0.  1.
<mgrwt>
<rscale>  0 0.89096525E+02</rscale>
<asrwt>0</asrwt>
<pdfrwt beam="1">  1        1 0.23040604E-02 0.89096525E+02</pdfrwt>
<pdfrwt beam="2">  1       -1 0.20386420E-01 0.89096525E+02</pdfrwt>
<totfact> 0.81637939E+04</totfact>
</mgrwt>
</event>
<event>
 5    1  0.2734570E+000  0.9014931E+02  0.7818608E-02  0.1302491E+00
          1   -1    0    0  501    0  0.00000000000E+00  0.00000000000E+00  0.14856329503E+03  0.14856329510E+03  0.46700000000E-02 0. -1.
         -1   -1    0    0    0  501 -0.00000000000E+00 -0.00000000000E+00 -0.13675816877E+02  0.13675817674E+02  0.46700000000E-02 0.  1.
         23    2    1    2    0    0  0.00000000000E+00  0.00000000000E+00  0.13488747815E+03  0.16223911277E+03  0.90149309216E+02 0.  0.
        -13    1    3    3    0    0  0.37419760568E+01 -0.38391267805E+02  0.25475442622E+02  0.46226628449E+02  0.10570000000E+00 0.  1.
         13    1    3    3    0    0 -0.37419760568E+01  0.38391267805E+02  0.10941203553E+03  0.11601248433E+03  0.10570000000E+00 0. -1.
<mgrwt>
<rscale>  0 0.90149309E+02</rscale>
<asrwt>0</asrwt>
<pdfrwt beam="1">  1        1 0.22855891E-01 0.90149309E+02</pdfrwt>
<pdfrwt beam="2">  1       -1 0.21039720E-02 0.90149309E+02</pdfrwt>
<totfact> 0.11540620E+05</totfact>
</mgrwt>
</event>
<event>
 5    1  0.2734570E+000  0.1004085E+03  0.7818608E-02  0.1279439E+00
         -1   -1    0    0    0  501 -0.00000000000E+00  0.00000000000E+00  0.14589514567E+02  0.14589515315E+02  0.46700000000E-02 0.  1.
          1   -1    0    0  501    0  0.00000000000E+00 -0.00000000000E+00 -0.17275879361E+03  0.17275879367E+03  0.46700000000E-02 0. -1.
         23    2    1    2    0    0  0.00000000000E+00  0.00000000000E+00 -0.15816927904E+03  0.18734830898E+03  0.10040850585E+03 0.  0.
        -13    1    3    3    0    0  0.40286963749E+02  0.77579182175E+01 -0.25096054138E+02  0.48094156079E+02  0.10570000000E+00 0.  1.
         13    1    3    3    0    0 -0.40286963749E+02 -0.77579182175E+01 -0.13307322490E+03  0.13925415290E+03  0.10570000000E+00 0. -1.
<mgrwt>
<rscale>  0 0.10040851E+03</rscale>
<asrwt>0</asrwt>
<pdfrwt beam="2">  1        1 0.26578275E-01 0.10040851E+03</pdfrwt>
<pdfrwt beam="1">  1       -1 0.22445409E-02 0.10040851E+03</pdfrwt>
<totfact> 0.88679901E+04</totfact>
</mgrwt>
</event>
<event>
 5    1  0.2734570E+000  0.9389426E+02  0.7818608E-02  0.1293686E+00
         -1   -1    0    0    0  501 -0.00000000000E+00  0.00000000000E+00  0.23720862046E+02  0.23720862506E+02  0.46700000000E-02 0.  1.
          1   -1    0    0  501    0  0.00000000000E+00 -0.00000000000E+00 -0.92915384635E+02  0.92915384752E+02  0.46700000000E-02 0. -1.
         23    2    1    2    0    0  0.00000000000E+00  0.00000000000E+00 -0.69194522588E+02  0.11663624726E+03  0.93894260837E+02 0.  0.
        -13    1    3    3    0    0 -0.13806023829E+02  0.18970728549E+02  0.15915387410E+02  0.28351464945E+02  0.10570000000E+00 0.  1.
         13    1    3    3    0    0  0.13806023829E+02 -0.18970728549E+02 -0.85109909998E+02  0.88284782313E+02  0.10570000000E+00 0. -1.
<mgrwt>
<rscale>  0 0.93894261E+02</rscale>
<asrwt>0</asrwt>
<pdfrwt beam="2">  1        1 0.14294674E-01 0.93894261E+02</pdfrwt>
<pdfrwt beam="1">  1       -1 0.36493635E-02 0.93894261E+02</pdfrwt>
<totfact> 0.95216758E+04</totfact>
</mgrwt>
</event>
<event>
 5    1  0.2734570E+000  0.8815324E+02  0.7818608E-02  0.1307387E+00
          1   -1    0    0  501    0  0.00000000000E+00  0.00000000000E+00  0.90549542915E+02  0.90549543036E+02  0.46700000000E-02 0. -1.
         -1   -1    0    0    0  501 -0.00000000000E+00 -0.00000000000E+00 -0.21455087098E+02  0.21455087606E+02  0.46700000000E-02 0.  1.
         23    2    1    2    0    0  0.00000000000E+00  0.00000000000E+00  0.69094455818E+02  0.11200463064E+03  0.88153238514E+02 0.  0.
        -13    1    3    3    0    0 -0.21968067898E+02 -0.21942259021E+02  0.74295451140E+02  0.80522568083E+02  0.10570000000E+00 0. -1.
         13    1    3    3    0    0  0.21968067898E+02  0.21942259021E+02 -0.52009953226E+01  0.31482062559E+02  0.10570000000E+00 0.  1.
<mgrwt>
<rscale>  0 0.88153239E+02</rscale>
<asrwt>0</asrwt>
<pdfrwt beam="1">  1        1 0.13930699E-01 0.88153239E+02</pdfrwt>
<pdfrwt beam="2">  1       -1 0.33007828E-02 0.88153239E+02</pdfrwt>
<totfact> 0.11265585E+05</totfact>
</mgrwt>
</event>
<event>
 5    1  0.2734570E+000  0.9119001E+02  0.7818608E-02  0.1299995E+00
         -1   -1    0    0    0  501 -0.00000000000E+00  0.00000000000E+00  0.45862358250E+02  0.45862358488E+02  0.46700000000E-02 0. -1.
          1   -1    0    0  501    0  0.00000000000E+00 -0.00000000000E+00 -0.45329208958E+02  0.45329209198E+02  0.46700000000E-02 0.  1.
         23    2    1    2    0    0  0.00000000000E+00  0.00000000000E+00  0.53314929239E+00  0.91191567687E+02  0.91190009151E+02 0.  0.
        -13    1    3    3    0    0  0.44846862739E+02 -0.76504998309E+01  0.32868952130E+01  0.45613442074E+02  0.10570000000E+00 0.  1.
         13    1    3    3    0    0 -0.44846862739E+02  0.76504998309E+01 -0.27537459206E+01  0.45578125612E+02  0.10570000000E+00 0. -1.
<mgrwt>
<rscale>  0 0.91190009E+02</rscale>
<asrwt>0</asrwt>
<pdfrwt beam="2">  1        1 0.69737245E-02 0.91190009E+02</pdfrwt>
<pdfrwt beam="1">  1       -1 0.70557475E-02 0.91190009E+02</pdfrwt>
<totfact> 0.92355531E+04</totfact>
</mgrwt>
</event>
<event>
 5    1  0.2734570E+000  0.9064974E+02  0.7818608E-02  0.1301286E+00
          1   -1    0    0  501    0  0.00000000000E+00  0.00000000000E+00  0.11937073956E+03  0.11937073965E+03  0.46700000000E-02 0. -1.
         -1   -1    0    0    0  501 -0.00000000000E+00 -0.00000000000E+00 -0.17209776888E+02  0.17209777522E+02  0.46700000000E-02 0.  1.
         23    2    1    2    0    0  0.00000000000E+00  0.00000000000E+00  0.10216096267E+03  0.13658051718E+03  0.90649740086E+02 0.  0.
        -13    1    3    3    0    0  0.18058552807E+02  0.23559410133E+02 -0.52593346756E+00  0.29689137977E+02  0.10570000000E+00 0.  1.
         13    1    3    3    0    0 -0.18058552807E+02 -0.23559410133E+02  0.10268689614E+03  0.10689137920E+03  0.10570000000E+00 0. -1.
<mgrwt>
<rscale>  0 0.90649740E+02</rscale>
<asrwt>0</asrwt>
<pdfrwt beam="1">  1        1 0.18364730E-01 0.90649740E+02</pdfrwt>
<pdfrwt beam="2">  1       -1 0.26476580E-02 0.90649740E+02</pdfrwt>
<totfact> 0.10934530E+05</totfact>
</mgrwt>
</event>
<event>
 5    1  0.2734570E+000  0.8961990E+02  0.7818608E-02  0.1303775E+00
         -1   -1    0    0    0  501 -0.00000000000E+00  0.00000000000E+00  0.12757929011E+02  0.12757929865E+02  0.46700000000E-02 0.  1.
          1   -1    0    0  501    0  0.00000000000E+00 -0.00000000000E+00 -0.15738693525E+03  0.15738693532E+03  0.46700000000E-02 0. -1.
         23    2    1    2    0    0  0.00000000000E+00  0.00000000000E+00 -0.14462900624E+03  0.17014486519E+03  0.89619895687E+02 0.  0.
        -13    1    3    3    0    0 -0.15693659869E+02  0.37247344139E+02 -0.35585950331E+02  0.53851895407E+02  0.10570000000E+00 0.  1.
         13    1    3    3    0    0  0.15693659869E+02 -0.37247344139E+02 -0.10904305591E+03  0.11629296978E+03  0.10570000000E+00 0. -1.
<mgrwt>
<rscale>  0 0.89619896E+02</rscale>
<asrwt>0</asrwt>
<pdfrwt beam="2">  1        1 0.24213373E-01 0.89619896E+02</pdfrwt>
<pdfrwt beam="1">  1       -1 0.19627585E-02 0.89619896E+02</pdfrwt>
<totfact> 0.11849844E+05</totfact>
</mgrwt>
</event>
<event>
 5    1  0.2734570E+000  0.8325393E+02  0.7818608E-02  0.1320063E+00
         -1   -1    0    0    0  501 -0.00000000000E+00  0.00000000000E+00  0.18035889244E+02  0.18035889848E+02  0.46700000000E-02 0.  1.
          1   -1    0    0  501    0  0.00000000000E+00 -0.00000000000E+00 -0.96075342162E+02  0.96075342275E+02  0.46700000000E-02 0. -1.
         23    2    1    2    0    0  0.00000000000E+00  0.00000000000E+00 -0.78039452918E+02  0.11411123212E+03  0.83253931349E+02 0.  0.
        -13    1    3    3    0    0  0.12708587555E+02 -0.17835109813E+02  0.95016101584E+01  0.23872392167E+02  0.10570000000E+00 0.  1.
         13    1    3    3    0    0 -0.12708587555E+02  0.17835109813E+02 -0.87541063077E+02  0.90238839957E+02  0.10570000000E+00 0. -1.
<mgrwt>
<rscale>  0 0.83253931E+02</rscale>
<asrwt>0</asrwt>
<pdfrwt beam="2">  1        1 0.14780822E-01 0.83253931E+02</pdfrwt>
<pdfrwt beam="1">  1       -1 0.27747523E-02 0.83253931E+02</pdfrwt>
<totfact> 0.13276285E+05</totfact>
</mgrwt>
</event>
<event>
 5    1  0.2734570E+000  0.8880743E+02  0.7818608E-02  0.1305766E+00
          1   -1    0    0  501    0  0.00000000000E+00  0.00000000000E+00  0.19222899688E+03  0.19222899693E+03  0.46700000000E-02 0. -1.
         -1   -1    0    0    0  501 -0.00000000000E+00 -0.00000000000E+00 -0.10256984663E+02  0.10256985726E+02  0.46700000000E-02 0.  1.
         23    2    1    2    0    0  0.00000000000E+00  0.00000000000E+00  0.18197201221E+03  0.20248598266E+03  0.88807431808E+02 0.  0.
        -13    1    3    3    0    0 -0.23554239311E+02 -0.37174235275E+02  0.10446591589E+03  0.11335724376E+03  0.10570000000E+00 0.  1.
         13    1    3    3    0    0  0.23554239311E+02  0.37174235275E+02  0.77506096322E+02  0.89128738897E+02  0.10570000000E+00 0. -1.
<mgrwt>
<rscale>  0 0.88807432E+02</rscale>
<asrwt>0</asrwt>
<pdfrwt beam="1">  1        1 0.29573691E-01 0.88807432E+02</pdfrwt>
<pdfrwt beam="2">  1       -1 0.15779978E-02 0.88807432E+02</pdfrwt>
<totfact> 0.12608626E+05</totfact>
</mgrwt>
</event>
<event>
 5    1  0.2734570E+000  0.8705484E+02  0.7818608E-02  0.1310145E+00
         -1   -1    0    0    0  501 -0.00000000000E+00  0.00000000000E+00  0.12233394544E+02  0.12233395435E+02  0.46700000000E-02 0.  1.
          1   -1    0    0  501    0  0.00000000000E+00 -0.00000000000E+00 -0.15487412331E+03  0.15487412338E+03  0.46700000000E-02 0. -1.
         23    2    1    2    0    0  0.00000000000E+00  0.00000000000E+00 -0.14264072877E+03  0.16710751882E+03  0.87054841003E+02 0.  0.
        -13    1    3    3    0    0  0.38372934699E+02  0.96437590690E+01 -0.10614559715E+03  0.11328010934E+03  0.10570000000E+00 0. -1.
         13    1    3    3    0    0 -0.38372934699E+02 -0.96437590690E+01 -0.36495131624E+02  0.53827409478E+02  0.10570000000E+00 0.  1.
<mgrwt>
<rscale>  0 0.87054841E+02</rscale>
<asrwt>0</asrwt>
<pdfrwt beam="2">  1        1 0.23826787E-01 0.87054841E+02</pdfrwt>
<pdfrwt beam="1">  1       -1 0.18820609E-02 0.87054841E+02</pdfrwt>
<totfact> 0.12772331E+05</totfact>
</mgrwt>
</event>
<event>
 5    1  0.2734570E+000  0.9154589E+02  0.7818608E-02  0.1299151E+00
         -1   -1    0    0    0  501 -0.00000000000E+00  0.00000000000E+00  0.47868896992E+03  0.47868896994E+03  0.46700000000E-02 0.  1.
          1   -1    0    0  501    0  0.00000000000E+00 -0.00000000000E+00 -0.43768747991E+01  0.43768772905E+01  0.46700000000E-02 0. -1.
         23    2    1    2    0    0  0.00000000000E+00  0.00000000000E+00  0.47431209512E+03  0.48306584723E+03  0.91545885682E+02 0.  0.
        -13    1    3    3    0    0  0.31845670426E+02 -0.32353643231E+02  0.20627631726E+03  0.21121277232E+03  0.10570000000E+00 0.  1.
         13    1    3    3    0    0 -0.31845670426E+02  0.32353643231E+02  0.26803577786E+03  0.27185307491E+03  0.10570000000E+00 0. -1.
<mgrwt>
<rscale>  0 0.91545886E+02</rscale>
<asrwt>0</asrwt>
<pdfrwt beam="2">  1        1 0.67336572E-03 0.91545886E+02</pdfrwt>
<pdfrwt beam="1">  1       -1 0.73644438E-01 0.91545886E+02</pdfrwt>
<totfact> 0.47789065E+04</totfact>
</mgrwt>
</event>
<event>
 5    1  0.2734570E+000  0.8944255E+02  0.7818608E-02  0.1304207E+00
         -1   -1    0    0    0  501 -0.00000000000E+00  0.00000000000E+00  0.14224553776E+03  0.14224553783E+03  0.46700000000E-02 0.  1.
          1   -1    0    0  501    0  0.00000000000E+00 -0.00000000000E+00 -0.14060140599E+02  0.14060141375E+02  0.46700000000E-02 0. -1.
         23    2    1    2    0    0  0.00000000000E+00  0.00000000000E+00  0.12818539716E+03  0.15630567921E+03  0.89442547529E+02 0.  0.
        -13    1    3    3    0    0 -0.24902261309E+02  0.42325832265E+01  0.12858534333E+03  0.13104289020E+03  0.10570000000E+00 0.  1.
         13    1    3    3    0    0  0.24902261309E+02 -0.42325832265E+01 -0.39994617632E+00  0.25262789009E+02  0.10570000000E+00 0. -1.
<mgrwt>
<rscale>  0 0.89442548E+02</rscale>
<asrwt>0</asrwt>
<pdfrwt beam="2">  1        1 0.21630986E-02 0.89442548E+02</pdfrwt>
<pdfrwt beam="1">  1       -1 0.21883929E-01 0.89442548E+02</pdfrwt>
<totfact> 0.79569147E+04</totfact>
</mgrwt>
</event>
<event>
 5    1  0.2734570E+000  0.8913931E+02  0.7818608E-02  0.1304949E+00
          1   -1    0    0  501    0  0.00000000000E+00  0.00000000000E+00  0.15017568400E+03  0.15017568407E+03  0.46700000000E-02 0. -1.
         -1   -1    0    0    0  501 -0.00000000000E+00 -0.00000000000E+00 -0.13227534821E+02  0.13227535645E+02  0.46700000000E-02 0.  1.
         23    2    1    2    0    0  0.00000000000E+00  0.00000000000E+00  0.13694814917E+03  0.16340321971E+03  0.89139310354E+02 0.  0.
        -13    1    3    3    0    0 -0.10545065642E+02  0.42889098701E+02  0.79437583030E+02  0.90890120293E+02  0.10570000000E+00 0.  1.
         13    1    3    3    0    0  0.10545065642E+02 -0.42889098701E+02  0.57510566145E+02  0.72513099421E+02  0.10570000000E+00 0. -1.
<mgrwt>
<rscale>  0 0.89139310E+02</rscale>
<asrwt>0</asrwt>
<pdfrwt beam="1">  1        1 0.23103953E-01 0.89139310E+02</pdfrwt>
<pdfrwt beam="2">  1       -1 0.20350052E-02 0.89139310E+02</pdfrwt>
<totfact> 0.11919292E+05</totfact>
</mgrwt>
</event>
<event>
 5    1  0.2734570E+000  0.9114528E+02  0.7818608E-02  0.1300102E+00
          1   -1    0    0  501    0  0.00000000000E+00  0.00000000000E+00  0.15580622000E+02  0.15580622700E+02  0.46700000000E-02 0. -1.
         -1   -1    0    0    0  501 -0.00000000000E+00 -0.00000000000E+00 -0.13329798465E+03  0.13329798473E+03  0.46700000000E-02 0.  1.
         23    2    1    2    0    0  0.00000000000E+00  0.00000000000E+00 -0.11771736265E+03  0.14887860743E+03  0.91145281180E+02 0.  0.
        -13    1    3    3    0    0  0.38786194419E+02  0.38410769708E+01 -0.20283253330E+02  0.43937959534E+02  0.10570000000E+00 0.  1.
         13    1    3    3    0    0 -0.38786194419E+02 -0.38410769708E+01 -0.97434109319E+02  0.10494064790E+03  0.10570000000E+00 0. -1.
<mgrwt>
<rscale>  0 0.91145281E+02</rscale>
<asrwt>0</asrwt>
<pdfrwt beam="1">  1        1 0.23970189E-02 0.91145281E+02</pdfrwt>
<pdfrwt beam="2">  1       -1 0.20507382E-01 0.91145281E+02</pdfrwt>
<totfact> 0.76876921E+04</totfact>
</mgrwt>
</event>
<event>
 5    1  0.2734570E+000  0.9214080E+02  0.7818608E-02  0.1297749E+00
         -1   -1    0    0    0  501 -0.00000000000E+00  0.00000000000E+00  0.15944442623E+02  0.15944443307E+02  0.46700000000E-02 0.  1.
          1   -1    0    0  501    0  0.00000000000E+00 -0.00000000000E+00 -0.13311734394E+03  0.13311734402E+03  0.46700000000E-02 0. -1.
         23    2    1    2    0    0  0.00000000000E+00  0.00000000000E+00 -0.11717290132E+03  0.14906178733E+03  0.92140803333E+02 0.  0.
        -13    1    3    3    0    0  0.17649681816E+02  0.31271376288E+02 -0.11893362307E+02  0.37826888355E+02  0.10570000000E+00 0.  1.
         13    1    3    3    0    0 -0.17649681816E+02 -0.31271376288E+02 -0.10527953901E+03  0.11123489898E+03  0.10570000000E+00 0. -1.
<mgrwt>
<rscale>  0 0.92140803E+02</rscale>
<asrwt>0</asrwt>
<pdfrwt beam="2">  1        1 0.20479591E-01 0.92140803E+02</pdfrwt>
<pdfrwt beam="1">  1       -1 0.24529913E-02 0.92140803E+02</pdfrwt>
<totfact> 0.10664751E+05</totfact>
</mgrwt>
</event>
<event>
 5    1  0.2734570E+000  0.8800645E+02  0.7818608E-02  0.1307752E+00
         -1   -1    0    0    0  501 -0.00000000000E+00  0.00000000000E+00  0.92324184704E+02  0.92324184822E+02  0.46700000000E-02 0.  1.
          1   -1    0    0  501    0  0.00000000000E+00 -0.00000000000E+00 -0.20972658574E+02  0.20972659094E+02  0.46700000000E-02 0. -1.
         23    2    1    2    0    0  0.00000000000E+00  0.00000000000E+00  0.71351526130E+02  0.11329684392E+03  0.88006446129E+02 0.  0.
        -13    1    3    3    0    0 -0.13175047328E+02  0.26515656753E+02 -0.62302615344E+01  0.30257053003E+02  0.10570000000E+00 0. -1.
         13    1    3    3    0    0  0.13175047328E+02 -0.26515656753E+02  0.77581787665E+02  0.83039790913E+02  0.10570000000E+00 0.  1.
<mgrwt>
<rscale>  0 0.88006446E+02</rscale>
<asrwt>0</asrwt>
<pdfrwt beam="2">  1        1 0.32265629E-02 0.88006446E+02</pdfrwt>
<pdfrwt beam="1">  1       -1 0.14203721E-01 0.88006446E+02</pdfrwt>
<totfact> 0.90416189E+04</totfact>
</mgrwt>
</event>
<event>
 5    1  0.2734570E+000  0.8870179E+02  0.7818608E-02  0.1306026E+00
          1   -1    0    0  501    0  0.00000000000E+00  0.00000000000E+00  0.73411374570E+02  0.73411374719E+02  0.46700000000E-02 0. -1.
         -1   -1    0    0    0  501 -0.00000000000E+00 -0.00000000000E+00 -0.26794237556E+02  0.26794237963E+02  0.46700000000E-02 0.  1.
         23    2    1    2    0    0  0.00000000000E+00  0.00000000000E+00  0.46617137015E+02  0.10020561268E+03  0.88701788874E+02 0.  0.
        -13    1    3    3    0    0 -0.27243582667E+01 -0.17213919211E+02 -0.22763570196E+02  0.28669364191E+02  0.10570000000E+00 0.  1.
         13    1    3    3    0    0  0.27243582667E+01  0.17213919211E+02  0.69380707210E+02  0.71536248490E+02  0.10570000000E+00 0. -1.
<mgrwt>
<rscale>  0 0.88701789E+02</rscale>
<asrwt>0</asrwt>
<pdfrwt beam="1">  1        1 0.11294057E-01 0.88701789E+02</pdfrwt>
<pdfrwt beam="2">  1       -1 0.41221905E-02 0.88701789E+02</pdfrwt>
<totfact> 0.10719808E+05</totfact>
</mgrwt>
</event>
<event>
 5    1  0.2734570E+000  0.9365243E+02  0.7818608E-02  0.1294240E+00
          1   -1    0    0  501    0  0.00000000000E+00  0.00000000000E+00  0.54849798366E+02  0.54849798565E+02  0.46700000000E-02 0. -1.
         -1   -1    0    0    0  501 -0.00000000000E+00 -0.00000000000E+00 -0.39976339863E+02  0.39976340135E+02  0.46700000000E-02 0.  1.
         23    2    1    2    0    0  0.00000000000E+00  0.00000000000E+00  0.14873458504E+02  0.94826138700E+02  0.93652425558E+02 0.  0.
        -13    1    3    3    0    0  0.19460839305E+02 -0.42430287180E+02  0.36986465593E+01  0.46826751922E+02  0.10570000000E+00 0.  1.
         13    1    3    3    0    0 -0.19460839305E+02  0.42430287180E+02  0.11174811944E+02  0.47999386779E+02  0.10570000000E+00 0. -1.
<mgrwt>
<rscale>  0 0.93652426E+02</rscale>
<asrwt>0</asrwt>
<pdfrwt beam="1">  1        1 0.84384305E-02 0.93652426E+02</pdfrwt>
<pdfrwt beam="2">  1       -1 0.61502062E-02 0.93652426E+02</pdfrwt>
<totfact> 0.88223754E+04</totfact>
</mgrwt>
</event>
<event>
 5    1  0.2734570E+000  0.1009055E+03  0.7818608E-02  0.1278403E+00
          1   -1    0    0  501    0  0.00000000000E+00  0.00000000000E+00  0.69504145980E+02  0.69504146137E+02  0.46700000000E-02 0. -1.
         -1   -1    0    0    0  501 -0.00000000000E+00 -0.00000000000E+00 -0.36623437807E+02  0.36623438105E+02  0.46700000000E-02 0.  1.
         23    2    1    2    0    0  0.00000000000E+00  0.00000000000E+00  0.32880708173E+02  0.10612758424E+03  0.10090551604E+03 0.  0.
        -13    1    3    3    0    0  0.20234275252E+02  0.16337951756E+02  0.61911027786E+02  0.67151627654E+02  0.10570000000E+00 0. -1.
         13    1    3    3    0    0 -0.20234275252E+02 -0.16337951756E+02 -0.29030319613E+02  0.38975956588E+02  0.10570000000E+00 0.  1.
<mgrwt>
<rscale>  0 0.10090552E+03</rscale>
<asrwt>0</asrwt>
<pdfrwt beam="1">  1        1 0.10692946E-01 0.10090552E+03</pdfrwt>
<pdfrwt beam="2">  1       -1 0.56343751E-02 0.10090552E+03</pdfrwt>
<totfact> 0.74345608E+04</totfact>
</mgrwt>
</event>
<event>
 5    1  0.2734570E+000  0.9062044E+02  0.7818608E-02  0.1301356E+00
          1   -1    0    0  501    0  0.00000000000E+00  0.00000000000E+00  0.29811438903E+02  0.29811439269E+02  0.46700000000E-02 0. -1.
         -1   -1    0    0    0  501 -0.00000000000E+00 -0.00000000000E+00 -0.68866713207E+02  0.68866713365E+02  0.46700000000E-02 0.  1.
         23    2    1    2    0    0  0.00000000000E+00  0.00000000000E+00 -0.39055274304E+02  0.98678152634E+02  0.90620435644E+02 0.  0.
        -13    1    3    3    0    0 -0.93328835510E+01 -0.22625783236E+02  0.21993904154E+02  0.32905497638E+02  0.10570000000E+00 0. -1.
         13    1    3    3    0    0  0.93328835510E+01  0.22625783236E+02 -0.61049178457E+02  0.65772654996E+02  0.10570000000E+00 0.  1.
<mgrwt>
<rscale>  0 0.90620436E+02</rscale>
<asrwt>0</asrwt>
<pdfrwt beam="1">  1        1 0.45863753E-02 0.90620436E+02</pdfrwt>
<pdfrwt beam="2">  1       -1 0.10594879E-01 0.90620436E+02</pdfrwt>
<totfact> 0.88130615E+04</totfact>
</mgrwt>
</event>
<event>
 5    1  0.2734570E+000  0.9077505E+02  0.7818608E-02  0.1300986E+00
          1   -1    0    0  501    0  0.00000000000E+00  0.00000000000E+00  0.15222617592E+02  0.15222618308E+02  0.46700000000E-02 0. -1.
         -1   -1    0    0    0  501 -0.00000000000E+00 -0.00000000000E+00 -0.13532673584E+03  0.13532673592E+03  0.46700000000E-02 0.  1.
         23    2    1    2    0    0  0.00000000000E+00  0.00000000000E+00 -0.12010411825E+03  0.15054935423E+03  0.90775045242E+02 0.  0.
        -13    1    3    3    0    0  0.92061542176E+01 -0.32509580373E+02 -0.11031246405E+03  0.11537104051E+03  0.10570000000E+00 0.  1.
         13    1    3    3    0    0 -0.92061542176E+01  0.32509580373E+02 -0.97916541970E+01  0.35178313716E+02  0.10570000000E+00 0. -1.
<mgrwt>
<rscale>  0 0.90775045E+02</rscale>
<asrwt>0</asrwt>
<pdfrwt beam="1">  1        1 0.23419413E-02 0.90775045E+02</pdfrwt>
<pdfrwt beam="2">  1       -1 0.20819497E-01 0.90775045E+02</pdfrwt>
<totfact> 0.77435431E+04</totfact>
</mgrwt>
</event>
<event>
 5    1  0.2734570E+000  0.9122265E+02  0.7818608E-02  0.1299918E+00
         -1   -1    0    0    0  501 -0.00000000000E+00  0.00000000000E+00  0.70494054349E+02  0.70494054504E+02  0.46700000000E-02 0.  1.
          1   -1    0    0  501    0  0.00000000000E+00 -0.00000000000E+00 -0.29511606025E+02  0.29511606395E+02  0.46700000000E-02 0. -1.
         23    2    1    2    0    0  0.00000000000E+00  0.00000000000E+00  0.40982448324E+02  0.10000566090E+03  0.91222645988E+02 0.  0.
        -13    1    3    3    0    0  0.56663891295E+01  0.18182785403E+02  0.65926222383E+02  0.68622151095E+02  0.10570000000E+00 0.  1.
         13    1    3    3    0    0 -0.56663891295E+01 -0.18182785403E+02 -0.24943774059E+02  0.31383509803E+02  0.10570000000E+00 0. -1.
<mgrwt>
<rscale>  0 0.91222646E+02</rscale>
<asrwt>0</asrwt>
<pdfrwt beam="2">  1        1 0.45402472E-02 0.91222646E+02</pdfrwt>
<pdfrwt beam="1">  1       -1 0.10845239E-01 0.91222646E+02</pdfrwt>
<totfact> 0.86330032E+04</totfact>
</mgrwt>
</event>
<event>
 5    1  0.2734570E+000  0.9093472E+02  0.7818608E-02  0.1300604E+00
          1   -1    0    0  501    0  0.00000000000E+00  0.00000000000E+00  0.10108964630E+03  0.10108964641E+03  0.46700000000E-02 0. -1.
         -1   -1    0    0    0  501 -0.00000000000E+00 -0.00000000000E+00 -0.20449973629E+02  0.20449974163E+02  0.46700000000E-02 0.  1.
         23    2    1    2    0    0  0.00000000000E+00  0.00000000000E+00  0.80639672670E+02  0.12153962057E+03  0.90934715923E+02 0.  0.
        -13    1    3    3    0    0  0.71607444913E+01 -0.44190665513E+02  0.29696227135E+02  0.53721208649E+02  0.10570000000E+00 0.  1.
         13    1    3    3    0    0 -0.71607444913E+01  0.44190665513E+02  0.50943445535E+02  0.67818411922E+02  0.10570000000E+00 0. -1.
<mgrwt>
<rscale>  0 0.90934716E+02</rscale>
<asrwt>0</asrwt>
<pdfrwt beam="1">  1        1 0.15552253E-01 0.90934716E+02</pdfrwt>
<pdfrwt beam="2">  1       -1 0.31461499E-02 0.90934716E+02</pdfrwt>
<totfact> 0.10540141E+05</totfact>
</mgrwt>
</event>
<event>
 5    1  0.2734570E+000  0.7783516E+02  0.7818608E-02  0.1335310E+00
         -1   -1    0    0    0  501 -0.00000000000E+00  0.00000000000E+00  0.37867708458E+02  0.37867708746E+02  0.46700000000E-02 0.  1.
          1   -1    0    0  501    0  0.00000000000E+00 -0.00000000000E+00 -0.39996558316E+02  0.39996558588E+02  0.46700000000E-02 0. -1.
         23    2    1    2    0    0  0.00000000000E+00  0.00000000000E+00 -0.21288498578E+01  0.77864267334E+02  0.77835159958E+02 0.  0.
        -13    1    3    3    0    0 -0.15374484085E+01 -0.37339219700E+02 -0.11930613055E+02  0.39229220943E+02  0.10570000000E+00 0. -1.
         13    1    3    3    0    0  0.15374484085E+01  0.37339219700E+02  0.98017631974E+01  0.38635046391E+02  0.10570000000E+00 0.  1.
<mgrwt>
<rscale>  0 0.77835160E+02</rscale>
<asrwt>0</asrwt>
<pdfrwt beam="2">  1        1 0.61533167E-02 0.77835160E+02</pdfrwt>
<pdfrwt beam="1">  1       -1 0.58258014E-02 0.77835160E+02</pdfrwt>
<totfact> 0.14088495E+05</totfact>
</mgrwt>
</event>
<event>
 5    1  0.2734570E+000  0.9134298E+02  0.7818608E-02  0.1299632E+00
         -1   -1    0    0    0  501 -0.00000000000E+00  0.00000000000E+00  0.44344671000E+02  0.44344671246E+02  0.46700000000E-02 0.  1.
          1   -1    0    0  501    0  0.00000000000E+00 -0.00000000000E+00 -0.47038012346E+02  0.47038012578E+02  0.46700000000E-02 0. -1.
         23    2    1    2    0    0  0.00000000000E+00  0.00000000000E+00 -0.26933413458E+01  0.91382683823E+02  0.91342984488E+02 0.  0.
        -13    1    3    3    0    0 -0.26847114510E+02  0.29106930276E+02 -0.24113825814E+02  0.46362363135E+02  0.10570000000E+00 0. -1.
         13    1    3    3    0    0  0.26847114510E+02 -0.29106930276E+02  0.21420484468E+02  0.45020320689E+02  0.10570000000E+00 0.  1.
<mgrwt>
<rscale>  0 0.91342984E+02</rscale>
<asrwt>0</asrwt>
<pdfrwt beam="2">  1        1 0.72366173E-02 0.91342984E+02</pdfrwt>
<pdfrwt beam="1">  1       -1 0.68222571E-02 0.91342984E+02</pdfrwt>
<totfact> 0.92434846E+04</totfact>
</mgrwt>
</event>
<event>
 5    1  0.2734570E+000  0.9086402E+02  0.7818608E-02  0.1300773E+00
         -1   -1    0    0    0  501 -0.00000000000E+00  0.00000000000E+00  0.11168278716E+03  0.11168278726E+03  0.46700000000E-02 0.  1.
          1   -1    0    0  501    0  0.00000000000E+00 -0.00000000000E+00 -0.18481519311E+02  0.18481519901E+02  0.46700000000E-02 0. -1.
         23    2    1    2    0    0  0.00000000000E+00  0.00000000000E+00  0.93201267846E+02  0.13016430716E+03  0.90864022195E+02 0.  0.
        -13    1    3    3    0    0 -0.32475642000E+02 -0.10726146314E+02  0.89440787542E+02  0.95756896288E+02  0.10570000000E+00 0.  1.
         13    1    3    3    0    0  0.32475642000E+02  0.10726146314E+02  0.37604803039E+01  0.34407410868E+02  0.10570000000E+00 0. -1.
<mgrwt>
<rscale>  0 0.90864022E+02</rscale>
<asrwt>0</asrwt>
<pdfrwt beam="2">  1        1 0.28433107E-02 0.90864022E+02</pdfrwt>
<pdfrwt beam="1">  1       -1 0.17181967E-01 0.90864022E+02</pdfrwt>
<totfact> 0.80379879E+04</totfact>
</mgrwt>
</event>
<event>
 5    1  0.2734570E+000  0.9291397E+02  0.7818608E-02  0.1295945E+00
          1   -1    0    0  501    0  0.00000000000E+00  0.00000000000E+00  0.25276830571E+03  0.25276830575E+03  0.46700000000E-02 0. -1.
         -1   -1    0    0    0  501 -0.00000000000E+00 -0.00000000000E+00 -0.85384566842E+01  0.85384579613E+01  0.46700000000E-02 0.  1.
         23    2    1    2    0    0  0.00000000000E+00  0.00000000000E+00  0.24422984902E+03  0.26130676371E+03  0.92913968851E+02 0.  0.
        -13    1    3    3    0    0 -0.17739205464E+02  0.41457491779E+02  0.15353748996E+03  0.16002242040E+03  0.10570000000E+00 0. -1.
         13    1    3    3    0    0  0.17739205464E+02 -0.41457491779E+02  0.90692359068E+02  0.10128434332E+03  0.10570000000E+00 0.  1.
<mgrwt>
<rscale>  0 0.92913969E+02</rscale>
<asrwt>0</asrwt>
<pdfrwt beam="1">  1        1 0.38887430E-01 0.92913969E+02</pdfrwt>
<pdfrwt beam="2">  1       -1 0.13136089E-02 0.92913969E+02</pdfrwt>
<totfact> 0.11783263E+05</totfact>
</mgrwt>
</event>
<event>
 5    1  0.2734570E+000  0.9156263E+02  0.7818608E-02  0.1299111E+00
          1   -1    0    0  501    0  0.00000000000E+00  0.00000000000E+00  0.14750086212E+03  0.14750086220E+03  0.46700000000E-02 0. -1.
         -1   -1    0    0    0  501 -0.00000000000E+00 -0.00000000000E+00 -0.14209603279E+02  0.14209604047E+02  0.46700000000E-02 0.  1.
         23    2    1    2    0    0  0.00000000000E+00  0.00000000000E+00  0.13329125884E+03  0.16171046624E+03  0.91562629979E+02 0.  0.
        -13    1    3    3    0    0  0.31474113235E+02 -0.10890233696E+02  0.11168679647E+02  0.35127874565E+02  0.10570000000E+00 0.  1.
         13    1    3    3    0    0 -0.31474113235E+02  0.10890233696E+02  0.12212257920E+03  0.12658259168E+03  0.10570000000E+00 0. -1.
<mgrwt>
<rscale>  0 0.91562630E+02</rscale>
<asrwt>0</asrwt>
<pdfrwt beam="1">  1        1 0.22692442E-01 0.91562630E+02</pdfrwt>
<pdfrwt beam="2">  1       -1 0.21860928E-02 0.91562630E+02</pdfrwt>
<totfact> 0.11051948E+05</totfact>
</mgrwt>
</event>
<event>
 5    1  0.2734570E+000  0.8735365E+02  0.7818608E-02  0.1309390E+00
         -1   -1    0    0    0  501 -0.00000000000E+00  0.00000000000E+00  0.96078712031E+02  0.96078712145E+02  0.46700000000E-02 0.  1.
          1   -1    0    0  501    0  0.00000000000E+00 -0.00000000000E+00 -0.19855230863E+02  0.19855231412E+02  0.46700000000E-02 0. -1.
         23    2    1    2    0    0  0.00000000000E+00  0.00000000000E+00  0.76223481169E+02  0.11593394356E+03  0.87353650107E+02 0.  0.
        -13    1    3    3    0    0 -0.21609117591E+02  0.82291741298E+00  0.88475045781E+02  0.91079504032E+02  0.10570000000E+00 0.  1.
         13    1    3    3    0    0  0.21609117591E+02 -0.82291741298E+00 -0.12251564613E+02  0.24854439525E+02  0.10570000000E+00 0. -1.
<mgrwt>
<rscale>  0 0.87353650E+02</rscale>
<asrwt>0</asrwt>
<pdfrwt beam="2">  1        1 0.30546509E-02 0.87353650E+02</pdfrwt>
<pdfrwt beam="1">  1       -1 0.14781341E-01 0.87353650E+02</pdfrwt>
<totfact> 0.91506986E+04</totfact>
</mgrwt>
</event>
<event>
 5    1  0.2734570E+000  0.9260199E+02  0.7818608E-02  0.1296670E+00
         -1   -1    0    0    0  501 -0.00000000000E+00  0.00000000000E+00  0.36568392067E+02  0.36568392365E+02  0.46700000000E-02 0.  1.
          1   -1    0    0  501    0  0.00000000000E+00 -0.00000000000E+00 -0.58623911657E+02  0.58623911843E+02  0.46700000000E-02 0. -1.
         23    2    1    2    0    0  0.00000000000E+00  0.00000000000E+00 -0.22055519591E+02  0.95192304208E+02  0.92601991534E+02 0.  0.
        -13    1    3    3    0    0 -0.35780341234E+02  0.28714373937E+02 -0.46061850040E+01  0.46108309470E+02  0.10570000000E+00 0.  1.
         13    1    3    3    0    0  0.35780341234E+02 -0.28714373937E+02 -0.17449334587E+02  0.49083994738E+02  0.10570000000E+00 0. -1.
<mgrwt>
<rscale>  0 0.92601992E+02</rscale>
<asrwt>0</asrwt>
<pdfrwt beam="2">  1        1 0.90190634E-02 0.92601992E+02</pdfrwt>
<pdfrwt beam="1">  1       -1 0.56259065E-02 0.92601992E+02</pdfrwt>
<totfact> 0.91977885E+04</totfact>
</mgrwt>
</event>
<event>
 5    1  0.2734570E+000  0.9121545E+02  0.7818608E-02  0.1299935E+00
         -1   -1    0    0    0  501 -0.00000000000E+00  0.00000000000E+00  0.10151832036E+03  0.10151832047E+03  0.46700000000E-02 0.  1.
          1   -1    0    0  501    0  0.00000000000E+00 -0.00000000000E+00 -0.20489549493E+02  0.20489550025E+02  0.46700000000E-02 0. -1.
         23    2    1    2    0    0  0.00000000000E+00  0.00000000000E+00  0.81028770868E+02  0.12200787049E+03  0.91215452386E+02 0.  0.
        -13    1    3    3    0    0  0.22878223048E+02  0.53201441729E+01  0.92805623223E+02  0.95731979495E+02  0.10570000000E+00 0.  1.
         13    1    3    3    0    0 -0.22878223048E+02 -0.53201441729E+01 -0.11776852354E+02  0.26275890998E+02  0.10570000000E+00 0. -1.
<mgrwt>
<rscale>  0 0.91215452E+02</rscale>
<asrwt>0</asrwt>
<pdfrwt beam="2">  1        1 0.31522384E-02 0.91215452E+02</pdfrwt>
<pdfrwt beam="1">  1       -1 0.15618203E-01 0.91215452E+02</pdfrwt>
<totfact> 0.81053502E+04</totfact>
</mgrwt>
</event>
<event>
 5    1  0.2734570E+000  0.9022521E+02  0.7818608E-02  0.1302307E+00
         -1   -1    0    0    0  501 -0.00000000000E+00  0.00000000000E+00  0.23549655568E+03  0.23549655572E+03  0.46700000000E-02 0.  1.
          1   -1    0    0  501    0  0.00000000000E+00 -0.00000000000E+00 -0.86419393424E+01  0.86419406042E+01  0.46700000000E-02 0. -1.
         23    2    1    2    0    0  0.00000000000E+00  0.00000000000E+00  0.22685461633E+03  0.24413849633E+03  0.90225209541E+02 0.  0.
        -13    1    3    3    0    0  0.16125082883E+02  0.30517324680E+02  0.19202880874E+03  0.19510612487E+03  0.10570000000E+00 0.  1.
         13    1    3    3    0    0 -0.16125082883E+02 -0.30517324680E+02  0.34825807598E+02  0.49032371460E+02  0.10570000000E+00 0. -1.
<mgrwt>
<rscale>  0 0.90225210E+02</rscale>
<asrwt>0</asrwt>
<pdfrwt beam="2">  1        1 0.13295292E-02 0.90225210E+02</pdfrwt>
<pdfrwt beam="1">  1       -1 0.36230241E-01 0.90225210E+02</pdfrwt>
<totfact> 0.67891281E+04</totfact>
</mgrwt>
</event>
<event>
 5    1  0.2734570E+000  0.9054337E+02  0.7818608E-02  0.1301541E+00
          1   -1    0    0  501    0  0.00000000000E+00  0.00000000000E+00  0.37386927783E+02  0.37386928075E+02  0.46700000000E-02 0. -1.
         -1   -1    0    0    0  501 -0.00000000000E+00 -0.00000000000E+00 -0.54819300916E+02  0.54819301115E+02  0.46700000000E-02 0.  1.
         23    2    1    2    0    0  0.00000000000E+00  0.00000000000E+00 -0.17432373133E+02  0.92206229189E+02  0.90543365678E+02 0.  0.
        -13    1    3    3    0    0  0.50540083108E+01 -0.16046628553E+02 -0.51517549395E+02  0.54195076862E+02  0.10570000000E+00 0.  1.
         13    1    3    3    0    0 -0.50540083108E+01  0.16046628553E+02  0.34085176262E+02  0.38011152327E+02  0.10570000000E+00 0. -1.
<mgrwt>
<rscale>  0 0.90543366E+02</rscale>
<asrwt>0</asrwt>
<pdfrwt beam="1">  1        1 0.57518351E-02 0.90543366E+02</pdfrwt>
<pdfrwt beam="2">  1       -1 0.84337386E-02 0.90543366E+02</pdfrwt>
<totfact> 0.91522209E+04</totfact>
</mgrwt>
</event>
<event>
 5    1  0.2734570E+000  0.8919183E+02  0.7818608E-02  0.1304821E+00
          1   -1    0    0  501    0  0.00000000000E+00  0.00000000000E+00  0.64197303861E+02  0.64197304030E+02  0.46700000000E-02 0. -1.
         -1   -1    0    0    0  501 -0.00000000000E+00 -0.00000000000E+00 -0.30979425979E+02  0.30979426331E+02  0.46700000000E-02 0.  1.
         23    2    1    2    0    0  0.00000000000E+00  0.00000000000E+00  0.33217877881E+02  0.95176730362E+02  0.89191830296E+02 0.  0.
        -13    1    3    3    0    0 -0.31175099134E+02  0.13063318364E+01  0.50608993990E+02  0.59454812708E+02  0.10570000000E+00 0. -1.
         13    1    3    3    0    0  0.31175099134E+02 -0.13063318364E+01 -0.17391116109E+02  0.35721917654E+02  0.10570000000E+00 0.  1.
<mgrwt>
<rscale>  0 0.89191830E+02</rscale>
<asrwt>0</asrwt>
<pdfrwt beam="1">  1        1 0.98765082E-02 0.89191830E+02</pdfrwt>
<pdfrwt beam="2">  1       -1 0.47660656E-02 0.89191830E+02</pdfrwt>
<totfact> 0.10346432E+05</totfact>
</mgrwt>
</event>
<event>
 5    1  0.2734570E+000  0.9130831E+02  0.7818608E-02  0.1299714E+00
          1   -1    0    0  501    0  0.00000000000E+00  0.00000000000E+00  0.83803298126E+01  0.83803311138E+01  0.46700000000E-02 0. -1.
         -1   -1    0    0    0  501 -0.00000000000E+00 -0.00000000000E+00 -0.24871358380E+03  0.24871358384E+03  0.46700000000E-02 0.  1.
         23    2    1    2    0    0  0.00000000000E+00  0.00000000000E+00 -0.24033325399E+03  0.25709391496E+03  0.91308313620E+02 0.  0.
        -13    1    3    3    0    0 -0.33436008524E+02 -0.17581128244E+02 -0.19235039456E+03  0.19602486627E+03  0.10570000000E+00 0.  1.
         13    1    3    3    0    0  0.33436008524E+02  0.17581128244E+02 -0.47982859430E+02  0.61069048690E+02  0.10570000000E+00 0. -1.
<mgrwt>
<rscale>  0 0.91308314E+02</rscale>
<asrwt>0</asrwt>
<pdfrwt beam="1">  1        1 0.12892818E-02 0.91308314E+02</pdfrwt>
<pdfrwt beam="2">  1       -1 0.38263623E-01 0.91308314E+02</pdfrwt>
<totfact> 0.64634238E+04</totfact>
</mgrwt>
</event>
<event>
 5    1  0.2734570E+000  0.9289283E+02  0.7818608E-02  0.1295994E+00
         -1   -1    0    0    0  501 -0.00000000000E+00  0.00000000000E+00  0.69015146393E+01  0.69015162193E+01  0.46700000000E-02 0.  1.
          1   -1    0    0  501    0  0.00000000000E+00 -0.00000000000E+00 -0.31257911737E+03  0.31257911741E+03  0.46700000000E-02 0. -1.
         23    2    1    2    0    0  0.00000000000E+00  0.00000000000E+00 -0.30567760273E+03  0.31948063363E+03  0.92892833145E+02 0.  0.
        -13    1    3    3    0    0  0.16809043365E+02  0.42020349340E+02 -0.18874628944E+03  0.19409643647E+03  0.10570000000E+00 0.  1.
         13    1    3    3    0    0 -0.16809043365E+02 -0.42020349340E+02 -0.11693131329E+03  0.12538419716E+03  0.10570000000E+00 0. -1.
<mgrwt>
<rscale>  0 0.92892833E+02</rscale>
<asrwt>0</asrwt>
<pdfrwt beam="2">  1        1 0.48089084E-01 0.92892833E+02</pdfrwt>
<pdfrwt beam="1">  1       -1 0.10617719E-02 0.92892833E+02</pdfrwt>
<totfact> 0.12285815E+05</totfact>
</mgrwt>
</event>
<event>
 4    1  0.2734570E+000  0.2394803E+02  0.7818608E-02  0.1676588E+00
         -1   -1    0    0    0  501 -0.00000000000E+00  0.00000000000E+00  0.23120278513E+02  0.23120278985E+02  0.46700000000E-02 0. -1.
          1   -1    0    0  501    0  0.00000000000E+00 -0.00000000000E+00 -0.62013538051E+01  0.62013555635E+01  0.46700000000E-02 0.  1.
        -13    1    1    2    0    0  0.33723616788E+01  0.10611336555E+02  0.30676301050E+01  0.11549667256E+02  0.10570000000E+00 0.  1.
         13    1    1    2    0    0 -0.33723616788E+01 -0.10611336555E+02  0.13851294603E+02  0.17771967293E+02  0.10570000000E+00 0. -1.
<mgrwt>
<rscale>  0 0.23948032E+02</rscale>
<asrwt>0</asrwt>
<pdfrwt beam="2">  1        1 0.95405459E-03 0.23948032E+02</pdfrwt>
<pdfrwt beam="1">  1       -1 0.35569661E-02 0.23948032E+02</pdfrwt>
<totfact> 0.24831369E+06</totfact>
</mgrwt>
</event>
<event>
 5    1  0.2734570E+000  0.9167811E+02  0.7818608E-02  0.1298838E+00
         -1   -1    0    0    0  501 -0.00000000000E+00  0.00000000000E+00  0.45076431976E+02  0.45076432218E+02  0.46700000000E-02 0.  1.
          1   -1    0    0  501    0  0.00000000000E+00 -0.00000000000E+00 -0.46614583176E+02  0.46614583410E+02  0.46700000000E-02 0. -1.
         23    2    1    2    0    0  0.00000000000E+00  0.00000000000E+00 -0.15381512004E+01  0.91691015627E+02  0.91678113188E+02 0.  0.
        -13    1    3    3    0    0  0.15832173110E+02  0.39423141599E+02  0.16448635131E+02  0.45556674254E+02  0.10570000000E+00 0.  1.
         13    1    3    3    0    0 -0.15832173110E+02 -0.39423141599E+02 -0.17986786331E+02  0.46134341373E+02  0.10570000000E+00 0. -1.
<mgrwt>
<rscale>  0 0.91678113E+02</rscale>
<asrwt>0</asrwt>
<pdfrwt beam="2">  1        1 0.71714743E-02 0.91678113E+02</pdfrwt>
<pdfrwt beam="1">  1       -1 0.69348358E-02 0.91678113E+02</pdfrwt>
<totfact> 0.91364623E+04</totfact>
</mgrwt>
</event>
<event>
 5    1  0.2734570E+000  0.9088699E+02  0.7818608E-02  0.1300718E+00
          1   -1    0    0  501    0  0.00000000000E+00  0.00000000000E+00  0.18352336789E+02  0.18352337383E+02  0.46700000000E-02 0. -1.
         -1   -1    0    0    0  501 -0.00000000000E+00 -0.00000000000E+00 -0.11252578879E+03  0.11252578889E+03  0.46700000000E-02 0.  1.
         23    2    1    2    0    0  0.00000000000E+00  0.00000000000E+00 -0.94173452006E+02  0.13087812627E+03  0.90886989577E+02 0.  0.
        -13    1    3    3    0    0 -0.31473178128E+01 -0.43207741236E+02 -0.66846129385E+02  0.79656956371E+02  0.10570000000E+00 0.  1.
         13    1    3    3    0    0  0.31473178128E+01  0.43207741236E+02 -0.27327322621E+02  0.51221169903E+02  0.10570000000E+00 0. -1.
<mgrwt>
<rscale>  0 0.90886990E+02</rscale>
<asrwt>0</asrwt>
<pdfrwt beam="1">  1        1 0.28234366E-02 0.90886990E+02</pdfrwt>
<pdfrwt beam="2">  1       -1 0.17311659E-01 0.90886990E+02</pdfrwt>
<totfact> 0.80208663E+04</totfact>
</mgrwt>
</event>
<event>
 5    1  0.2734570E+000  0.9207384E+02  0.7818608E-02  0.1297906E+00
          1   -1    0    0  501    0  0.00000000000E+00  0.00000000000E+00  0.24799519399E+02  0.24799519838E+02  0.46700000000E-02 0. -1.
         -1   -1    0    0    0  501 -0.00000000000E+00 -0.00000000000E+00 -0.85461248627E+02  0.85461248755E+02  0.46700000000E-02 0.  1.
         23    2    1    2    0    0  0.00000000000E+00  0.00000000000E+00 -0.60661729228E+02  0.11026076859E+03  0.92073838292E+02 0.  0.
        -13    1    3    3    0    0  0.19911145397E+02  0.10565658635E+02 -0.78400735690E+02  0.81576794388E+02  0.10570000000E+00 0.  1.
         13    1    3    3    0    0 -0.19911145397E+02 -0.10565658635E+02  0.17739006462E+02  0.28683974205E+02  0.10570000000E+00 0. -1.
<mgrwt>
<rscale>  0 0.92073838E+02</rscale>
<asrwt>0</asrwt>
<pdfrwt beam="1">  1        1 0.38153108E-02 0.92073838E+02</pdfrwt>
<pdfrwt beam="2">  1       -1 0.13147884E-01 0.92073838E+02</pdfrwt>
<totfact> 0.81620932E+04</totfact>
</mgrwt>
</event>
<event>
 5    1  0.2734570E+000  0.9013874E+02  0.7818608E-02  0.1302516E+00
         -1   -1    0    0    0  501 -0.00000000000E+00  0.00000000000E+00  0.19346255083E+02  0.19346255647E+02  0.46700000000E-02 0.  1.
          1   -1    0    0  501    0  0.00000000000E+00 -0.00000000000E+00 -0.10499437373E+03  0.10499437383E+03  0.46700000000E-02 0. -1.
         23    2    1    2    0    0  0.00000000000E+00  0.00000000000E+00 -0.85648118645E+02  0.12434062948E+03  0.90138737021E+02 0.  0.
        -13    1    3    3    0    0 -0.28584852470E+02 -0.30408703224E+02 -0.19355241815E+02  0.46004560434E+02  0.10570000000E+00 0. -1.
         13    1    3    3    0    0  0.28584852470E+02  0.30408703224E+02 -0.66292876831E+02  0.78336069045E+02  0.10570000000E+00 0.  1.
<mgrwt>
<rscale>  0 0.90138737E+02</rscale>
<asrwt>0</asrwt>
<pdfrwt beam="2">  1        1 0.16152980E-01 0.90138737E+02</pdfrwt>
<pdfrwt beam="1">  1       -1 0.29763470E-02 0.90138737E+02</pdfrwt>
<totfact> 0.10863621E+05</totfact>
</mgrwt>
</event>
<event>
 5    1  0.2734570E+000  0.9083171E+02  0.7818608E-02  0.1300850E+00
         -1   -1    0    0    0  501 -0.00000000000E+00  0.00000000000E+00  0.30458949284E+03  0.30458949288E+03  0.46700000000E-02 0.  1.
          1   -1    0    0  501    0  0.00000000000E+00 -0.00000000000E+00 -0.67717361922E+01  0.67717378025E+01  0.46700000000E-02 0. -1.
         23    2    1    2    0    0  0.00000000000E+00  0.00000000000E+00  0.29781775665E+03  0.31136123068E+03  0.90831711394E+02 0.  0.
        -13    1    3    3    0    0 -0.15824619412E+02  0.41877735425E+02  0.12270725770E+03  0.13061870298E+03  0.10570000000E+00 0.  1.
         13    1    3    3    0    0  0.15824619412E+02 -0.41877735425E+02  0.17511049895E+03  0.18074252770E+03  0.10570000000E+00 0. -1.
<mgrwt>
<rscale>  0 0.90831711E+02</rscale>
<asrwt>0</asrwt>
<pdfrwt beam="2">  1        1 0.10418059E-02 0.90831711E+02</pdfrwt>
<pdfrwt beam="1">  1       -1 0.46859912E-01 0.90831711E+02</pdfrwt>
<totfact> 0.60823237E+04</totfact>
</mgrwt>
</event>
<event>
 5    1  0.2734570E+000  0.9286327E+02  0.7818608E-02  0.1296062E+00
         -1   -1    0    0    0  501 -0.00000000000E+00  0.00000000000E+00  0.77933246271E+02  0.77933246411E+02  0.46700000000E-02 0.  1.
          1   -1    0    0  501    0  0.00000000000E+00 -0.00000000000E+00 -0.27663375080E+02  0.27663375474E+02  0.46700000000E-02 0. -1.
         23    2    1    2    0    0  0.00000000000E+00  0.00000000000E+00  0.50269871191E+02  0.10559662189E+03  0.92863268325E+02 0.  0.
        -13    1    3    3    0    0 -0.13406042087E+02  0.11883913147E+02 -0.23574885619E+02  0.29609724088E+02  0.10570000000E+00 0. -1.
         13    1    3    3    0    0  0.13406042087E+02 -0.11883913147E+02  0.73844756810E+02  0.75986897797E+02  0.10570000000E+00 0.  1.
<mgrwt>
<rscale>  0 0.92863268E+02</rscale>
<asrwt>0</asrwt>
<pdfrwt beam="2">  1        1 0.42559040E-02 0.92863268E+02</pdfrwt>
<pdfrwt beam="1">  1       -1 0.11989730E-01 0.92863268E+02</pdfrwt>
<totfact> 0.81125969E+04</totfact>
</mgrwt>
</event>
<event>
 5    1  0.2734570E+000  0.9384118E+02  0.7818608E-02  0.1293808E+00
         -1   -1    0    0    0  501 -0.00000000000E+00  0.00000000000E+00  0.68246939897E+02  0.68246940057E+02  0.46700000000E-02 0.  1.
          1   -1    0    0  501    0  0.00000000000E+00 -0.00000000000E+00 -0.32258468868E+02  0.32258469206E+02  0.46700000000E-02 0. -1.
         23    2    1    2    0    0  0.00000000000E+00  0.00000000000E+00  0.35988471030E+02  0.10050540926E+03  0.93841180960E+02 0.  0.
        -13    1    3    3    0    0 -0.24910312777E+02  0.15599126276E+01 -0.24558589098E+02  0.35015603394E+02  0.10570000000E+00 0. -1.
         13    1    3    3    0    0  0.24910312777E+02 -0.15599126276E+01  0.60547060128E+02  0.65489805869E+02  0.10570000000E+00 0.  1.
<mgrwt>
<rscale>  0 0.93841181E+02</rscale>
<asrwt>0</asrwt>
<pdfrwt beam="2">  1        1 0.49628415E-02 0.93841181E+02</pdfrwt>
<pdfrwt beam="1">  1       -1 0.10499529E-01 0.93841181E+02</pdfrwt>
<totfact> 0.80740226E+04</totfact>
</mgrwt>
</event>
<event>
 5    1  0.2734570E+000  0.9303171E+02  0.7818608E-02  0.1295672E+00
         -1   -1    0    0    0  501 -0.00000000000E+00  0.00000000000E+00  0.23360131359E+02  0.23360131826E+02  0.46700000000E-02 0.  1.
          1   -1    0    0  501    0  0.00000000000E+00 -0.00000000000E+00 -0.92624679868E+02  0.92624679986E+02  0.46700000000E-02 0. -1.
         23    2    1    2    0    0  0.00000000000E+00  0.00000000000E+00 -0.69264548509E+02  0.11598481181E+03  0.93031709060E+02 0.  0.
        -13    1    3    3    0    0  0.43761764029E+02 -0.10741543554E+02 -0.20241348225E+02  0.49398341058E+02  0.10570000000E+00 0. -1.
         13    1    3    3    0    0 -0.43761764029E+02  0.10741543554E+02 -0.49023200284E+02  0.66586470753E+02  0.10570000000E+00 0.  1.
<mgrwt>
<rscale>  0 0.93031709E+02</rscale>
<asrwt>0</asrwt>
<pdfrwt beam="2">  1        1 0.14249951E-01 0.93031709E+02</pdfrwt>
<pdfrwt beam="1">  1       -1 0.35938665E-02 0.93031709E+02</pdfrwt>
<totfact> 0.97607559E+04</totfact>
</mgrwt>
</event>
