<event>
 4    1  0.1433582E+000  0.7821931E+02  0.7818608E-02  0.1334182E+00
          2   -1    0    0  501    0  0.00000000000E+00  0.00000000000E+00  0.29754995671E+02  0.29754995785E+02  0.26000000000E-02 0.  1.
         -2   -1    0    0    0  501 -0.00000000000E+00 -0.00000000000E+00 -0.51405318220E+02  0.51405318286E+02  0.26000000000E-02 0. -1.
        -11    1    1    2    0    0 -0.16785490038E+01  0.35571453439E+02  0.59512279124E+01  0.36104888041E+02  0.51100000000E-03 0.  1.
         11    1    1    2    0    0  0.16785490038E+01 -0.35571453439E+02 -0.27601550462E+02  0.45055426029E+02  0.51100000000E-03 0. -1.
<mgrwt>
<rscale>  0 0.78219308E+02</rscale>
<asrwt>0</asrwt>
<pdfrwt beam="1">  1        2 0.45776917E-02 0.78219308E+02</pdfrwt>
<pdfrwt beam="2">  1       -2 0.79085105E-02 0.78219308E+02</pdfrwt>
<totfact> 0.13797798E+05</totfact>
</mgrwt>
</event>
<event>
 4    1  0.1433582E+000  0.2530030E+02  0.7818608E-02  0.1656726E+00
          2   -1    0    0  501    0  0.00000000000E+00  0.00000000000E+00  0.33208292034E+02  0.33208292136E+02  0.26000000000E-02 0.  1.
         -2   -1    0    0    0  501 -0.00000000000E+00 -0.00000000000E+00 -0.48188635749E+01  0.48188642763E+01  0.26000000000E-02 0. -1.
        -11    1    1    2    0    0 -0.10078161600E+02  0.66628727364E+01  0.19831190640E+02  0.23221527443E+02  0.51100000000E-03 0.  1.
         11    1    1    2    0    0  0.10078161600E+02 -0.66628727364E+01  0.85582378195E+01  0.14805628969E+02  0.51100000000E-03 0. -1.
<mgrwt>
<rscale>  0 0.25300296E+02</rscale>
<asrwt>0</asrwt>
<pdfrwt beam="1">  1        2 0.51089679E-02 0.25300296E+02</pdfrwt>
<pdfrwt beam="2">  1       -2 0.74136371E-03 0.25300296E+02</pdfrwt>
<totfact> 0.25627642E+06</totfact>
</mgrwt>
</event>
<event>
 4    1  0.1433582E+000  0.5161020E+02  0.7818608E-02  0.1436845E+00
         -2   -1    0    0    0  501 -0.00000000000E+00  0.00000000000E+00  0.36513308638E+01  0.36513317895E+01  0.26000000000E-02 0. -1.
          2   -1    0    0  501    0  0.00000000000E+00 -0.00000000000E+00 -0.18237273783E+03  0.18237273785E+03  0.26000000000E-02 0.  1.
        -11    1    1    2    0    0  0.49199224597E+01 -0.25310464394E+02 -0.93103126125E+02  0.96607542869E+02  0.51100000000E-03 0.  1.
         11    1    1    2    0    0 -0.49199224597E+01  0.25310464394E+02 -0.85618280844E+02  0.89416526771E+02  0.51100000000E-03 0. -1.
<mgrwt>
<rscale>  0 0.51610204E+02</rscale>
<asrwt>0</asrwt>
<pdfrwt beam="2">  1        2 0.28057337E-01 0.51610204E+02</pdfrwt>
<pdfrwt beam="1">  1       -2 0.56174343E-03 0.51610204E+02</pdfrwt>
<totfact> 0.65956654E+05</totfact>
</mgrwt>
</event>
<event>
 4    1  0.1433582E+000  0.2493982E+02  0.7818608E-02  0.1661868E+00
          2   -1    0    0  501    0  0.00000000000E+00  0.00000000000E+00  0.30500957762E+02  0.30500957873E+02  0.26000000000E-02 0. -1.
         -2   -1    0    0    0  501 -0.00000000000E+00 -0.00000000000E+00 -0.50981543327E+01  0.50981549957E+01  0.26000000000E-02 0.  1.
        -11    1    1    2    0    0 -0.60909203058E+01  0.10838956625E+02  0.11335033468E+02  0.16824543823E+02  0.51100000000E-03 0.  1.
         11    1    1    2    0    0  0.60909203058E+01 -0.10838956625E+02  0.14067769961E+02  0.18774569045E+02  0.51100000000E-03 0. -1.
<mgrwt>
<rscale>  0 0.24939816E+02</rscale>
<asrwt>0</asrwt>
<pdfrwt beam="1">  1        2 0.46924552E-02 0.24939816E+02</pdfrwt>
<pdfrwt beam="2">  1       -2 0.78433148E-03 0.24939816E+02</pdfrwt>
<totfact> 0.26229012E+06</totfact>
</mgrwt>
</event>
<event>
 4    1  0.1433582E+000  0.4355412E+02  0.7818608E-02  0.1483575E+00
         -2   -1    0    0    0  501 -0.00000000000E+00  0.00000000000E+00  0.11585589591E+03  0.11585589594E+03  0.26000000000E-02 0. -1.
          2   -1    0    0  501    0  0.00000000000E+00 -0.00000000000E+00 -0.40933627954E+01  0.40933636211E+01  0.26000000000E-02 0.  1.
        -11    1    1    2    0    0  0.21319185140E+02  0.44145958055E+01  0.54521005924E+02  0.58707209084E+02  0.51100000000E-03 0.  1.
         11    1    1    2    0    0 -0.21319185140E+02 -0.44145958055E+01  0.57241527187E+02  0.61242050473E+02  0.51100000000E-03 0. -1.
<mgrwt>
<rscale>  0 0.43554116E+02</rscale>
<asrwt>0</asrwt>
<pdfrwt beam="2">  1        2 0.62974820E-03 0.43554116E+02</pdfrwt>
<pdfrwt beam="1">  1       -2 0.17823984E-01 0.43554116E+02</pdfrwt>
<totfact> 0.47483072E+05</totfact>
</mgrwt>
</event>
<event>
 4    1  0.1433582E+000  0.3578516E+02  0.7818608E-02  0.1541737E+00
         -2   -1    0    0    0  501 -0.00000000000E+00  0.00000000000E+00  0.63939051347E+01  0.63939056633E+01  0.26000000000E-02 0. -1.
          2   -1    0    0  501    0  0.00000000000E+00 -0.00000000000E+00 -0.50070245096E+02  0.50070245164E+02  0.26000000000E-02 0.  1.
        -11    1    1    2    0    0  0.12021198621E+02 -0.68931367381E+01 -0.39783089759E+01  0.14417055627E+02  0.51100000000E-03 0. -1.
         11    1    1    2    0    0 -0.12021198621E+02  0.68931367381E+01 -0.39698030985E+02  0.42047095200E+02  0.51100000000E-03 0.  1.
<mgrwt>
<rscale>  0 0.35785160E+02</rscale>
<asrwt>0</asrwt>
<pdfrwt beam="2">  1        2 0.77031144E-02 0.35785160E+02</pdfrwt>
<pdfrwt beam="1">  1       -2 0.98367779E-03 0.35785160E+02</pdfrwt>
<totfact> 0.11880357E+06</totfact>
</mgrwt>
</event>
<event>
 4    1  0.1433582E+000  0.2304764E+02  0.7818608E-02  0.1690739E+00
          2   -1    0    0  501    0  0.00000000000E+00  0.00000000000E+00  0.65511459078E+01  0.65511464237E+01  0.26000000000E-02 0.  1.
         -2   -1    0    0    0  501 -0.00000000000E+00 -0.00000000000E+00 -0.20271018453E+02  0.20271018620E+02  0.26000000000E-02 0. -1.
        -11    1    1    2    0    0  0.47976890930E+01 -0.98022202819E+01 -0.11166998673E+02  0.15614198753E+02  0.51100000000E-03 0. -1.
         11    1    1    2    0    0 -0.47976890930E+01  0.98022202819E+01 -0.25528738721E+01  0.11207966290E+02  0.51100000000E-03 0.  1.
<mgrwt>
<rscale>  0 0.23047638E+02</rscale>
<asrwt>0</asrwt>
<pdfrwt beam="1">  1        2 0.10078687E-02 0.23047638E+02</pdfrwt>
<pdfrwt beam="2">  1       -2 0.31186183E-02 0.23047638E+02</pdfrwt>
<totfact> 0.27397973E+06</totfact>
</mgrwt>
</event>
<event>
 4    1  0.1433582E+000  0.2262876E+02  0.7818608E-02  0.1697599E+00
         -2   -1    0    0    0  501 -0.00000000000E+00  0.00000000000E+00  0.54654923633E+01  0.54654929817E+01  0.26000000000E-02 0.  1.
          2   -1    0    0  501    0  0.00000000000E+00 -0.00000000000E+00 -0.23422441131E+02  0.23422441275E+02  0.26000000000E-02 0. -1.
        -11    1    1    2    0    0  0.77249926351E+01 -0.82639000701E+01 -0.86998697594E+01  0.14270784480E+02  0.51100000000E-03 0.  1.
         11    1    1    2    0    0 -0.77249926351E+01  0.82639000701E+01 -0.92570790085E+01  0.14617149777E+02  0.51100000000E-03 0. -1.
<mgrwt>
<rscale>  0 0.22628759E+02</rscale>
<asrwt>0</asrwt>
<pdfrwt beam="2">  1        2 0.36034525E-02 0.22628759E+02</pdfrwt>
<pdfrwt beam="1">  1       -2 0.84084505E-03 0.22628759E+02</pdfrwt>
<totfact> 0.31922869E+06</totfact>
</mgrwt>
</event>
<event>
 4    1  0.1433582E+000  0.3092379E+02  0.7818608E-02  0.1588096E+00
         -2   -1    0    0    0  501 -0.00000000000E+00  0.00000000000E+00  0.10338150558E+03  0.10338150561E+03  0.26000000000E-02 0. -1.
          2   -1    0    0  501    0  0.00000000000E+00 -0.00000000000E+00 -0.23125044537E+01  0.23125059154E+01  0.26000000000E-02 0.  1.
        -11    1    1    2    0    0  0.26634928625E+01 -0.15230321535E+02  0.50139109980E+02  0.52468916876E+02  0.51100000000E-03 0. -1.
         11    1    1    2    0    0 -0.26634928625E+01  0.15230321535E+02  0.50929891142E+02  0.53225094647E+02  0.51100000000E-03 0.  1.
<mgrwt>
<rscale>  0 0.30923795E+02</rscale>
<asrwt>0</asrwt>
<pdfrwt beam="2">  1        2 0.35576998E-03 0.30923795E+02</pdfrwt>
<pdfrwt beam="1">  1       -2 0.15904849E-01 0.30923795E+02</pdfrwt>
<totfact> 0.11026488E+06</totfact>
</mgrwt>
</event>
<event>
 4    1  0.1433582E+000  0.3041635E+02  0.7818608E-02  0.1593532E+00
          2   -1    0    0  501    0  0.00000000000E+00  0.00000000000E+00  0.41162801838E+01  0.41162810049E+01  0.26000000000E-02 0.  1.
         -2   -1    0    0    0  501 -0.00000000000E+00 -0.00000000000E+00 -0.56188734573E+02  0.56188734633E+02  0.26000000000E-02 0. -1.
        -11    1    1    2    0    0  0.61954154792E+01  0.12745466122E+02 -0.15094125871E+02  0.20704171456E+02  0.51100000000E-03 0.  1.
         11    1    1    2    0    0 -0.61954154792E+01 -0.12745466122E+02 -0.36978328519E+02  0.39600844182E+02  0.51100000000E-03 0. -1.
<mgrwt>
<rscale>  0 0.30416351E+02</rscale>
<asrwt>0</asrwt>
<pdfrwt beam="1">  1        2 0.63327398E-03 0.30416351E+02</pdfrwt>
<pdfrwt beam="2">  1       -2 0.86444202E-02 0.30416351E+02</pdfrwt>
<totfact> 0.12949480E+06</totfact>
</mgrwt>
</event>
<event>
 4    1  0.1433582E+000  0.2718579E+02  0.7818608E-02  0.1631456E+00
         -2   -1    0    0    0  501 -0.00000000000E+00  0.00000000000E+00  0.40200199892E+02  0.40200199976E+02  0.26000000000E-02 0.  1.
          2   -1    0    0  501    0  0.00000000000E+00 -0.00000000000E+00 -0.45961654082E+01  0.45961661436E+01  0.26000000000E-02 0. -1.
        -11    1    1    2    0    0  0.30981363435E+01 -0.12748188855E+02  0.11940895483E+02  0.17739778835E+02  0.51100000000E-03 0. -1.
         11    1    1    2    0    0 -0.30981363435E+01  0.12748188855E+02  0.23663139000E+02  0.27056587285E+02  0.51100000000E-03 0.  1.
<mgrwt>
<rscale>  0 0.27185789E+02</rscale>
<asrwt>0</asrwt>
<pdfrwt beam="2">  1        2 0.70710241E-03 0.27185789E+02</pdfrwt>
<pdfrwt beam="1">  1       -2 0.61846464E-02 0.27185789E+02</pdfrwt>
<totfact> 0.17583817E+06</totfact>
</mgrwt>
</event>
<event>
 4    1  0.1433582E+000  0.2439198E+02  0.7818608E-02  0.1669892E+00
         -2   -1    0    0    0  501 -0.00000000000E+00  0.00000000000E+00  0.67482952216E+02  0.67482952266E+02  0.26000000000E-02 0.  1.
          2   -1    0    0  501    0  0.00000000000E+00 -0.00000000000E+00 -0.22041427386E+01  0.22041442721E+01  0.26000000000E-02 0. -1.
        -11    1    1    2    0    0  0.12019994549E+02 -0.20629447486E+01  0.32416194720E+02  0.34634458136E+02  0.51100000000E-03 0. -1.
         11    1    1    2    0    0 -0.12019994549E+02  0.20629447486E+01  0.32862614758E+02  0.35052638403E+02  0.51100000000E-03 0.  1.
<mgrwt>
<rscale>  0 0.24391975E+02</rscale>
<asrwt>0</asrwt>
<pdfrwt beam="2">  1        2 0.33909901E-03 0.24391975E+02</pdfrwt>
<pdfrwt beam="1">  1       -2 0.10381993E-01 0.24391975E+02</pdfrwt>
<totfact> 0.20787875E+06</totfact>
</mgrwt>
</event>
<event>
 4    1  0.1433582E+000  0.2107544E+02  0.7818608E-02  0.1724750E+00
         -2   -1    0    0    0  501 -0.00000000000E+00  0.00000000000E+00  0.81164279329E+01  0.81164283493E+01  0.26000000000E-02 0.  1.
          2   -1    0    0  501    0  0.00000000000E+00 -0.00000000000E+00 -0.13681329266E+02  0.13681329513E+02  0.26000000000E-02 0. -1.
        -11    1    1    2    0    0 -0.59656539751E+00  0.10041067253E+02  0.46599133414E+00  0.10069561561E+02  0.51100000000E-03 0. -1.
         11    1    1    2    0    0  0.59656539751E+00 -0.10041067253E+02 -0.60308926675E+01  0.11728196301E+02  0.51100000000E-03 0.  1.
<mgrwt>
<rscale>  0 0.21075439E+02</rscale>
<asrwt>0</asrwt>
<pdfrwt beam="2">  1        2 0.21048199E-02 0.21075439E+02</pdfrwt>
<pdfrwt beam="1">  1       -2 0.12486813E-02 0.21075439E+02</pdfrwt>
<totfact> 0.35844653E+06</totfact>
</mgrwt>
</event>
<event>
 4    1  0.1433582E+000  0.5519404E+02  0.7818608E-02  0.1419183E+00
         -2   -1    0    0    0  501 -0.00000000000E+00  0.00000000000E+00  0.29729923876E+02  0.29729923989E+02  0.26000000000E-02 0.  1.
          2   -1    0    0  501    0  0.00000000000E+00 -0.00000000000E+00 -0.25617136092E+02  0.25617136224E+02  0.26000000000E-02 0. -1.
        -11    1    1    2    0    0 -0.25586817134E+02 -0.93316061078E+01 -0.24092015685E+01  0.27341695925E+02  0.51100000000E-03 0. -1.
         11    1    1    2    0    0  0.25586817134E+02  0.93316061078E+01  0.65219893518E+01  0.28005364289E+02  0.51100000000E-03 0.  1.
<mgrwt>
<rscale>  0 0.55194040E+02</rscale>
<asrwt>0</asrwt>
<pdfrwt beam="2">  1        2 0.39410979E-02 0.55194040E+02</pdfrwt>
<pdfrwt beam="1">  1       -2 0.45738344E-02 0.55194040E+02</pdfrwt>
<totfact> 0.35193109E+05</totfact>
</mgrwt>
</event>
<event>
 4    1  0.1433582E+000  0.2157167E+02  0.7818608E-02  0.1715767E+00
          2   -1    0    0  501    0  0.00000000000E+00  0.00000000000E+00  0.21181061208E+01  0.21181077166E+01  0.26000000000E-02 0. -1.
         -2   -1    0    0    0  501 -0.00000000000E+00 -0.00000000000E+00 -0.54923703011E+02  0.54923703073E+02  0.26000000000E-02 0.  1.
        -11    1    1    2    0    0 -0.49658293268E+01 -0.87278772072E+01 -0.36813044037E+02  0.38158033400E+02  0.51100000000E-03 0. -1.
         11    1    1    2    0    0  0.49658293268E+01  0.87278772072E+01 -0.15992552853E+02  0.18883777389E+02  0.51100000000E-03 0.  1.
<mgrwt>
<rscale>  0 0.21571674E+02</rscale>
<asrwt>0</asrwt>
<pdfrwt beam="1">  1        2 0.32586265E-03 0.21571674E+02</pdfrwt>
<pdfrwt beam="2">  1       -2 0.84497995E-02 0.21571674E+02</pdfrwt>
<totfact> 0.28303003E+06</totfact>
</mgrwt>
</event>
<event>
 4    1  0.1433582E+000  0.3652907E+02  0.7818608E-02  0.1535427E+00
         -2   -1    0    0    0  501 -0.00000000000E+00  0.00000000000E+00  0.21180436326E+01  0.21180452284E+01  0.26000000000E-02 0. -1.
          2   -1    0    0  501    0  0.00000000000E+00 -0.00000000000E+00 -0.15750060663E+03  0.15750060666E+03  0.26000000000E-02 0.  1.
        -11    1    1    2    0    0 -0.60506475181E+01 -0.17142108058E+02 -0.85423287749E+02  0.87336133954E+02  0.51100000000E-03 0. -1.
         11    1    1    2    0    0  0.60506475181E+01  0.17142108058E+02 -0.69959275252E+02  0.72282517929E+02  0.51100000000E-03 0.  1.
<mgrwt>
<rscale>  0 0.36529073E+02</rscale>
<asrwt>0</asrwt>
<pdfrwt beam="2">  1        2 0.24230853E-01 0.36529073E+02</pdfrwt>
<pdfrwt beam="1">  1       -2 0.32585311E-03 0.36529073E+02</pdfrwt>
<totfact> 0.14768591E+06</totfact>
</mgrwt>
</event>
<event>
 4    1  0.1433582E+000  0.5669583E+02  0.7818608E-02  0.1412245E+00
         -2   -1    0    0    0  501 -0.00000000000E+00  0.00000000000E+00  0.26615406511E+03  0.26615406512E+03  0.26000000000E-02 0.  1.
          2   -1    0    0  501    0  0.00000000000E+00 -0.00000000000E+00 -0.30193193657E+01  0.30193204851E+01  0.26000000000E-02 0. -1.
        -11    1    1    2    0    0  0.90533272234E+01  0.26678374150E+02  0.11662471541E+03  0.11997925915E+03  0.51100000000E-03 0. -1.
         11    1    1    2    0    0 -0.90533272234E+01 -0.26678374150E+02  0.14651003033E+03  0.14919412646E+03  0.51100000000E-03 0.  1.
<mgrwt>
<rscale>  0 0.56695830E+02</rscale>
<asrwt>0</asrwt>
<pdfrwt beam="2">  1        2 0.46451076E-03 0.56695830E+02</pdfrwt>
<pdfrwt beam="1">  1       -2 0.40946780E-01 0.56695830E+02</pdfrwt>
<totfact> 0.18128234E+05</totfact>
</mgrwt>
</event>
<event>
 4    1  0.1433582E+000  0.4169097E+02  0.7818608E-02  0.1496124E+00
         -2   -1    0    0    0  501 -0.00000000000E+00  0.00000000000E+00  0.36824156936E+01  0.36824166115E+01  0.26000000000E-02 0.  1.
          2   -1    0    0  501    0  0.00000000000E+00 -0.00000000000E+00 -0.11800247124E+03  0.11800247126E+03  0.26000000000E-02 0. -1.
        -11    1    1    2    0    0 -0.19157372437E+02  0.51731733804E+01 -0.75796000457E+02  0.78350496661E+02  0.51100000000E-03 0. -1.
         11    1    1    2    0    0  0.19157372437E+02 -0.51731733804E+01 -0.38524055085E+02  0.43334391214E+02  0.51100000000E-03 0.  1.
<mgrwt>
<rscale>  0 0.41690968E+02</rscale>
<asrwt>0</asrwt>
<pdfrwt beam="2">  1        2 0.18154224E-01 0.41690968E+02</pdfrwt>
<pdfrwt beam="1">  1       -2 0.56652565E-03 0.41690968E+02</pdfrwt>
<totfact> 0.98527269E+05</totfact>
</mgrwt>
</event>
<event>
 4    1  0.1433582E+000  0.4386479E+02  0.7818608E-02  0.1481556E+00
          2   -1    0    0  501    0  0.00000000000E+00  0.00000000000E+00  0.17660189790E+02  0.17660189982E+02  0.26000000000E-02 0.  1.
         -2   -1    0    0    0  501 -0.00000000000E+00 -0.00000000000E+00 -0.27238098662E+02  0.27238098787E+02  0.26000000000E-02 0. -1.
        -11    1    1    2    0    0 -0.16646039433E+02  0.13110513611E+02 -0.10583955134E+02  0.23685360510E+02  0.51100000000E-03 0.  1.
         11    1    1    2    0    0  0.16646039433E+02 -0.13110513611E+02  0.10060462619E+01  0.21212928258E+02  0.51100000000E-03 0. -1.
<mgrwt>
<rscale>  0 0.43864792E+02</rscale>
<asrwt>0</asrwt>
<pdfrwt beam="1">  1        2 0.27169523E-02 0.43864792E+02</pdfrwt>
<pdfrwt beam="2">  1       -2 0.41904767E-02 0.43864792E+02</pdfrwt>
<totfact> 0.61082766E+05</totfact>
</mgrwt>
</event>
<event>
 4    1  0.1433582E+000  0.4482406E+02  0.7818608E-02  0.1475443E+00
         -2   -1    0    0    0  501 -0.00000000000E+00  0.00000000000E+00  0.67931405884E+01  0.67931410860E+01  0.26000000000E-02 0. -1.
          2   -1    0    0  501    0  0.00000000000E+00 -0.00000000000E+00 -0.73942103635E+02  0.73942103681E+02  0.26000000000E-02 0.  1.
        -11    1    1    2    0    0  0.19652287308E+02  0.60780921169E+01 -0.49598065422E+02  0.53694726874E+02  0.51100000000E-03 0. -1.
         11    1    1    2    0    0 -0.19652287308E+02 -0.60780921169E+01 -0.17550897625E+02  0.27040517893E+02  0.51100000000E-03 0.  1.
<mgrwt>
<rscale>  0 0.44824062E+02</rscale>
<asrwt>0</asrwt>
<pdfrwt beam="2">  1        2 0.11375708E-01 0.44824062E+02</pdfrwt>
<pdfrwt beam="1">  1       -2 0.10450986E-02 0.44824062E+02</pdfrwt>
<totfact> 0.73347351E+05</totfact>
</mgrwt>
</event>
<event>
 4    1  0.1433582E+000  0.1051141E+03  0.7818608E-02  0.1269895E+00
          2   -1    0    0  501    0  0.00000000000E+00  0.00000000000E+00  0.23660827375E+03  0.23660827376E+03  0.26000000000E-02 0. -1.
         -2   -1    0    0    0  501 -0.00000000000E+00 -0.00000000000E+00 -0.11674327542E+02  0.11674327831E+02  0.26000000000E-02 0.  1.
        -11    1    1    2    0    0  0.51339097188E+02 -0.50174207371E+01  0.13624794740E+03  0.14568589699E+03  0.51100000000E-03 0. -1.
         11    1    1    2    0    0 -0.51339097188E+02  0.50174207371E+01  0.88685998804E+02  0.10259670460E+03  0.51100000000E-03 0.  1.
<mgrwt>
<rscale>  0 0.10511408E+03</rscale>
<asrwt>0</asrwt>
<pdfrwt beam="1">  1        2 0.36401275E-01 0.10511408E+03</pdfrwt>
<pdfrwt beam="2">  1       -2 0.17960503E-02 0.10511408E+03</pdfrwt>
<totfact> 0.11194663E+05</totfact>
</mgrwt>
</event>
<event>
 4    1  0.1433582E+000  0.2324219E+02  0.7818608E-02  0.1687614E+00
         -2   -1    0    0    0  501 -0.00000000000E+00  0.00000000000E+00  0.54882273453E+02  0.54882273515E+02  0.26000000000E-02 0.  1.
          2   -1    0    0  501    0  0.00000000000E+00 -0.00000000000E+00 -0.24607190167E+01  0.24607203903E+01  0.26000000000E-02 0. -1.
        -11    1    1    2    0    0 -0.86521643682E+01 -0.77491602583E+01  0.27135438127E+02  0.29516799209E+02  0.51100000000E-03 0. -1.
         11    1    1    2    0    0  0.86521643682E+01  0.77491602583E+01  0.25286116309E+02  0.27826194696E+02  0.51100000000E-03 0.  1.
<mgrwt>
<rscale>  0 0.23242194E+02</rscale>
<asrwt>0</asrwt>
<pdfrwt beam="2">  1        2 0.37857225E-03 0.23242194E+02</pdfrwt>
<pdfrwt beam="1">  1       -2 0.84434272E-02 0.23242194E+02</pdfrwt>
<totfact> 0.23978931E+06</totfact>
</mgrwt>
</event>
<event>
 4    1  0.1433582E+000  0.2232005E+02  0.7818608E-02  0.1702775E+00
         -2   -1    0    0    0  501 -0.00000000000E+00  0.00000000000E+00  0.47541558458E+02  0.47541558529E+02  0.26000000000E-02 0.  1.
          2   -1    0    0  501    0  0.00000000000E+00 -0.00000000000E+00 -0.26197326532E+01  0.26197339434E+01  0.26000000000E-02 0. -1.
        -11    1    1    2    0    0  0.10737095566E+02 -0.91850116439E+00  0.15940712566E+02  0.19241496380E+02  0.51100000000E-03 0.  1.
         11    1    1    2    0    0 -0.10737095566E+02  0.91850116439E+00  0.28981113239E+02  0.30919796092E+02  0.51100000000E-03 0. -1.
<mgrwt>
<rscale>  0 0.22320054E+02</rscale>
<asrwt>0</asrwt>
<pdfrwt beam="2">  1        2 0.40303591E-03 0.22320054E+02</pdfrwt>
<pdfrwt beam="1">  1       -2 0.73140859E-02 0.22320054E+02</pdfrwt>
<totfact> 0.26802046E+06</totfact>
</mgrwt>
</event>
<event>
 4    1  0.1433582E+000  0.3035537E+02  0.7818608E-02  0.1594193E+00
         -2   -1    0    0    0  501 -0.00000000000E+00  0.00000000000E+00  0.66321591027E+02  0.66321591078E+02  0.26000000000E-02 0. -1.
          2   -1    0    0  501    0  0.00000000000E+00 -0.00000000000E+00 -0.34734091527E+01  0.34734101258E+01  0.26000000000E-02 0.  1.
        -11    1    1    2    0    0 -0.11085232238E+02 -0.25621265857E+00  0.75943472427E+01  0.13439573245E+02  0.51100000000E-03 0.  1.
         11    1    1    2    0    0  0.11085232238E+02  0.25621265857E+00  0.55253834631E+02  0.56355427959E+02  0.51100000000E-03 0. -1.
<mgrwt>
<rscale>  0 0.30355366E+02</rscale>
<asrwt>0</asrwt>
<pdfrwt beam="2">  1        2 0.53437073E-03 0.30355366E+02</pdfrwt>
<pdfrwt beam="1">  1       -2 0.10203322E-01 0.30355366E+02</pdfrwt>
<totfact> 0.12647643E+06</totfact>
</mgrwt>
</event>
<event>
 4    1  0.1433582E+000  0.8267671E+02  0.7818608E-02  0.1321622E+00
         -2   -1    0    0    0  501 -0.00000000000E+00  0.00000000000E+00  0.23327093526E+02  0.23327093671E+02  0.26000000000E-02 0.  1.
          2   -1    0    0  501    0  0.00000000000E+00 -0.00000000000E+00 -0.73256437159E+02  0.73256437205E+02  0.26000000000E-02 0. -1.
        -11    1    1    2    0    0  0.47772773181E+01 -0.38501920698E+02 -0.41635258121E+02  0.56909709145E+02  0.51100000000E-03 0. -1.
         11    1    1    2    0    0 -0.47772773181E+01  0.38501920698E+02 -0.82940855125E+01  0.39673821731E+02  0.51100000000E-03 0.  1.
<mgrwt>
<rscale>  0 0.82676714E+02</rscale>
<asrwt>0</asrwt>
<pdfrwt beam="2">  1        2 0.11270221E-01 0.82676714E+02</pdfrwt>
<pdfrwt beam="1">  1       -2 0.35887837E-02 0.82676714E+02</pdfrwt>
<totfact> 0.14686966E+05</totfact>
</mgrwt>
</event>
<event>
 4    1  0.1433582E+000  0.4108701E+02  0.7818608E-02  0.1500361E+00
          2   -1    0    0  501    0  0.00000000000E+00  0.00000000000E+00  0.40552835273E+01  0.40552843607E+01  0.26000000000E-02 0.  1.
         -2   -1    0    0    0  501 -0.00000000000E+00 -0.00000000000E+00 -0.10407054085E+03  0.10407054089E+03  0.26000000000E-02 0. -1.
        -11    1    1    2    0    0 -0.14590223980E+02 -0.72894492482E+01 -0.82879304157E+02  0.84468868608E+02  0.51100000000E-03 0. -1.
         11    1    1    2    0    0  0.14590223980E+02  0.72894492482E+01 -0.17135953169E+02  0.23656956638E+02  0.51100000000E-03 0.  1.
<mgrwt>
<rscale>  0 0.41087010E+02</rscale>
<asrwt>0</asrwt>
<pdfrwt beam="1">  1        2 0.62388992E-03 0.41087010E+02</pdfrwt>
<pdfrwt beam="2">  1       -2 0.16010851E-01 0.41087010E+02</pdfrwt>
<totfact> 0.56208733E+05</totfact>
</mgrwt>
</event>
<event>
 4    1  0.1433582E+000  0.4224460E+02  0.7818608E-02  0.1492315E+00
          2   -1    0    0  501    0  0.00000000000E+00  0.00000000000E+00  0.36168748852E+02  0.36168748945E+02  0.26000000000E-02 0. -1.
         -2   -1    0    0    0  501 -0.00000000000E+00 -0.00000000000E+00 -0.12335278369E+02  0.12335278643E+02  0.26000000000E-02 0.  1.
        -11    1    1    2    0    0  0.16105662780E+01 -0.18391622807E+02  0.23699111692E+02  0.30041531393E+02  0.51100000000E-03 0. -1.
         11    1    1    2    0    0 -0.16105662780E+01  0.18391622807E+02  0.13435879169E+00  0.18462496195E+02  0.51100000000E-03 0.  1.
<mgrwt>
<rscale>  0 0.42244602E+02</rscale>
<asrwt>0</asrwt>
<pdfrwt beam="1">  1        2 0.55644229E-02 0.42244602E+02</pdfrwt>
<pdfrwt beam="2">  1       -2 0.18977352E-02 0.42244602E+02</pdfrwt>
<totfact> 0.74590601E+05</totfact>
</mgrwt>
</event>
<event>
 4    1  0.1433582E+000  0.2035911E+02  0.7818608E-02  0.1738280E+00
          2   -1    0    0  501    0  0.00000000000E+00  0.00000000000E+00  0.28365336080E+02  0.28365336199E+02  0.26000000000E-02 0.  1.
         -2   -1    0    0    0  501 -0.00000000000E+00 -0.00000000000E+00 -0.36531659762E+01  0.36531669015E+01  0.26000000000E-02 0. -1.
        -11    1    1    2    0    0 -0.92167590703E+00  0.99972623454E+01  0.97110907870E+01  0.13967821069E+02  0.51100000000E-03 0. -1.
         11    1    1    2    0    0  0.92167590703E+00 -0.99972623454E+01  0.15001079317E+02  0.18050682032E+02  0.51100000000E-03 0.  1.
<mgrwt>
<rscale>  0 0.20359106E+02</rscale>
<asrwt>0</asrwt>
<pdfrwt beam="1">  1        2 0.43638981E-02 0.20359106E+02</pdfrwt>
<pdfrwt beam="2">  1       -2 0.56202560E-03 0.20359106E+02</pdfrwt>
<totfact> 0.41421007E+06</totfact>
</mgrwt>
</event>
<event>
 4    1  0.1433582E+000  0.2804239E+02  0.7818608E-02  0.1620793E+00
          2   -1    0    0  501    0  0.00000000000E+00  0.00000000000E+00  0.30936692202E+01  0.30936703127E+01  0.26000000000E-02 0.  1.
         -2   -1    0    0    0  501 -0.00000000000E+00 -0.00000000000E+00 -0.63547164234E+02  0.63547164288E+02  0.26000000000E-02 0. -1.
        -11    1    1    2    0    0 -0.22747104253E+01 -0.11723884557E+02 -0.12768435687E+02  0.17483041119E+02  0.51100000000E-03 0.  1.
         11    1    1    2    0    0  0.22747104253E+01  0.11723884557E+02 -0.47685059328E+02  0.49157793481E+02  0.51100000000E-03 0. -1.
<mgrwt>
<rscale>  0 0.28042392E+02</rscale>
<asrwt>0</asrwt>
<pdfrwt beam="1">  1        2 0.47594925E-03 0.28042392E+02</pdfrwt>
<pdfrwt beam="2">  1       -2 0.97764859E-02 0.28042392E+02</pdfrwt>
<totfact> 0.15298260E+06</totfact>
</mgrwt>
</event>
<event>
 4    1  0.1433582E+000  0.4527147E+02  0.7818608E-02  0.1472654E+00
          2   -1    0    0  501    0  0.00000000000E+00  0.00000000000E+00  0.20677159694E+02  0.20677159858E+02  0.26000000000E-02 0. -1.
         -2   -1    0    0    0  501 -0.00000000000E+00 -0.00000000000E+00 -0.24779826062E+02  0.24779826199E+02  0.26000000000E-02 0.  1.
        -11    1    1    2    0    0 -0.11459128745E+02 -0.18486943997E+02 -0.83458097691E+01  0.23296593548E+02  0.51100000000E-03 0.  1.
         11    1    1    2    0    0  0.11459128745E+02  0.18486943997E+02  0.42431434011E+01  0.22160392509E+02  0.51100000000E-03 0. -1.
<mgrwt>
<rscale>  0 0.45271467E+02</rscale>
<asrwt>0</asrwt>
<pdfrwt beam="1">  1        2 0.31811015E-02 0.45271467E+02</pdfrwt>
<pdfrwt beam="2">  1       -2 0.38122810E-02 0.45271467E+02</pdfrwt>
<totfact> 0.57519145E+05</totfact>
</mgrwt>
</event>
<event>
 4    1  0.1433582E+000  0.2191896E+02  0.7818608E-02  0.1709657E+00
          2   -1    0    0  501    0  0.00000000000E+00  0.00000000000E+00  0.35935143756E+02  0.35935143850E+02  0.26000000000E-02 0. -1.
         -2   -1    0    0    0  501 -0.00000000000E+00 -0.00000000000E+00 -0.33424169450E+01  0.33424179563E+01  0.26000000000E-02 0.  1.
        -11    1    1    2    0    0 -0.94172487007E+01  0.40958142683E+01  0.23155083879E+02  0.25330183129E+02  0.51100000000E-03 0. -1.
         11    1    1    2    0    0  0.94172487007E+01 -0.40958142683E+01  0.94376429317E+01  0.13947378678E+02  0.51100000000E-03 0.  1.
<mgrwt>
<rscale>  0 0.21918965E+02</rscale>
<asrwt>0</asrwt>
<pdfrwt beam="1">  1        2 0.55284838E-02 0.21918965E+02</pdfrwt>
<pdfrwt beam="2">  1       -2 0.51421807E-03 0.21918965E+02</pdfrwt>
<totfact> 0.36016534E+06</totfact>
</mgrwt>
</event>
<event>
 4    1  0.1433582E+000  0.2360878E+02  0.7818608E-02  0.1681828E+00
          2   -1    0    0  501    0  0.00000000000E+00  0.00000000000E+00  0.77710756671E+02  0.77710756715E+02  0.26000000000E-02 0. -1.
         -2   -1    0    0    0  501 -0.00000000000E+00 -0.00000000000E+00 -0.17931057015E+01  0.17931075865E+01  0.26000000000E-02 0.  1.
        -11    1    1    2    0    0 -0.10944223624E+02  0.39942498793E+01  0.31557270010E+02  0.33639134257E+02  0.51100000000E-03 0. -1.
         11    1    1    2    0    0  0.10944223624E+02 -0.39942498793E+01  0.44360380960E+02  0.45864730044E+02  0.51100000000E-03 0.  1.
<mgrwt>
<rscale>  0 0.23608785E+02</rscale>
<asrwt>0</asrwt>
<pdfrwt beam="1">  1        2 0.11955497E-01 0.23608785E+02</pdfrwt>
<pdfrwt beam="2">  1       -2 0.27586267E-03 0.23608785E+02</pdfrwt>
<totfact> 0.34446797E+06</totfact>
</mgrwt>
</event>
<event>
 4    1  0.1433582E+000  0.5922926E+02  0.7818608E-02  0.1401095E+00
         -2   -1    0    0    0  501 -0.00000000000E+00  0.00000000000E+00  0.58986863360E+01  0.58986869090E+01  0.26000000000E-02 0.  1.
          2   -1    0    0  501    0  0.00000000000E+00 -0.00000000000E+00 -0.14868164717E+03  0.14868164719E+03  0.26000000000E-02 0. -1.
        -11    1    1    2    0    0  0.24877689546E+02 -0.80222613121E+01 -0.10772115799E+03  0.11084721013E+03  0.51100000000E-03 0. -1.
         11    1    1    2    0    0 -0.24877689546E+02  0.80222613121E+01 -0.35061802841E+02  0.43733123973E+02  0.51100000000E-03 0.  1.
<mgrwt>
<rscale>  0 0.59229265E+02</rscale>
<asrwt>0</asrwt>
<pdfrwt beam="2">  1        2 0.22874097E-01 0.59229265E+02</pdfrwt>
<pdfrwt beam="1">  1       -2 0.90749036E-03 0.59229265E+02</pdfrwt>
<totfact> 0.43540813E+05</totfact>
</mgrwt>
</event>
<event>
 4    1  0.1433582E+000  0.2876420E+02  0.7818608E-02  0.1612165E+00
         -2   -1    0    0    0  501 -0.00000000000E+00  0.00000000000E+00  0.25395801551E+01  0.25395814860E+01  0.26000000000E-02 0. -1.
          2   -1    0    0  501    0  0.00000000000E+00 -0.00000000000E+00 -0.81448388771E+02  0.81448388813E+02  0.26000000000E-02 0.  1.
        -11    1    1    2    0    0  0.12218810731E+02  0.39065508609E+01 -0.58441317284E+02  0.59832667010E+02  0.51100000000E-03 0.  1.
         11    1    1    2    0    0 -0.12218810731E+02 -0.39065508609E+01 -0.20467491332E+02  0.24155303289E+02  0.51100000000E-03 0. -1.
<mgrwt>
<rscale>  0 0.28764198E+02</rscale>
<asrwt>0</asrwt>
<pdfrwt beam="2">  1        2 0.12530519E-01 0.28764198E+02</pdfrwt>
<pdfrwt beam="1">  1       -2 0.39070481E-03 0.28764198E+02</pdfrwt>
<totfact> 0.22018196E+06</totfact>
</mgrwt>
</event>
<event>
 4    1  0.1433582E+000  0.9589839E+02  0.7818608E-02  0.1289165E+00
          2   -1    0    0  501    0  0.00000000000E+00  0.00000000000E+00  0.77451702910E+02  0.77451702953E+02  0.26000000000E-02 0. -1.
         -2   -1    0    0    0  501 -0.00000000000E+00 -0.00000000000E+00 -0.29684634224E+02  0.29684634338E+02  0.26000000000E-02 0.  1.
        -11    1    1    2    0    0  0.41961812707E+02 -0.20772119351E+02  0.12335332293E+02  0.48419366900E+02  0.51100000000E-03 0.  1.
         11    1    1    2    0    0 -0.41961812707E+02  0.20772119351E+02  0.35431736392E+02  0.58716970392E+02  0.51100000000E-03 0. -1.
<mgrwt>
<rscale>  0 0.95898394E+02</rscale>
<asrwt>0</asrwt>
<pdfrwt beam="1">  1        2 0.11915646E-01 0.95898394E+02</pdfrwt>
<pdfrwt beam="2">  1       -2 0.45668669E-02 0.95898394E+02</pdfrwt>
<totfact> 0.98811008E+04</totfact>
</mgrwt>
</event>
<event>
 4    1  0.1433582E+000  0.4231823E+02  0.7818608E-02  0.1491813E+00
          2   -1    0    0  501    0  0.00000000000E+00  0.00000000000E+00  0.12179616297E+02  0.12179616575E+02  0.26000000000E-02 0. -1.
         -2   -1    0    0    0  501 -0.00000000000E+00 -0.00000000000E+00 -0.36758808227E+02  0.36758808319E+02  0.26000000000E-02 0.  1.
        -11    1    1    2    0    0  0.10035772767E+02 -0.17242995821E+02 -0.20439865118E+02  0.28562663150E+02  0.51100000000E-03 0. -1.
         11    1    1    2    0    0 -0.10035772767E+02  0.17242995821E+02 -0.41393268116E+01  0.20375761743E+02  0.51100000000E-03 0.  1.
<mgrwt>
<rscale>  0 0.42318232E+02</rscale>
<asrwt>0</asrwt>
<pdfrwt beam="1">  1        2 0.18737872E-02 0.42318232E+02</pdfrwt>
<pdfrwt beam="2">  1       -2 0.56552012E-02 0.42318232E+02</pdfrwt>
<totfact> 0.63679763E+05</totfact>
</mgrwt>
</event>
<event>
 4    1  0.1433582E+000  0.3011218E+02  0.7818608E-02  0.1596852E+00
          2   -1    0    0  501    0  0.00000000000E+00  0.00000000000E+00  0.75679687521E+02  0.75679687566E+02  0.26000000000E-02 0. -1.
         -2   -1    0    0    0  501 -0.00000000000E+00 -0.00000000000E+00 -0.29953323520E+01  0.29953334804E+01  0.26000000000E-02 0.  1.
        -11    1    1    2    0    0  0.80242547963E+01 -0.95027021913E+01  0.14173061328E+02  0.18856449338E+02  0.51100000000E-03 0.  1.
         11    1    1    2    0    0 -0.80242547963E+01  0.95027021913E+01  0.58511293841E+02  0.59818571708E+02  0.51100000000E-03 0. -1.
<mgrwt>
<rscale>  0 0.30112181E+02</rscale>
<asrwt>0</asrwt>
<pdfrwt beam="1">  1        2 0.11643029E-01 0.30112181E+02</pdfrwt>
<pdfrwt beam="2">  1       -2 0.46082044E-03 0.30112181E+02</pdfrwt>
<totfact> 0.19458251E+06</totfact>
</mgrwt>
</event>
<event>
 4    1  0.1433582E+000  0.6389686E+02  0.7818608E-02  0.1382170E+00
         -2   -1    0    0    0  501 -0.00000000000E+00  0.00000000000E+00  0.28819957414E+02  0.28819957531E+02  0.26000000000E-02 0. -1.
          2   -1    0    0  501    0  0.00000000000E+00 -0.00000000000E+00 -0.35416501069E+02  0.35416501165E+02  0.26000000000E-02 0.  1.
        -11    1    1    2    0    0  0.28895662503E+02 -0.13183048579E+02  0.17697495126E+00  0.31761350753E+02  0.51100000000E-03 0. -1.
         11    1    1    2    0    0 -0.28895662503E+02  0.13183048579E+02 -0.67735186066E+01  0.32475107942E+02  0.51100000000E-03 0.  1.
<mgrwt>
<rscale>  0 0.63896856E+02</rscale>
<asrwt>0</asrwt>
<pdfrwt beam="2">  1        2 0.54486924E-02 0.63896856E+02</pdfrwt>
<pdfrwt beam="1">  1       -2 0.44338397E-02 0.63896856E+02</pdfrwt>
<totfact> 0.25141997E+05</totfact>
</mgrwt>
</event>
<event>
 4    1  0.1433582E+000  0.2555329E+02  0.7818608E-02  0.1653180E+00
          2   -1    0    0  501    0  0.00000000000E+00  0.00000000000E+00  0.87815845895E+01  0.87815849744E+01  0.26000000000E-02 0.  1.
         -2   -1    0    0    0  501 -0.00000000000E+00 -0.00000000000E+00 -0.18589206313E+02  0.18589206495E+02  0.26000000000E-02 0. -1.
        -11    1    1    2    0    0 -0.52223398436E+01 -0.11408054514E+02 -0.23183887467E+01  0.12758975973E+02  0.51100000000E-03 0. -1.
         11    1    1    2    0    0  0.52223398436E+01  0.11408054514E+02 -0.74892329766E+01  0.14611815496E+02  0.51100000000E-03 0.  1.
<mgrwt>
<rscale>  0 0.25553293E+02</rscale>
<asrwt>0</asrwt>
<pdfrwt beam="1">  1        2 0.13510131E-02 0.25553293E+02</pdfrwt>
<pdfrwt beam="2">  1       -2 0.28598779E-02 0.25553293E+02</pdfrwt>
<totfact> 0.21957402E+06</totfact>
</mgrwt>
</event>
<event>
 4    1  0.1433582E+000  0.3468702E+02  0.7818608E-02  0.1551398E+00
          2   -1    0    0  501    0  0.00000000000E+00  0.00000000000E+00  0.98465198060E+02  0.98465198094E+02  0.26000000000E-02 0. -1.
         -2   -1    0    0    0  501 -0.00000000000E+00 -0.00000000000E+00 -0.30548581655E+01  0.30548592719E+01  0.26000000000E-02 0.  1.
        -11    1    1    2    0    0  0.14313182482E+02  0.30096404004E+01  0.74983964920E+02  0.76397121173E+02  0.51100000000E-03 0. -1.
         11    1    1    2    0    0 -0.14313182482E+02 -0.30096404004E+01  0.20426374974E+02  0.25122936193E+02  0.51100000000E-03 0.  1.
<mgrwt>
<rscale>  0 0.34687016E+02</rscale>
<asrwt>0</asrwt>
<pdfrwt beam="1">  1        2 0.15148490E-01 0.34687016E+02</pdfrwt>
<pdfrwt beam="2">  1       -2 0.46997834E-03 0.34687016E+02</pdfrwt>
<totfact> 0.14725220E+06</totfact>
</mgrwt>
</event>
<event>
 4    1  0.1433582E+000  0.2133920E+02  0.7818608E-02  0.1719937E+00
          2   -1    0    0  501    0  0.00000000000E+00  0.00000000000E+00  0.72286559855E+01  0.72286564531E+01  0.26000000000E-02 0.  1.
         -2   -1    0    0    0  501 -0.00000000000E+00 -0.00000000000E+00 -0.15748482604E+02  0.15748482818E+02  0.26000000000E-02 0. -1.
        -11    1    1    2    0    0 -0.10443224889E+02  0.82700108633E+00 -0.64389821137E+01  0.12296559185E+02  0.51100000000E-03 0. -1.
         11    1    1    2    0    0  0.10443224889E+02 -0.82700108633E+00 -0.20808445045E+01  0.10680580086E+02  0.51100000000E-03 0.  1.
<mgrwt>
<rscale>  0 0.21339201E+02</rscale>
<asrwt>0</asrwt>
<pdfrwt beam="1">  1        2 0.11121010E-02 0.21339201E+02</pdfrwt>
<pdfrwt beam="2">  1       -2 0.24228435E-02 0.21339201E+02</pdfrwt>
<totfact> 0.33142345E+06</totfact>
</mgrwt>
</event>
<event>
 4    1  0.1433582E+000  0.3279861E+02  0.7818608E-02  0.1569066E+00
         -2   -1    0    0    0  501 -0.00000000000E+00  0.00000000000E+00  0.22081427230E+02  0.22081427383E+02  0.26000000000E-02 0. -1.
          2   -1    0    0  501    0  0.00000000000E+00 -0.00000000000E+00 -0.12179341346E+02  0.12179341624E+02  0.26000000000E-02 0.  1.
        -11    1    1    2    0    0  0.13137520239E+02 -0.62020748167E+01 -0.29958054427E+01  0.14833577470E+02  0.51100000000E-03 0.  1.
         11    1    1    2    0    0 -0.13137520239E+02  0.62020748167E+01  0.12897891327E+02  0.19427191536E+02  0.51100000000E-03 0. -1.
<mgrwt>
<rscale>  0 0.32798613E+02</rscale>
<asrwt>0</asrwt>
<pdfrwt beam="2">  1        2 0.18737449E-02 0.32798613E+02</pdfrwt>
<pdfrwt beam="1">  1       -2 0.33971427E-02 0.32798613E+02</pdfrwt>
<totfact> 0.12277064E+06</totfact>
</mgrwt>
</event>
<event>
 4    1  0.1433582E+000  0.3527996E+02  0.7818608E-02  0.1546128E+00
          2   -1    0    0  501    0  0.00000000000E+00  0.00000000000E+00  0.11590610413E+03  0.11590610416E+03  0.26000000000E-02 0. -1.
         -2   -1    0    0    0  501 -0.00000000000E+00 -0.00000000000E+00 -0.26846628472E+01  0.26846641062E+01  0.26000000000E-02 0.  1.
        -11    1    1    2    0    0  0.12364856559E+02  0.96846975952E+01  0.83603959140E+02  0.85066474180E+02  0.51100000000E-03 0. -1.
         11    1    1    2    0    0 -0.12364856559E+02 -0.96846975952E+01  0.29617482145E+02  0.33524294088E+02  0.51100000000E-03 0.  1.
<mgrwt>
<rscale>  0 0.35279960E+02</rscale>
<asrwt>0</asrwt>
<pdfrwt beam="1">  1        2 0.17831704E-01 0.35279960E+02</pdfrwt>
<pdfrwt beam="2">  1       -2 0.41302525E-03 0.35279960E+02</pdfrwt>
<totfact> 0.14732438E+06</totfact>
</mgrwt>
</event>
<event>
 4    1  0.1433582E+000  0.3230979E+02  0.7818608E-02  0.1573876E+00
         -2   -1    0    0    0  501 -0.00000000000E+00  0.00000000000E+00  0.13593473554E+02  0.13593473803E+02  0.26000000000E-02 0. -1.
          2   -1    0    0  501    0  0.00000000000E+00 -0.00000000000E+00 -0.19198963966E+02  0.19198964142E+02  0.26000000000E-02 0.  1.
        -11    1    1    2    0    0 -0.12528726150E+02 -0.10172200390E+02 -0.20583201052E+01  0.16268968057E+02  0.51100000000E-03 0.  1.
         11    1    1    2    0    0  0.12528726150E+02  0.10172200390E+02 -0.35471703072E+01  0.16523469889E+02  0.51100000000E-03 0. -1.
<mgrwt>
<rscale>  0 0.32309789E+02</rscale>
<asrwt>0</asrwt>
<pdfrwt beam="2">  1        2 0.29536868E-02 0.32309789E+02</pdfrwt>
<pdfrwt beam="1">  1       -2 0.20913037E-02 0.32309789E+02</pdfrwt>
<totfact> 0.13398339E+06</totfact>
</mgrwt>
</event>
<event>
 4    1  0.1433582E+000  0.2922923E+02  0.7818608E-02  0.1606768E+00
         -2   -1    0    0    0  501 -0.00000000000E+00  0.00000000000E+00  0.27222142789E+01  0.27222155206E+01  0.26000000000E-02 0. -1.
          2   -1    0    0  501    0  0.00000000000E+00 -0.00000000000E+00 -0.78460753853E+02  0.78460753896E+02  0.26000000000E-02 0.  1.
        -11    1    1    2    0    0  0.10752204214E+02  0.89021022814E+01 -0.25849031250E+02  0.29377367774E+02  0.51100000000E-03 0. -1.
         11    1    1    2    0    0 -0.10752204214E+02 -0.89021022814E+01 -0.49889508324E+02  0.51805601642E+02  0.51100000000E-03 0.  1.
<mgrwt>
<rscale>  0 0.29229234E+02</rscale>
<asrwt>0</asrwt>
<pdfrwt beam="2">  1        2 0.12070884E-01 0.29229234E+02</pdfrwt>
<pdfrwt beam="1">  1       -2 0.41880236E-03 0.29229234E+02</pdfrwt>
<totfact> 0.21035061E+06</totfact>
</mgrwt>
</event>
<event>
 4    1  0.1433582E+000  0.3657490E+02  0.7818608E-02  0.1535044E+00
          2   -1    0    0  501    0  0.00000000000E+00  0.00000000000E+00  0.22706291243E+02  0.22706291392E+02  0.26000000000E-02 0. -1.
         -2   -1    0    0    0  501 -0.00000000000E+00 -0.00000000000E+00 -0.14728554667E+02  0.14728554896E+02  0.26000000000E-02 0.  1.
        -11    1    1    2    0    0 -0.64508836875E+01  0.86887234341E+01  0.19077358155E+02  0.21932929802E+02  0.51100000000E-03 0. -1.
         11    1    1    2    0    0  0.64508836875E+01 -0.86887234341E+01 -0.11099621579E+02  0.15501916486E+02  0.51100000000E-03 0.  1.
<mgrwt>
<rscale>  0 0.36574902E+02</rscale>
<asrwt>0</asrwt>
<pdfrwt beam="1">  1        2 0.34932756E-02 0.36574902E+02</pdfrwt>
<pdfrwt beam="2">  1       -2 0.22659315E-02 0.36574902E+02</pdfrwt>
<totfact> 0.10046923E+06</totfact>
</mgrwt>
</event>
<event>
 4    1  0.1433582E+000  0.4711475E+02  0.7818608E-02  0.1461556E+00
          2   -1    0    0  501    0  0.00000000000E+00  0.00000000000E+00  0.86976289054E+01  0.86976292940E+01  0.26000000000E-02 0. -1.
         -2   -1    0    0    0  501 -0.00000000000E+00 -0.00000000000E+00 -0.63804731509E+02  0.63804731562E+02  0.26000000000E-02 0.  1.
        -11    1    1    2    0    0 -0.14029304166E+02  0.32720670858E+01 -0.56236512397E+02  0.58052330920E+02  0.51100000000E-03 0.  1.
         11    1    1    2    0    0  0.14029304166E+02 -0.32720670858E+01  0.11294097939E+01  0.14450029936E+02  0.51100000000E-03 0. -1.
<mgrwt>
<rscale>  0 0.47114749E+02</rscale>
<asrwt>0</asrwt>
<pdfrwt beam="1">  1        2 0.13380968E-02 0.47114749E+02</pdfrwt>
<pdfrwt beam="2">  1       -2 0.98161123E-02 0.47114749E+02</pdfrwt>
<totfact> 0.44991028E+05</totfact>
</mgrwt>
</event>
<event>
 4    1  0.1433582E+000  0.2456086E+02  0.7818608E-02  0.1667391E+00
          2   -1    0    0  501    0  0.00000000000E+00  0.00000000000E+00  0.10016105670E+02  0.10016106008E+02  0.26000000000E-02 0.  1.
         -2   -1    0    0    0  501 -0.00000000000E+00 -0.00000000000E+00 -0.15056644770E+02  0.15056644995E+02  0.26000000000E-02 0. -1.
        -11    1    1    2    0    0 -0.45379966746E+01  0.98896023183E+01  0.32914772230E+01  0.11368002041E+02  0.51100000000E-03 0.  1.
         11    1    1    2    0    0  0.45379966746E+01 -0.98896023183E+01 -0.83320163232E+01  0.13704748962E+02  0.51100000000E-03 0. -1.
<mgrwt>
<rscale>  0 0.24560859E+02</rscale>
<asrwt>0</asrwt>
<pdfrwt beam="1">  1        2 0.15409394E-02 0.24560859E+02</pdfrwt>
<pdfrwt beam="2">  1       -2 0.23164069E-02 0.24560859E+02</pdfrwt>
<totfact> 0.24433335E+06</totfact>
</mgrwt>
</event>
<event>
 4    1  0.1433582E+000  0.2430880E+02  0.7818608E-02  0.1671133E+00
          2   -1    0    0  501    0  0.00000000000E+00  0.00000000000E+00  0.84280875351E+02  0.84280875392E+02  0.26000000000E-02 0.  1.
         -2   -1    0    0    0  501 -0.00000000000E+00 -0.00000000000E+00 -0.17528221599E+01  0.17528240883E+01  0.26000000000E-02 0. -1.
        -11    1    1    2    0    0  0.10432733180E+02 -0.35767569935E+01  0.59343190474E+02  0.60359335385E+02  0.51100000000E-03 0.  1.
         11    1    1    2    0    0 -0.10432733180E+02  0.35767569935E+01  0.23184862717E+02  0.25674364095E+02  0.51100000000E-03 0. -1.
<mgrwt>
<rscale>  0 0.24308803E+02</rscale>
<asrwt>0</asrwt>
<pdfrwt beam="1">  1        2 0.12966284E-01 0.24308803E+02</pdfrwt>
<pdfrwt beam="2">  1       -2 0.26966519E-03 0.24308803E+02</pdfrwt>
<totfact> 0.32772324E+06</totfact>
</mgrwt>
</event>
<event>
 4    1  0.1433582E+000  0.3102729E+02  0.7818608E-02  0.1587003E+00
         -2   -1    0    0    0  501 -0.00000000000E+00  0.00000000000E+00  0.67178370495E+01  0.67178375526E+01  0.26000000000E-02 0. -1.
          2   -1    0    0  501    0  0.00000000000E+00 -0.00000000000E+00 -0.35825993688E+02  0.35825993783E+02  0.26000000000E-02 0.  1.
        -11    1    1    2    0    0 -0.88284984960E+01  0.52702460595E+01  0.13748934352E+01  0.10373437783E+02  0.51100000000E-03 0. -1.
         11    1    1    2    0    0  0.88284984960E+01 -0.52702460595E+01 -0.30483050074E+02  0.32170393552E+02  0.51100000000E-03 0.  1.
<mgrwt>
<rscale>  0 0.31027291E+02</rscale>
<asrwt>0</asrwt>
<pdfrwt beam="2">  1        2 0.55116913E-02 0.31027291E+02</pdfrwt>
<pdfrwt beam="1">  1       -2 0.10335135E-02 0.31027291E+02</pdfrwt>
<totfact> 0.15954755E+06</totfact>
</mgrwt>
</event>
<event>
 4    1  0.1433582E+000  0.4165838E+02  0.7818608E-02  0.1496350E+00
         -2   -1    0    0    0  501 -0.00000000000E+00  0.00000000000E+00  0.12568521037E+02  0.12568521306E+02  0.26000000000E-02 0. -1.
          2   -1    0    0  501    0  0.00000000000E+00 -0.00000000000E+00 -0.34519183479E+02  0.34519183577E+02  0.26000000000E-02 0.  1.
        -11    1    1    2    0    0 -0.86135528657E+01 -0.18951223579E+02 -0.10165803552E+02  0.23166478589E+02  0.51100000000E-03 0.  1.
         11    1    1    2    0    0  0.86135528657E+01  0.18951223579E+02 -0.11784858889E+02  0.23921226294E+02  0.51100000000E-03 0. -1.
<mgrwt>
<rscale>  0 0.41658377E+02</rscale>
<asrwt>0</asrwt>
<pdfrwt beam="2">  1        2 0.53106436E-02 0.41658377E+02</pdfrwt>
<pdfrwt beam="1">  1       -2 0.19336187E-02 0.41658377E+02</pdfrwt>
<totfact> 0.76717692E+05</totfact>
</mgrwt>
</event>
<event>
 4    1  0.1433582E+000  0.2591926E+02  0.7818608E-02  0.1648139E+00
          2   -1    0    0  501    0  0.00000000000E+00  0.00000000000E+00  0.33230902846E+02  0.33230902948E+02  0.26000000000E-02 0.  1.
         -2   -1    0    0    0  501 -0.00000000000E+00 -0.00000000000E+00 -0.50540919927E+01  0.50540926615E+01  0.26000000000E-02 0. -1.
        -11    1    1    2    0    0 -0.10394542439E+02  0.62177940055E+01  0.72802413028E+01  0.14131857220E+02  0.51100000000E-03 0. -1.
         11    1    1    2    0    0  0.10394542439E+02 -0.62177940055E+01  0.20896569551E+02  0.24153138389E+02  0.51100000000E-03 0.  1.
<mgrwt>
<rscale>  0 0.25919263E+02</rscale>
<asrwt>0</asrwt>
<pdfrwt beam="1">  1        2 0.51124466E-02 0.25919263E+02</pdfrwt>
<pdfrwt beam="2">  1       -2 0.77755268E-03 0.25919263E+02</pdfrwt>
<totfact> 0.24220972E+06</totfact>
</mgrwt>
</event>
<event>
 4    1  0.1433582E+000  0.2262917E+02  0.7818608E-02  0.1697593E+00
          2   -1    0    0  501    0  0.00000000000E+00  0.00000000000E+00  0.48358078101E+01  0.48358085091E+01  0.26000000000E-02 0. -1.
         -2   -1    0    0    0  501 -0.00000000000E+00 -0.00000000000E+00 -0.26473312837E+02  0.26473312965E+02  0.26000000000E-02 0.  1.
        -11    1    1    2    0    0  0.64340273106E+01 -0.92898381059E+01 -0.10033562496E+02  0.15111921655E+02  0.51100000000E-03 0. -1.
         11    1    1    2    0    0 -0.64340273106E+01  0.92898381059E+01 -0.11603942531E+02  0.16197199820E+02  0.51100000000E-03 0.  1.
<mgrwt>
<rscale>  0 0.22629173E+02</rscale>
<asrwt>0</asrwt>
<pdfrwt beam="1">  1        2 0.74397051E-03 0.22629173E+02</pdfrwt>
<pdfrwt beam="2">  1       -2 0.40728173E-02 0.22629173E+02</pdfrwt>
<totfact> 0.27830232E+06</totfact>
</mgrwt>
</event>
<event>
 4    1  0.1433582E+000  0.2278952E+02  0.7818608E-02  0.1694945E+00
         -2   -1    0    0    0  501 -0.00000000000E+00  0.00000000000E+00  0.11740567131E+01  0.11740595920E+01  0.26000000000E-02 0.  1.
          2   -1    0    0  501    0  0.00000000000E+00 -0.00000000000E+00 -0.11059128717E+03  0.11059128720E+03  0.26000000000E-02 0. -1.
        -11    1    1    2    0    0 -0.11098217430E+02  0.22794304413E+01 -0.48753701534E+02  0.50052868517E+02  0.51100000000E-03 0. -1.
         11    1    1    2    0    0  0.11098217430E+02 -0.22794304413E+01 -0.60663528925E+02  0.61712478277E+02  0.51100000000E-03 0.  1.
<mgrwt>
<rscale>  0 0.22789524E+02</rscale>
<asrwt>0</asrwt>
<pdfrwt beam="2">  1        2 0.17014036E-01 0.22789524E+02</pdfrwt>
<pdfrwt beam="1">  1       -2 0.18062442E-03 0.22789524E+02</pdfrwt>
<totfact> 0.40371001E+06</totfact>
</mgrwt>
</event>
<event>
 4    1  0.1433582E+000  0.3192753E+02  0.7818608E-02  0.1577710E+00
          2   -1    0    0  501    0  0.00000000000E+00  0.00000000000E+00  0.79895993948E+02  0.79895993990E+02  0.26000000000E-02 0. -1.
         -2   -1    0    0    0  501 -0.00000000000E+00 -0.00000000000E+00 -0.31896696385E+01  0.31896706982E+01  0.26000000000E-02 0.  1.
        -11    1    1    2    0    0  0.13194534196E+02 -0.84874348161E+01  0.46033132559E+02  0.48633132491E+02  0.51100000000E-03 0. -1.
         11    1    1    2    0    0 -0.13194534196E+02  0.84874348161E+01  0.30673191750E+02  0.34452532197E+02  0.51100000000E-03 0.  1.
<mgrwt>
<rscale>  0 0.31927535E+02</rscale>
<asrwt>0</asrwt>
<pdfrwt beam="1">  1        2 0.12291691E-01 0.31927535E+02</pdfrwt>
<pdfrwt beam="2">  1       -2 0.49071850E-03 0.31927535E+02</pdfrwt>
<totfact> 0.17122775E+06</totfact>
</mgrwt>
</event>
<event>
 4    1  0.1433582E+000  0.3819930E+02  0.7818608E-02  0.1521897E+00
          2   -1    0    0  501    0  0.00000000000E+00  0.00000000000E+00  0.40438050872E+01  0.40438059230E+01  0.26000000000E-02 0.  1.
         -2   -1    0    0    0  501 -0.00000000000E+00 -0.00000000000E+00 -0.90211238654E+02  0.90211238692E+02  0.26000000000E-02 0. -1.
        -11    1    1    2    0    0 -0.18566974269E+02 -0.23379257679E+01 -0.52511290623E+02  0.55746157478E+02  0.51100000000E-03 0. -1.
         11    1    1    2    0    0  0.18566974269E+02  0.23379257679E+01 -0.33656142944E+02  0.38508887137E+02  0.51100000000E-03 0.  1.
<mgrwt>
<rscale>  0 0.38199304E+02</rscale>
<asrwt>0</asrwt>
<pdfrwt beam="1">  1        2 0.62212400E-03 0.38199304E+02</pdfrwt>
<pdfrwt beam="2">  1       -2 0.13878651E-01 0.38199304E+02</pdfrwt>
<totfact> 0.69243927E+05</totfact>
</mgrwt>
</event>
<event>
 4    1  0.1433582E+000  0.6057608E+02  0.7818608E-02  0.1395430E+00
          2   -1    0    0  501    0  0.00000000000E+00  0.00000000000E+00  0.61599318550E+02  0.61599318605E+02  0.26000000000E-02 0.  1.
         -2   -1    0    0    0  501 -0.00000000000E+00 -0.00000000000E+00 -0.14892461513E+02  0.14892461740E+02  0.26000000000E-02 0. -1.
        -11    1    1    2    0    0  0.12752421113E+02  0.26313856687E+02  0.33322046158E+02  0.44332855293E+02  0.51100000000E-03 0.  1.
         11    1    1    2    0    0 -0.12752421113E+02 -0.26313856687E+02  0.13384810878E+02  0.32158925052E+02  0.51100000000E-03 0. -1.
<mgrwt>
<rscale>  0 0.60576084E+02</rscale>
<asrwt>0</asrwt>
<pdfrwt beam="1">  1        2 0.94768182E-02 0.60576084E+02</pdfrwt>
<pdfrwt beam="2">  1       -2 0.22911480E-02 0.60576084E+02</pdfrwt>
<totfact> 0.32494653E+05</totfact>
</mgrwt>
</event>
<event>
 4    1  0.1433582E+000  0.2360924E+02  0.7818608E-02  0.1681821E+00
          2   -1    0    0  501    0  0.00000000000E+00  0.00000000000E+00  0.89632796770E+01  0.89632800541E+01  0.26000000000E-02 0.  1.
         -2   -1    0    0    0  501 -0.00000000000E+00 -0.00000000000E+00 -0.15546654910E+02  0.15546655127E+02  0.26000000000E-02 0. -1.
        -11    1    1    2    0    0  0.69214017733E+01 -0.95302069200E+01 -0.41080570166E+01  0.12474244633E+02  0.51100000000E-03 0. -1.
         11    1    1    2    0    0 -0.69214017733E+01  0.95302069200E+01 -0.24753182160E+01  0.12035690548E+02  0.51100000000E-03 0.  1.
<mgrwt>
<rscale>  0 0.23609237E+02</rscale>
<asrwt>0</asrwt>
<pdfrwt beam="1">  1        2 0.13789661E-02 0.23609237E+02</pdfrwt>
<pdfrwt beam="2">  1       -2 0.23917931E-02 0.23609237E+02</pdfrwt>
<totfact> 0.26584155E+06</totfact>
</mgrwt>
</event>
<event>
 4    1  0.1433582E+000  0.2615460E+02  0.7818608E-02  0.1644951E+00
         -2   -1    0    0    0  501 -0.00000000000E+00  0.00000000000E+00  0.32361916590E+02  0.32361916694E+02  0.26000000000E-02 0. -1.
          2   -1    0    0  501    0  0.00000000000E+00 -0.00000000000E+00 -0.52844768139E+01  0.52844774535E+01  0.26000000000E-02 0.  1.
        -11    1    1    2    0    0 -0.11179089638E+01  0.12377506178E+02  0.19396734090E+02  0.23036615925E+02  0.51100000000E-03 0. -1.
         11    1    1    2    0    0  0.11179089638E+01 -0.12377506178E+02  0.76807056854E+01  0.14609778223E+02  0.51100000000E-03 0.  1.
<mgrwt>
<rscale>  0 0.26154603E+02</rscale>
<asrwt>0</asrwt>
<pdfrwt beam="2">  1        2 0.81299651E-03 0.26154603E+02</pdfrwt>
<pdfrwt beam="1">  1       -2 0.49787564E-02 0.26154603E+02</pdfrwt>
<totfact> 0.19704925E+06</totfact>
</mgrwt>
</event>
<event>
 4    1  0.1433582E+000  0.2469980E+02  0.7818608E-02  0.1665352E+00
         -2   -1    0    0    0  501 -0.00000000000E+00  0.00000000000E+00  0.38260551603E+01  0.38260560438E+01  0.26000000000E-02 0. -1.
          2   -1    0    0  501    0  0.00000000000E+00 -0.00000000000E+00 -0.39863523483E+02  0.39863523567E+02  0.26000000000E-02 0.  1.
        -11    1    1    2    0    0 -0.77639122006E+01  0.92803765603E+01 -0.22393251623E+02  0.25453122407E+02  0.51100000000E-03 0.  1.
         11    1    1    2    0    0  0.77639122006E+01 -0.92803765603E+01 -0.13644216700E+02  0.18236457204E+02  0.51100000000E-03 0. -1.
<mgrwt>
<rscale>  0 0.24699802E+02</rscale>
<asrwt>0</asrwt>
<pdfrwt beam="2">  1        2 0.61328496E-02 0.24699802E+02</pdfrwt>
<pdfrwt beam="1">  1       -2 0.58862397E-03 0.24699802E+02</pdfrwt>
<totfact> 0.27754688E+06</totfact>
</mgrwt>
</event>
<event>
 4    1  0.1433582E+000  0.3344215E+02  0.7818608E-02  0.1562886E+00
         -2   -1    0    0    0  501 -0.00000000000E+00  0.00000000000E+00  0.26867845623E+02  0.26867845749E+02  0.26000000000E-02 0. -1.
          2   -1    0    0  501    0  0.00000000000E+00 -0.00000000000E+00 -0.10406280830E+02  0.10406281155E+02  0.26000000000E-02 0.  1.
        -11    1    1    2    0    0  0.41893901714E+01 -0.10722096942E+02 -0.52865221311E+01  0.12667346579E+02  0.51100000000E-03 0.  1.
         11    1    1    2    0    0 -0.41893901714E+01  0.10722096942E+02  0.21748086924E+02  0.24606780325E+02  0.51100000000E-03 0. -1.
<mgrwt>
<rscale>  0 0.33442150E+02</rscale>
<asrwt>0</asrwt>
<pdfrwt beam="2">  1        2 0.16009663E-02 0.33442150E+02</pdfrwt>
<pdfrwt beam="1">  1       -2 0.41335147E-02 0.33442150E+02</pdfrwt>
<totfact> 0.11482136E+06</totfact>
</mgrwt>
</event>
<event>
 4    1  0.1433582E+000  0.2603852E+02  0.7818608E-02  0.1646518E+00
          2   -1    0    0  501    0  0.00000000000E+00  0.00000000000E+00  0.47407442493E+02  0.47407442564E+02  0.26000000000E-02 0.  1.
         -2   -1    0    0    0  501 -0.00000000000E+00 -0.00000000000E+00 -0.35754115549E+01  0.35754125003E+01  0.26000000000E-02 0. -1.
        -11    1    1    2    0    0  0.62004964528E+01 -0.79727175411E+01  0.38001346633E+02  0.39320639967E+02  0.51100000000E-03 0.  1.
         11    1    1    2    0    0 -0.62004964528E+01  0.79727175411E+01  0.58306843052E+01  0.11662215097E+02  0.51100000000E-03 0. -1.
<mgrwt>
<rscale>  0 0.26038521E+02</rscale>
<asrwt>0</asrwt>
<pdfrwt beam="1">  1        2 0.72934521E-02 0.26038521E+02</pdfrwt>
<pdfrwt beam="2">  1       -2 0.55006344E-03 0.26038521E+02</pdfrwt>
<totfact> 0.25174140E+06</totfact>
</mgrwt>
</event>
<event>
 4    1  0.1433582E+000  0.3362563E+02  0.7818608E-02  0.1561155E+00
         -2   -1    0    0    0  501 -0.00000000000E+00  0.00000000000E+00  0.53563416058E+01  0.53563422369E+01  0.26000000000E-02 0. -1.
          2   -1    0    0  501    0  0.00000000000E+00 -0.00000000000E+00 -0.52773089317E+02  0.52773089381E+02  0.26000000000E-02 0.  1.
        -11    1    1    2    0    0 -0.74818403236E+00 -0.13644112933E+02 -0.40641851689E+02  0.42877519821E+02  0.51100000000E-03 0.  1.
         11    1    1    2    0    0  0.74818403236E+00  0.13644112933E+02 -0.67748960230E+01  0.15251911797E+02  0.51100000000E-03 0. -1.
<mgrwt>
<rscale>  0 0.33625628E+02</rscale>
<asrwt>0</asrwt>
<pdfrwt beam="2">  1        2 0.81189366E-02 0.33625628E+02</pdfrwt>
<pdfrwt beam="1">  1       -2 0.82405264E-03 0.33625628E+02</pdfrwt>
<totfact> 0.13948701E+06</totfact>
</mgrwt>
</event>
<event>
 4    1  0.1433582E+000  0.2320292E+02  0.7818608E-02  0.1688242E+00
         -2   -1    0    0    0  501 -0.00000000000E+00  0.00000000000E+00  0.66974458711E+01  0.66974463758E+01  0.26000000000E-02 0.  1.
          2   -1    0    0  501    0  0.00000000000E+00 -0.00000000000E+00 -0.20096294785E+02  0.20096294953E+02  0.26000000000E-02 0. -1.
        -11    1    1    2    0    0  0.78649153025E+01 -0.81348246503E+01 -0.37414439441E+01  0.11917662013E+02  0.51100000000E-03 0.  1.
         11    1    1    2    0    0 -0.78649153025E+01  0.81348246503E+01 -0.96574049698E+01  0.14876079316E+02  0.51100000000E-03 0. -1.
<mgrwt>
<rscale>  0 0.23202918E+02</rscale>
<asrwt>0</asrwt>
<pdfrwt beam="2">  1        2 0.30917377E-02 0.23202918E+02</pdfrwt>
<pdfrwt beam="1">  1       -2 0.10303763E-02 0.23202918E+02</pdfrwt>
<totfact> 0.29684606E+06</totfact>
</mgrwt>
</event>
<event>
 4    1  0.1433582E+000  0.5829493E+02  0.7818608E-02  0.1405130E+00
          2   -1    0    0  501    0  0.00000000000E+00  0.00000000000E+00  0.18236483453E+03  0.18236483455E+03  0.26000000000E-02 0.  1.
         -2   -1    0    0    0  501 -0.00000000000E+00 -0.00000000000E+00 -0.46586542772E+01  0.46586550027E+01  0.26000000000E-02 0. -1.
        -11    1    1    2    0    0  0.16019988812E+02  0.23809626183E+02  0.10522337352E+03  0.10906647824E+03  0.51100000000E-03 0.  1.
         11    1    1    2    0    0 -0.16019988812E+02 -0.23809626183E+02  0.72482806736E+02  0.77957011315E+02  0.51100000000E-03 0. -1.
<mgrwt>
<rscale>  0 0.58294932E+02</rscale>
<asrwt>0</asrwt>
<pdfrwt beam="1">  1        2 0.28056122E-01 0.58294932E+02</pdfrwt>
<pdfrwt beam="2">  1       -2 0.71671625E-03 0.58294932E+02</pdfrwt>
<totfact> 0.48425528E+05</totfact>
</mgrwt>
</event>
<event>
 4    1  0.1433582E+000  0.2806466E+02  0.7818608E-02  0.1620522E+00
          2   -1    0    0  501    0  0.00000000000E+00  0.00000000000E+00  0.54836842885E+01  0.54836849049E+01  0.26000000000E-02 0. -1.
         -2   -1    0    0    0  501 -0.00000000000E+00 -0.00000000000E+00 -0.35907669921E+02  0.35907670015E+02  0.26000000000E-02 0.  1.
        -11    1    1    2    0    0 -0.10037281418E+02 -0.78812955673E+01 -0.66065487015E+01  0.14370397492E+02  0.51100000000E-03 0. -1.
         11    1    1    2    0    0  0.10037281418E+02  0.78812955673E+01 -0.23817436931E+02  0.27020957427E+02  0.51100000000E-03 0.  1.
<mgrwt>
<rscale>  0 0.28064664E+02</rscale>
<asrwt>0</asrwt>
<pdfrwt beam="1">  1        2 0.84364381E-03 0.28064664E+02</pdfrwt>
<pdfrwt beam="2">  1       -2 0.55242568E-02 0.28064664E+02</pdfrwt>
<totfact> 0.16587064E+06</totfact>
</mgrwt>
</event>
<event>
 4    1  0.1433582E+000  0.2347735E+02  0.7818608E-02  0.1683887E+00
          2   -1    0    0  501    0  0.00000000000E+00  0.00000000000E+00  0.24416140175E+01  0.24416154019E+01  0.26000000000E-02 0. -1.
         -2   -1    0    0    0  501 -0.00000000000E+00 -0.00000000000E+00 -0.56436637353E+02  0.56436637413E+02  0.26000000000E-02 0.  1.
        -11    1    1    2    0    0  0.51378708734E+01  0.95029580998E+01 -0.15479677719E+02  0.18876555626E+02  0.51100000000E-03 0. -1.
         11    1    1    2    0    0 -0.51378708734E+01 -0.95029580998E+01 -0.38515345617E+02  0.40001697189E+02  0.51100000000E-03 0.  1.
<mgrwt>
<rscale>  0 0.23477353E+02</rscale>
<asrwt>0</asrwt>
<pdfrwt beam="1">  1        2 0.37563308E-03 0.23477353E+02</pdfrwt>
<pdfrwt beam="2">  1       -2 0.86825587E-02 0.23477353E+02</pdfrwt>
<totfact> 0.23343047E+06</totfact>
</mgrwt>
</event>
<event>
 4    1  0.1433582E+000  0.2305833E+02  0.7818608E-02  0.1690566E+00
          2   -1    0    0  501    0  0.00000000000E+00  0.00000000000E+00  0.92223620711E+01  0.92223624376E+01  0.26000000000E-02 0.  1.
         -2   -1    0    0    0  501 -0.00000000000E+00 -0.00000000000E+00 -0.14412973536E+02  0.14412973771E+02  0.26000000000E-02 0. -1.
        -11    1    1    2    0    0  0.10560723103E+02  0.45719041074E+01 -0.33131792858E+01  0.11975321994E+02  0.51100000000E-03 0.  1.
         11    1    1    2    0    0 -0.10560723103E+02 -0.45719041074E+01 -0.18774321795E+01  0.11660014214E+02  0.51100000000E-03 0. -1.
<mgrwt>
<rscale>  0 0.23058332E+02</rscale>
<asrwt>0</asrwt>
<pdfrwt beam="1">  1        2 0.14188250E-02 0.23058332E+02</pdfrwt>
<pdfrwt beam="2">  1       -2 0.22173806E-02 0.23058332E+02</pdfrwt>
<totfact> 0.28177583E+06</totfact>
</mgrwt>
</event>
<event>
 4    1  0.1433582E+000  0.3285139E+02  0.7818608E-02  0.1568553E+00
         -2   -1    0    0    0  501 -0.00000000000E+00  0.00000000000E+00  0.30724854338E+02  0.30724854448E+02  0.26000000000E-02 0. -1.
          2   -1    0    0  501    0  0.00000000000E+00 -0.00000000000E+00 -0.87812746326E+01  0.87812750176E+01  0.26000000000E-02 0.  1.
        -11    1    1    2    0    0 -0.11499392667E+02  0.23390701901E+01  0.24793309683E+02  0.27430192969E+02  0.51100000000E-03 0. -1.
         11    1    1    2    0    0  0.11499392667E+02 -0.23390701901E+01 -0.28497299773E+01  0.12075936496E+02  0.51100000000E-03 0.  1.
<mgrwt>
<rscale>  0 0.32851386E+02</rscale>
<asrwt>0</asrwt>
<pdfrwt beam="2">  1        2 0.13509653E-02 0.32851386E+02</pdfrwt>
<pdfrwt beam="1">  1       -2 0.47269008E-02 0.32851386E+02</pdfrwt>
<totfact> 0.11774333E+06</totfact>
</mgrwt>
</event>
<event>
 4    1  0.1433582E+000  0.3068797E+02  0.7818608E-02  0.1590606E+00
          2   -1    0    0  501    0  0.00000000000E+00  0.00000000000E+00  0.12389845915E+03  0.12389845918E+03  0.26000000000E-02 0.  1.
         -2   -1    0    0    0  501 -0.00000000000E+00 -0.00000000000E+00 -0.19002477647E+01  0.19002495434E+01  0.26000000000E-02 0. -1.
        -11    1    1    2    0    0  0.10848094393E+02 -0.98160335860E+01  0.42034780796E+02  0.44507959560E+02  0.51100000000E-03 0. -1.
         11    1    1    2    0    0 -0.10848094393E+02  0.98160335860E+01  0.79963430592E+02  0.81290749163E+02  0.51100000000E-03 0.  1.
<mgrwt>
<rscale>  0 0.30687971E+02</rscale>
<asrwt>0</asrwt>
<pdfrwt beam="1">  1        2 0.19061311E-01 0.30687971E+02</pdfrwt>
<pdfrwt beam="2">  1       -2 0.29234581E-03 0.30687971E+02</pdfrwt>
<totfact> 0.20910923E+06</totfact>
</mgrwt>
</event>
<event>
 4    1  0.1433582E+000  0.3545984E+02  0.7818608E-02  0.1544555E+00
         -2   -1    0    0    0  501 -0.00000000000E+00  0.00000000000E+00  0.10522884705E+03  0.10522884709E+03  0.26000000000E-02 0. -1.
          2   -1    0    0  501    0  0.00000000000E+00 -0.00000000000E+00 -0.29872992223E+01  0.29873003538E+01  0.26000000000E-02 0.  1.
        -11    1    1    2    0    0  0.14000956594E+02 -0.99398322227E+01  0.64605100621E+02  0.66847932479E+02  0.51100000000E-03 0.  1.
         11    1    1    2    0    0 -0.14000956594E+02  0.99398322227E+01  0.37636447210E+02  0.41368214961E+02  0.51100000000E-03 0. -1.
<mgrwt>
<rscale>  0 0.35459843E+02</rscale>
<asrwt>0</asrwt>
<pdfrwt beam="2">  1        2 0.45958473E-03 0.35459843E+02</pdfrwt>
<pdfrwt beam="1">  1       -2 0.16189048E-01 0.35459843E+02</pdfrwt>
<totfact> 0.79629129E+05</totfact>
</mgrwt>
</event>
<event>
 4    1  0.1433582E+000  0.5238519E+02  0.7818608E-02  0.1432885E+00
          2   -1    0    0  501    0  0.00000000000E+00  0.00000000000E+00  0.12456820928E+02  0.12456821199E+02  0.26000000000E-02 0. -1.
         -2   -1    0    0    0  501 -0.00000000000E+00 -0.00000000000E+00 -0.55074401144E+02  0.55074401205E+02  0.26000000000E-02 0.  1.
        -11    1    1    2    0    0 -0.24649234309E+02 -0.62189106836E+01 -0.29440763833E+02  0.38897534337E+02  0.51100000000E-03 0. -1.
         11    1    1    2    0    0  0.24649234309E+02  0.62189106836E+01 -0.13176816383E+02  0.28633688068E+02  0.51100000000E-03 0.  1.
<mgrwt>
<rscale>  0 0.52385187E+02</rscale>
<asrwt>0</asrwt>
<pdfrwt beam="1">  1        2 0.19164340E-02 0.52385187E+02</pdfrwt>
<pdfrwt beam="2">  1       -2 0.84729847E-02 0.52385187E+02</pdfrwt>
<totfact> 0.35820197E+05</totfact>
</mgrwt>
</event>
<event>
 4    1  0.1433582E+000  0.3090740E+02  0.7818608E-02  0.1588270E+00
         -2   -1    0    0    0  501 -0.00000000000E+00  0.00000000000E+00  0.22993526657E+02  0.22993526804E+02  0.26000000000E-02 0. -1.
          2   -1    0    0  501    0  0.00000000000E+00 -0.00000000000E+00 -0.10386264728E+02  0.10386265053E+02  0.26000000000E-02 0.  1.
        -11    1    1    2    0    0 -0.12509291718E+02  0.46761655440E+01  0.14701784094E+02  0.19861806547E+02  0.51100000000E-03 0. -1.
         11    1    1    2    0    0  0.12509291718E+02 -0.46761655440E+01 -0.20945221653E+01  0.13517985310E+02  0.51100000000E-03 0.  1.
<mgrwt>
<rscale>  0 0.30907401E+02</rscale>
<asrwt>0</asrwt>
<pdfrwt beam="2">  1        2 0.15978869E-02 0.30907401E+02</pdfrwt>
<pdfrwt beam="1">  1       -2 0.35374656E-02 0.30907401E+02</pdfrwt>
<totfact> 0.13997667E+06</totfact>
</mgrwt>
</event>
<event>
 4    1  0.1433582E+000  0.2128302E+02  0.7818608E-02  0.1720955E+00
         -2   -1    0    0    0  501 -0.00000000000E+00  0.00000000000E+00  0.12637542480E+01  0.12637569226E+01  0.26000000000E-02 0.  1.
          2   -1    0    0  501    0  0.00000000000E+00 -0.00000000000E+00 -0.89607318442E+02  0.89607318479E+02  0.26000000000E-02 0. -1.
        -11    1    1    2    0    0 -0.14380497264E+00 -0.10149632733E+02 -0.30531581573E+02  0.32174729184E+02  0.51100000000E-03 0. -1.
         11    1    1    2    0    0  0.14380497264E+00  0.10149632733E+02 -0.57811982621E+02  0.58696346218E+02  0.51100000000E-03 0.  1.
<mgrwt>
<rscale>  0 0.21283022E+02</rscale>
<asrwt>0</asrwt>
<pdfrwt beam="2">  1        2 0.13785737E-01 0.21283022E+02</pdfrwt>
<pdfrwt beam="1">  1       -2 0.19442401E-03 0.21283022E+02</pdfrwt>
<totfact> 0.44850116E+06</totfact>
</mgrwt>
</event>
<event>
 4    1  0.1433582E+000  0.7055272E+02  0.7818608E-02  0.1358224E+00
          2   -1    0    0  501    0  0.00000000000E+00  0.00000000000E+00  0.10853611275E+03  0.10853611278E+03  0.26000000000E-02 0.  1.
         -2   -1    0    0    0  501 -0.00000000000E+00 -0.00000000000E+00 -0.11465506651E+02  0.11465506946E+02  0.26000000000E-02 0. -1.
        -11    1    1    2    0    0 -0.14662169430E+02 -0.95521942135E+01  0.10063324696E+03  0.10214339930E+03  0.51100000000E-03 0.  1.
         11    1    1    2    0    0  0.14662169430E+02  0.95521942135E+01 -0.35626408596E+01  0.17858220427E+02  0.51100000000E-03 0. -1.
<mgrwt>
<rscale>  0 0.70552719E+02</rscale>
<asrwt>0</asrwt>
<pdfrwt beam="1">  1        2 0.16697864E-01 0.70552719E+02</pdfrwt>
<pdfrwt beam="2">  1       -2 0.17639241E-02 0.70552719E+02</pdfrwt>
<totfact> 0.25104538E+05</totfact>
</mgrwt>
</event>
<event>
 4    1  0.1433582E+000  0.2844776E+02  0.7818608E-02  0.1615909E+00
         -2   -1    0    0    0  501 -0.00000000000E+00  0.00000000000E+00  0.14671346045E+01  0.14671369083E+01  0.26000000000E-02 0. -1.
          2   -1    0    0  501    0  0.00000000000E+00 -0.00000000000E+00 -0.13790051950E+03  0.13790051952E+03  0.26000000000E-02 0.  1.
        -11    1    1    2    0    0 -0.12745676235E+02  0.58589325362E+01 -0.56686234611E+02  0.58396134699E+02  0.51100000000E-03 0. -1.
         11    1    1    2    0    0  0.12745676235E+02 -0.58589325362E+01 -0.79747150280E+02  0.80971521729E+02  0.51100000000E-03 0.  1.
<mgrwt>
<rscale>  0 0.28447762E+02</rscale>
<asrwt>0</asrwt>
<pdfrwt beam="2">  1        2 0.21215454E-01 0.28447762E+02</pdfrwt>
<pdfrwt beam="1">  1       -2 0.22571330E-03 0.28447762E+02</pdfrwt>
<totfact> 0.25715418E+06</totfact>
</mgrwt>
</event>
<event>
 4    1  0.1433582E+000  0.2159534E+02  0.7818608E-02  0.1715346E+00
          2   -1    0    0  501    0  0.00000000000E+00  0.00000000000E+00  0.14320448457E+02  0.14320448693E+02  0.26000000000E-02 0. -1.
         -2   -1    0    0    0  501 -0.00000000000E+00 -0.00000000000E+00 -0.81414824392E+01  0.81414828543E+01  0.26000000000E-02 0.  1.
        -11    1    1    2    0    0  0.66547981663E+01 -0.79693338604E+01  0.51788535248E-02  0.10382516453E+02  0.51100000000E-03 0.  1.
         11    1    1    2    0    0 -0.66547981663E+01  0.79693338604E+01  0.61737871642E+01  0.12079415094E+02  0.51100000000E-03 0. -1.
<mgrwt>
<rscale>  0 0.21595341E+02</rscale>
<asrwt>0</asrwt>
<pdfrwt beam="1">  1        2 0.22031460E-02 0.21595341E+02</pdfrwt>
<pdfrwt beam="2">  1       -2 0.12525358E-02 0.21595341E+02</pdfrwt>
<totfact> 0.34015999E+06</totfact>
</mgrwt>
</event>
<event>
 4    1  0.1433582E+000  0.2568811E+02  0.7818608E-02  0.1651311E+00
          2   -1    0    0  501    0  0.00000000000E+00  0.00000000000E+00  0.19901953204E+02  0.19901953374E+02  0.26000000000E-02 0.  1.
         -2   -1    0    0    0  501 -0.00000000000E+00 -0.00000000000E+00 -0.82891257861E+01  0.82891261939E+01  0.26000000000E-02 0. -1.
        -11    1    1    2    0    0  0.88877662941E+01  0.92714604536E+01  0.56615157503E+01  0.14035851577E+02  0.51100000000E-03 0. -1.
         11    1    1    2    0    0 -0.88877662941E+01 -0.92714604536E+01  0.59513116675E+01  0.14155227991E+02  0.51100000000E-03 0.  1.
<mgrwt>
<rscale>  0 0.25688114E+02</rscale>
<asrwt>0</asrwt>
<pdfrwt beam="1">  1        2 0.30618390E-02 0.25688114E+02</pdfrwt>
<pdfrwt beam="2">  1       -2 0.12752502E-02 0.25688114E+02</pdfrwt>
<totfact> 0.23375489E+06</totfact>
</mgrwt>
</event>
<event>
 4    1  0.1433582E+000  0.7257244E+02  0.7818608E-02  0.1351558E+00
         -2   -1    0    0    0  501 -0.00000000000E+00  0.00000000000E+00  0.13831562594E+02  0.13831562839E+02  0.26000000000E-02 0. -1.
          2   -1    0    0  501    0  0.00000000000E+00 -0.00000000000E+00 -0.95194582280E+02  0.95194582315E+02  0.26000000000E-02 0.  1.
        -11    1    1    2    0    0 -0.13415623250E+02 -0.30717323212E+02 -0.61560720900E+02  0.70094616416E+02  0.51100000000E-03 0.  1.
         11    1    1    2    0    0  0.13415623250E+02  0.30717323212E+02 -0.19802298785E+02  0.38931528738E+02  0.51100000000E-03 0. -1.
<mgrwt>
<rscale>  0 0.72572442E+02</rscale>
<asrwt>0</asrwt>
<pdfrwt beam="2">  1        2 0.14645320E-01 0.72572442E+02</pdfrwt>
<pdfrwt beam="1">  1       -2 0.21279328E-02 0.72572442E+02</pdfrwt>
<totfact> 0.22440810E+05</totfact>
</mgrwt>
</event>
<event>
 4    1  0.1433582E+000  0.3523227E+02  0.7818608E-02  0.1546548E+00
         -2   -1    0    0    0  501 -0.00000000000E+00  0.00000000000E+00  0.18698429315E+02  0.18698429495E+02  0.26000000000E-02 0. -1.
          2   -1    0    0  501    0  0.00000000000E+00 -0.00000000000E+00 -0.16596488022E+02  0.16596488226E+02  0.26000000000E-02 0.  1.
        -11    1    1    2    0    0 -0.10203564659E+02 -0.73291482115E+01 -0.11320039967E+02  0.16910719984E+02  0.51100000000E-03 0.  1.
         11    1    1    2    0    0  0.10203564659E+02  0.73291482115E+01  0.13421981259E+02  0.18384197737E+02  0.51100000000E-03 0. -1.
<mgrwt>
<rscale>  0 0.35232273E+02</rscale>
<asrwt>0</asrwt>
<pdfrwt beam="2">  1        2 0.25533059E-02 0.35232273E+02</pdfrwt>
<pdfrwt beam="1">  1       -2 0.28766815E-02 0.35232273E+02</pdfrwt>
<totfact> 0.10626873E+06</totfact>
</mgrwt>
</event>
<event>
 4    1  0.1433582E+000  0.2790995E+02  0.7818608E-02  0.1622411E+00
         -2   -1    0    0    0  501 -0.00000000000E+00  0.00000000000E+00  0.39176922996E+02  0.39176923082E+02  0.26000000000E-02 0. -1.
          2   -1    0    0  501    0  0.00000000000E+00 -0.00000000000E+00 -0.49708166023E+01  0.49708172823E+01  0.26000000000E-02 0.  1.
        -11    1    1    2    0    0  0.76619403970E+00 -0.99765691787E+01  0.17163260420E+01  0.10152081620E+02  0.51100000000E-03 0.  1.
         11    1    1    2    0    0 -0.76619403970E+00  0.99765691787E+01  0.32489780352E+02  0.33995658744E+02  0.51100000000E-03 0. -1.
<mgrwt>
<rscale>  0 0.27909949E+02</rscale>
<asrwt>0</asrwt>
<pdfrwt beam="2">  1        2 0.76474108E-03 0.27909949E+02</pdfrwt>
<pdfrwt beam="1">  1       -2 0.60272190E-02 0.27909949E+02</pdfrwt>
<totfact> 0.16616125E+06</totfact>
</mgrwt>
</event>
<event>
 4    1  0.1433582E+000  0.3752778E+02  0.7818608E-02  0.1527235E+00
          2   -1    0    0  501    0  0.00000000000E+00  0.00000000000E+00  0.16271191000E+02  0.16271191207E+02  0.26000000000E-02 0.  1.
         -2   -1    0    0    0  501 -0.00000000000E+00 -0.00000000000E+00 -0.21638465052E+02  0.21638465208E+02  0.26000000000E-02 0. -1.
        -11    1    1    2    0    0 -0.16289443792E+02  0.11959149905E+01 -0.12013823784E+02  0.20275802176E+02  0.51100000000E-03 0. -1.
         11    1    1    2    0    0  0.16289443792E+02 -0.11959149905E+01  0.66465497319E+01  0.17633854239E+02  0.51100000000E-03 0.  1.
<mgrwt>
<rscale>  0 0.37527782E+02</rscale>
<asrwt>0</asrwt>
<pdfrwt beam="1">  1        2 0.25032602E-02 0.37527782E+02</pdfrwt>
<pdfrwt beam="2">  1       -2 0.33289947E-02 0.37527782E+02</pdfrwt>
<totfact> 0.90366392E+05</totfact>
</mgrwt>
</event>
<event>
 4    1  0.1433582E+000  0.2764307E+02  0.7818608E-02  0.1625705E+00
         -2   -1    0    0    0  501 -0.00000000000E+00  0.00000000000E+00  0.41135992912E+01  0.41136001128E+01  0.26000000000E-02 0. -1.
          2   -1    0    0  501    0  0.00000000000E+00 -0.00000000000E+00 -0.46439803557E+02  0.46439803630E+02  0.26000000000E-02 0.  1.
        -11    1    1    2    0    0  0.56532235831E+01  0.11091558248E+02 -0.32143950484E+02  0.34470496867E+02  0.51100000000E-03 0.  1.
         11    1    1    2    0    0 -0.56532235831E+01 -0.11091558248E+02 -0.10182253782E+02  0.16082906876E+02  0.51100000000E-03 0. -1.
<mgrwt>
<rscale>  0 0.27643065E+02</rscale>
<asrwt>0</asrwt>
<pdfrwt beam="2">  1        2 0.71445849E-02 0.27643065E+02</pdfrwt>
<pdfrwt beam="1">  1       -2 0.63286153E-03 0.27643065E+02</pdfrwt>
<totfact> 0.21812935E+06</totfact>
</mgrwt>
</event>
<event>
 4    1  0.1433582E+000  0.2621170E+02  0.7818608E-02  0.1644184E+00
          2   -1    0    0  501    0  0.00000000000E+00  0.00000000000E+00  0.69698527500E+01  0.69698532350E+01  0.26000000000E-02 0.  1.
         -2   -1    0    0    0  501 -0.00000000000E+00 -0.00000000000E+00 -0.24643741222E+02  0.24643741359E+02  0.26000000000E-02 0. -1.
        -11    1    1    2    0    0  0.64846561772E+01  0.77947883742E+01 -0.18852100831E+02  0.21405868297E+02  0.51100000000E-03 0. -1.
         11    1    1    2    0    0 -0.64846561772E+01 -0.77947883742E+01  0.11782123591E+01  0.10207726297E+02  0.51100000000E-03 0.  1.
<mgrwt>
<rscale>  0 0.26211696E+02</rscale>
<asrwt>0</asrwt>
<pdfrwt beam="1">  1        2 0.10722851E-02 0.26211696E+02</pdfrwt>
<pdfrwt beam="2">  1       -2 0.37913448E-02 0.26211696E+02</pdfrwt>
<totfact> 0.20186200E+06</totfact>
</mgrwt>
</event>
<event>
 4    1  0.1433582E+000  0.4228975E+02  0.7818608E-02  0.1492007E+00
         -2   -1    0    0    0  501 -0.00000000000E+00  0.00000000000E+00  0.23034130563E+02  0.23034130710E+02  0.26000000000E-02 0.  1.
          2   -1    0    0  501    0  0.00000000000E+00 -0.00000000000E+00 -0.19410573784E+02  0.19410573959E+02  0.26000000000E-02 0. -1.
        -11    1    1    2    0    0 -0.19677650593E+02 -0.43794292025E+00  0.95669252301E+01  0.21884418784E+02  0.51100000000E-03 0. -1.
         11    1    1    2    0    0  0.19677650593E+02  0.43794292025E+00 -0.59433684510E+01  0.20560285885E+02  0.51100000000E-03 0.  1.
<mgrwt>
<rscale>  0 0.42289748E+02</rscale>
<asrwt>0</asrwt>
<pdfrwt beam="2">  1        2 0.29862421E-02 0.42289748E+02</pdfrwt>
<pdfrwt beam="1">  1       -2 0.35437124E-02 0.42289748E+02</pdfrwt>
<totfact> 0.68058926E+05</totfact>
</mgrwt>
</event>
<event>
 4    1  0.1433582E+000  0.3246894E+02  0.7818608E-02  0.1572299E+00
         -2   -1    0    0    0  501 -0.00000000000E+00  0.00000000000E+00  0.11992242524E+02  0.11992242805E+02  0.26000000000E-02 0.  1.
          2   -1    0    0  501    0  0.00000000000E+00 -0.00000000000E+00 -0.21977369805E+02  0.21977369958E+02  0.26000000000E-02 0. -1.
        -11    1    1    2    0    0  0.93662940809E+01 -0.78504342487E+01 -0.16172975898E+02  0.20271209445E+02  0.51100000000E-03 0. -1.
         11    1    1    2    0    0 -0.93662940809E+01  0.78504342487E+01  0.61878486174E+01  0.13698403319E+02  0.51100000000E-03 0.  1.
<mgrwt>
<rscale>  0 0.32468936E+02</rscale>
<asrwt>0</asrwt>
<pdfrwt beam="2">  1        2 0.33811339E-02 0.32468936E+02</pdfrwt>
<pdfrwt beam="1">  1       -2 0.18449604E-02 0.32468936E+02</pdfrwt>
<totfact> 0.13441756E+06</totfact>
</mgrwt>
</event>
<event>
 4    1  0.1433582E+000  0.2346769E+02  0.7818608E-02  0.1684039E+00
         -2   -1    0    0    0  501 -0.00000000000E+00  0.00000000000E+00  0.26069843773E+01  0.26069856738E+01  0.26000000000E-02 0.  1.
          2   -1    0    0  501    0  0.00000000000E+00 -0.00000000000E+00 -0.52813148405E+02  0.52813148469E+02  0.26000000000E-02 0. -1.
        -11    1    1    2    0    0  0.92335577363E+01  0.51024233104E+01 -0.37234599921E+02  0.38700242165E+02  0.51100000000E-03 0. -1.
         11    1    1    2    0    0 -0.92335577363E+01 -0.51024233104E+01 -0.12971564107E+02  0.16719891978E+02  0.51100000000E-03 0.  1.
<mgrwt>
<rscale>  0 0.23467688E+02</rscale>
<asrwt>0</asrwt>
<pdfrwt beam="2">  1        2 0.81250990E-02 0.23467688E+02</pdfrwt>
<pdfrwt beam="1">  1       -2 0.40107466E-03 0.23467688E+02</pdfrwt>
<totfact> 0.32558567E+06</totfact>
</mgrwt>
</event>
<event>
 4    1  0.1433582E+000  0.2548775E+02  0.7818608E-02  0.1654093E+00
          2   -1    0    0  501    0  0.00000000000E+00  0.00000000000E+00  0.32993758431E+02  0.32993758533E+02  0.26000000000E-02 0.  1.
         -2   -1    0    0    0  501 -0.00000000000E+00 -0.00000000000E+00 -0.49223350675E+01  0.49223357542E+01  0.26000000000E-02 0. -1.
        -11    1    1    2    0    0 -0.11710781378E+02 -0.17542725915E+01  0.70286448365E+01  0.13770320305E+02  0.51100000000E-03 0. -1.
         11    1    1    2    0    0  0.11710781378E+02  0.17542725915E+01  0.21042778527E+02  0.24145773982E+02  0.51100000000E-03 0.  1.
<mgrwt>
<rscale>  0 0.25487750E+02</rscale>
<asrwt>0</asrwt>
<pdfrwt beam="1">  1        2 0.50759626E-02 0.25487750E+02</pdfrwt>
<pdfrwt beam="2">  1       -2 0.75728242E-03 0.25487750E+02</pdfrwt>
<totfact> 0.25169212E+06</totfact>
</mgrwt>
</event>
<event>
 4    1  0.1433582E+000  0.4661705E+02  0.7818608E-02  0.1464492E+00
          2   -1    0    0  501    0  0.00000000000E+00  0.00000000000E+00  0.46759734727E+01  0.46759741956E+01  0.26000000000E-02 0. -1.
         -2   -1    0    0    0  501 -0.00000000000E+00 -0.00000000000E+00 -0.11618701497E+03  0.11618701500E+03  0.26000000000E-02 0.  1.
        -11    1    1    2    0    0  0.66423273195E+01 -0.21503395024E+02 -0.71477269043E+02  0.74936749996E+02  0.51100000000E-03 0. -1.
         11    1    1    2    0    0 -0.66423273195E+01  0.21503395024E+02 -0.40033772455E+02  0.45926239199E+02  0.51100000000E-03 0.  1.
<mgrwt>
<rscale>  0 0.46617055E+02</rscale>
<asrwt>0</asrwt>
<pdfrwt beam="1">  1        2 0.71938068E-03 0.46617055E+02</pdfrwt>
<pdfrwt beam="2">  1       -2 0.17874923E-01 0.46617055E+02</pdfrwt>
<totfact> 0.40236443E+05</totfact>
</mgrwt>
</event>
<event>
 4    1  0.1433582E+000  0.1995088E+03  0.7818608E-02  0.1150154E+00
         -2   -1    0    0    0  501 -0.00000000000E+00  0.00000000000E+00  0.18796031804E+03  0.18796031806E+03  0.26000000000E-02 0.  1.
          2   -1    0    0  501    0  0.00000000000E+00 -0.00000000000E+00 -0.52941733212E+02  0.52941733276E+02  0.26000000000E-02 0. -1.
        -11    1    1    2    0    0 -0.80982249759E+02 -0.23926735615E+02  0.13163444674E+03  0.15639130738E+03  0.51100000000E-03 0.  1.
         11    1    1    2    0    0  0.80982249759E+02  0.23926735615E+02  0.33841380822E+01  0.84510743956E+02  0.51100000000E-03 0. -1.
<mgrwt>
<rscale>  0 0.19950885E+03</rscale>
<asrwt>0</asrwt>
<pdfrwt beam="2">  1        2 0.81448819E-02 0.19950885E+03</pdfrwt>
<pdfrwt beam="1">  1       -2 0.28916973E-01 0.19950885E+03</pdfrwt>
<totfact> 0.88131013E+03</totfact>
</mgrwt>
</event>
<event>
 4    1  0.1433582E+000  0.2107298E+02  0.7818608E-02  0.1724796E+00
          2   -1    0    0  501    0  0.00000000000E+00  0.00000000000E+00  0.49440016052E+02  0.49440016120E+02  0.26000000000E-02 0. -1.
         -2   -1    0    0    0  501 -0.00000000000E+00 -0.00000000000E+00 -0.22455012088E+01  0.22455027141E+01  0.26000000000E-02 0.  1.
        -11    1    1    2    0    0  0.71884126414E+01 -0.76468314908E+01  0.25885432968E+02  0.27932113210E+02  0.51100000000E-03 0.  1.
         11    1    1    2    0    0 -0.71884126414E+01  0.76468314908E+01  0.21309081875E+02  0.23753405624E+02  0.51100000000E-03 0. -1.
<mgrwt>
<rscale>  0 0.21072983E+02</rscale>
<asrwt>0</asrwt>
<pdfrwt beam="1">  1        2 0.76061562E-02 0.21072983E+02</pdfrwt>
<pdfrwt beam="2">  1       -2 0.34546186E-03 0.21072983E+02</pdfrwt>
<totfact> 0.41141127E+06</totfact>
</mgrwt>
</event>
<event>
 4    1  0.1433582E+000  0.2401085E+02  0.7818608E-02  0.1675630E+00
         -2   -1    0    0    0  501 -0.00000000000E+00  0.00000000000E+00  0.27055325689E+02  0.27055325814E+02  0.26000000000E-02 0. -1.
          2   -1    0    0  501    0  0.00000000000E+00 -0.00000000000E+00 -0.53272398069E+01  0.53272404414E+01  0.26000000000E-02 0.  1.
        -11    1    1    2    0    0 -0.11655344068E+02 -0.10109363324E+01  0.72298547266E+01  0.13752811976E+02  0.51100000000E-03 0. -1.
         11    1    1    2    0    0  0.11655344068E+02  0.10109363324E+01  0.14498231155E+02  0.18629754279E+02  0.51100000000E-03 0.  1.
<mgrwt>
<rscale>  0 0.24010849E+02</rscale>
<asrwt>0</asrwt>
<pdfrwt beam="2">  1        2 0.81957543E-03 0.24010849E+02</pdfrwt>
<pdfrwt beam="1">  1       -2 0.41623577E-02 0.24010849E+02</pdfrwt>
<totfact> 0.24342953E+06</totfact>
</mgrwt>
</event>
<event>
 4    1  0.1433582E+000  0.4776808E+02  0.7818608E-02  0.1457766E+00
          2   -1    0    0  501    0  0.00000000000E+00  0.00000000000E+00  0.29590330159E+02  0.29590330273E+02  0.26000000000E-02 0.  1.
         -2   -1    0    0    0  501 -0.00000000000E+00 -0.00000000000E+00 -0.19278171619E+02  0.19278171794E+02  0.26000000000E-02 0. -1.
        -11    1    1    2    0    0  0.34010583298E+01 -0.11268043445E+02 -0.16105159780E+02  0.19947736028E+02  0.51100000000E-03 0. -1.
         11    1    1    2    0    0 -0.34010583298E+01  0.11268043445E+02  0.26417318320E+02  0.28920766039E+02  0.51100000000E-03 0.  1.
<mgrwt>
<rscale>  0 0.47768084E+02</rscale>
<asrwt>0</asrwt>
<pdfrwt beam="1">  1        2 0.45523585E-02 0.47768084E+02</pdfrwt>
<pdfrwt beam="2">  1       -2 0.29658726E-02 0.47768084E+02</pdfrwt>
<totfact> 0.52763594E+05</totfact>
</mgrwt>
</event>
<event>
 4    1  0.1433582E+000  0.6578564E+02  0.7818608E-02  0.1375040E+00
          2   -1    0    0  501    0  0.00000000000E+00  0.00000000000E+00  0.96805848576E+02  0.96805848610E+02  0.26000000000E-02 0. -1.
         -2   -1    0    0    0  501 -0.00000000000E+00 -0.00000000000E+00 -0.11176364768E+02  0.11176365070E+02  0.26000000000E-02 0.  1.
        -11    1    1    2    0    0 -0.68255470848E+01  0.20229193207E+02  0.83887427828E+02  0.86561590204E+02  0.51100000000E-03 0. -1.
         11    1    1    2    0    0  0.68255470848E+01 -0.20229193207E+02  0.17420559794E+01  0.21420623476E+02  0.51100000000E-03 0.  1.
<mgrwt>
<rscale>  0 0.65785637E+02</rscale>
<asrwt>0</asrwt>
<pdfrwt beam="1">  1        2 0.14893207E-01 0.65785637E+02</pdfrwt>
<pdfrwt beam="2">  1       -2 0.17194408E-02 0.65785637E+02</pdfrwt>
<totfact> 0.29239111E+05</totfact>
</mgrwt>
</event>
<event>
 4    1  0.1433582E+000  0.4287981E+02  0.7818608E-02  0.1488029E+00
         -2   -1    0    0    0  501 -0.00000000000E+00  0.00000000000E+00  0.11100981450E+02  0.11100981755E+02  0.26000000000E-02 0. -1.
          2   -1    0    0  501    0  0.00000000000E+00 -0.00000000000E+00 -0.41408012485E+02  0.41408012567E+02  0.26000000000E-02 0.  1.
        -11    1    1    2    0    0 -0.12195555144E+02  0.86698264158E+01 -0.33956511579E+02  0.37107170927E+02  0.51100000000E-03 0.  1.
         11    1    1    2    0    0  0.12195555144E+02 -0.86698264158E+01  0.36494805446E+01  0.15401823394E+02  0.51100000000E-03 0. -1.
<mgrwt>
<rscale>  0 0.42879813E+02</rscale>
<asrwt>0</asrwt>
<pdfrwt beam="2">  1        2 0.63704634E-02 0.42879813E+02</pdfrwt>
<pdfrwt beam="1">  1       -2 0.17078433E-02 0.42879813E+02</pdfrwt>
<totfact> 0.73407313E+05</totfact>
</mgrwt>
</event>
<event>
 4    1  0.1433582E+000  0.2851840E+02  0.7818608E-02  0.1615068E+00
         -2   -1    0    0    0  501 -0.00000000000E+00  0.00000000000E+00  0.42032892379E+01  0.42032900421E+01  0.26000000000E-02 0. -1.
          2   -1    0    0  501    0  0.00000000000E+00 -0.00000000000E+00 -0.48372775495E+02  0.48372775565E+02  0.26000000000E-02 0.  1.
        -11    1    1    2    0    0 -0.11712071717E+02 -0.79998868498E+01 -0.24790466147E+02  0.28561127876E+02  0.51100000000E-03 0. -1.
         11    1    1    2    0    0  0.11712071717E+02  0.79998868498E+01 -0.19379020110E+02  0.24014937730E+02  0.51100000000E-03 0.  1.
<mgrwt>
<rscale>  0 0.28518400E+02</rscale>
<asrwt>0</asrwt>
<pdfrwt beam="2">  1        2 0.74419651E-02 0.28518400E+02</pdfrwt>
<pdfrwt beam="1">  1       -2 0.64665998E-03 0.28518400E+02</pdfrwt>
<totfact> 0.20396150E+06</totfact>
</mgrwt>
</event>
<event>
 4    1  0.1433582E+000  0.5612655E+02  0.7818608E-02  0.1414845E+00
         -2   -1    0    0    0  501 -0.00000000000E+00  0.00000000000E+00  0.42848440727E+02  0.42848440806E+02  0.26000000000E-02 0. -1.
          2   -1    0    0  501    0  0.00000000000E+00 -0.00000000000E+00 -0.18379839555E+02  0.18379839739E+02  0.26000000000E-02 0.  1.
        -11    1    1    2    0    0  0.12427656159E+02 -0.58323802343E+01  0.38935306372E+02  0.41284638540E+02  0.51100000000E-03 0. -1.
         11    1    1    2    0    0 -0.12427656159E+02  0.58323802343E+01 -0.14466705200E+02  0.19943642005E+02  0.51100000000E-03 0.  1.
<mgrwt>
<rscale>  0 0.56126552E+02</rscale>
<asrwt>0</asrwt>
<pdfrwt beam="2">  1        2 0.28276677E-02 0.56126552E+02</pdfrwt>
<pdfrwt beam="1">  1       -2 0.65920677E-02 0.56126552E+02</pdfrwt>
<totfact> 0.31751615E+05</totfact>
</mgrwt>
</event>
<event>
 4    1  0.1433582E+000  0.3109346E+02  0.7818608E-02  0.1586307E+00
          2   -1    0    0  501    0  0.00000000000E+00  0.00000000000E+00  0.33106929558E+01  0.33106939768E+01  0.26000000000E-02 0.  1.
         -2   -1    0    0    0  501 -0.00000000000E+00 -0.00000000000E+00 -0.73006080267E+02  0.73006080313E+02  0.26000000000E-02 0. -1.
        -11    1    1    2    0    0 -0.13627070065E+02  0.74673426023E+01 -0.33638996082E+02  0.37054558448E+02  0.51100000000E-03 0.  1.
         11    1    1    2    0    0  0.13627070065E+02 -0.74673426023E+01 -0.36056391229E+02  0.39262215842E+02  0.51100000000E-03 0. -1.
<mgrwt>
<rscale>  0 0.31093456E+02</rscale>
<asrwt>0</asrwt>
<pdfrwt beam="1">  1        2 0.50933752E-03 0.31093456E+02</pdfrwt>
<pdfrwt beam="2">  1       -2 0.11231703E-01 0.31093456E+02</pdfrwt>
<totfact> 0.11749310E+06</totfact>
</mgrwt>
</event>
<event>
 4    1  0.1433582E+000  0.2704798E+02  0.7818608E-02  0.1633217E+00
          2   -1    0    0  501    0  0.00000000000E+00  0.00000000000E+00  0.21111781925E+01  0.21111797935E+01  0.26000000000E-02 0.  1.
         -2   -1    0    0    0  501 -0.00000000000E+00 -0.00000000000E+00 -0.86633255554E+02  0.86633255593E+02  0.26000000000E-02 0. -1.
        -11    1    1    2    0    0  0.11869873278E+02 -0.50719125027E+01 -0.29022649514E+02  0.31763695836E+02  0.51100000000E-03 0.  1.
         11    1    1    2    0    0 -0.11869873278E+02  0.50719125027E+01 -0.55499427848E+02  0.56980739551E+02  0.51100000000E-03 0. -1.
<mgrwt>
<rscale>  0 0.27047981E+02</rscale>
<asrwt>0</asrwt>
<pdfrwt beam="1">  1        2 0.32479684E-03 0.27047981E+02</pdfrwt>
<pdfrwt beam="2">  1       -2 0.13328191E-01 0.27047981E+02</pdfrwt>
<totfact> 0.15647171E+06</totfact>
</mgrwt>
</event>
<event>
 4    1  0.1433582E+000  0.2539460E+02  0.7818608E-02  0.1655398E+00
          2   -1    0    0  501    0  0.00000000000E+00  0.00000000000E+00  0.29913516418E+01  0.29913527717E+01  0.26000000000E-02 0. -1.
         -2   -1    0    0    0  501 -0.00000000000E+00 -0.00000000000E+00 -0.53895850539E+02  0.53895850601E+02  0.26000000000E-02 0.  1.
        -11    1    1    2    0    0  0.12229379049E+02  0.32915401008E+00 -0.17837317655E+02  0.21629515844E+02  0.51100000000E-03 0. -1.
         11    1    1    2    0    0 -0.12229379049E+02 -0.32915401008E+00 -0.33067181242E+02  0.35257687529E+02  0.51100000000E-03 0.  1.
<mgrwt>
<rscale>  0 0.25394604E+02</rscale>
<asrwt>0</asrwt>
<pdfrwt beam="1">  1        2 0.46020808E-03 0.25394604E+02</pdfrwt>
<pdfrwt beam="2">  1       -2 0.82916687E-02 0.25394604E+02</pdfrwt>
<totfact> 0.19701188E+06</totfact>
</mgrwt>
</event>
<event>
 4    1  0.1433582E+000  0.5666314E+02  0.7818608E-02  0.1412394E+00
          2   -1    0    0  501    0  0.00000000000E+00  0.00000000000E+00  0.25336788448E+02  0.25336788582E+02  0.26000000000E-02 0. -1.
         -2   -1    0    0    0  501 -0.00000000000E+00 -0.00000000000E+00 -0.31680331789E+02  0.31680331896E+02  0.26000000000E-02 0.  1.
        -11    1    1    2    0    0  0.27154277029E+02 -0.72697201920E+01 -0.67257302069E+01  0.28903962353E+02  0.51100000000E-03 0. -1.
         11    1    1    2    0    0 -0.27154277029E+02  0.72697201920E+01  0.38218686599E+00  0.28113158124E+02  0.51100000000E-03 0.  1.
<mgrwt>
<rscale>  0 0.56663140E+02</rscale>
<asrwt>0</asrwt>
<pdfrwt beam="1">  1        2 0.38979675E-02 0.56663140E+02</pdfrwt>
<pdfrwt beam="2">  1       -2 0.48738972E-02 0.56663140E+02</pdfrwt>
<totfact> 0.32726796E+05</totfact>
</mgrwt>
</event>
<event>
 4    1  0.1433582E+000  0.2236514E+02  0.7818608E-02  0.1702012E+00
         -2   -1    0    0    0  501 -0.00000000000E+00  0.00000000000E+00  0.58781587208E+01  0.58781592958E+01  0.26000000000E-02 0. -1.
          2   -1    0    0  501    0  0.00000000000E+00 -0.00000000000E+00 -0.21273653551E+02  0.21273653710E+02  0.26000000000E-02 0.  1.
        -11    1    1    2    0    0 -0.86886906154E+01 -0.67719810326E+01 -0.53635206317E+01  0.12252364080E+02  0.51100000000E-03 0.  1.
         11    1    1    2    0    0  0.86886906154E+01  0.67719810326E+01 -0.10031974199E+02  0.14899448926E+02  0.51100000000E-03 0. -1.
<mgrwt>
<rscale>  0 0.22365144E+02</rscale>
<asrwt>0</asrwt>
<pdfrwt beam="2">  1        2 0.32728698E-02 0.22365144E+02</pdfrwt>
<pdfrwt beam="1">  1       -2 0.90433218E-03 0.22365144E+02</pdfrwt>
<totfact> 0.32488971E+06</totfact>
</mgrwt>
</event>
<event>
 4    1  0.1433582E+000  0.2387028E+02  0.7818608E-02  0.1677779E+00
         -2   -1    0    0    0  501 -0.00000000000E+00  0.00000000000E+00  0.68478226143E+01  0.68478231079E+01  0.26000000000E-02 0. -1.
          2   -1    0    0  501    0  0.00000000000E+00 -0.00000000000E+00 -0.20801877137E+02  0.20801877299E+02  0.26000000000E-02 0.  1.
        -11    1    1    2    0    0  0.36159585441E+00 -0.11553574900E+02 -0.35346713395E+01  0.12087586453E+02  0.51100000000E-03 0. -1.
         11    1    1    2    0    0 -0.36159585441E+00  0.11553574900E+02 -0.10419383183E+02  0.15562113954E+02  0.51100000000E-03 0.  1.
<mgrwt>
<rscale>  0 0.23870281E+02</rscale>
<asrwt>0</asrwt>
<pdfrwt beam="2">  1        2 0.32002888E-02 0.23870281E+02</pdfrwt>
<pdfrwt beam="1">  1       -2 0.10535112E-02 0.23870281E+02</pdfrwt>
<totfact> 0.27885605E+06</totfact>
</mgrwt>
</event>
<event>
 4    1  0.1433582E+000  0.2397689E+02  0.7818608E-02  0.1676147E+00
          2   -1    0    0  501    0  0.00000000000E+00  0.00000000000E+00  0.28517136932E+02  0.28517137051E+02  0.26000000000E-02 0. -1.
         -2   -1    0    0    0  501 -0.00000000000E+00 -0.00000000000E+00 -0.50398759678E+01  0.50398766385E+01  0.26000000000E-02 0.  1.
        -11    1    1    2    0    0  0.78093679860E+01  0.82945007061E+01  0.65136015532E+01  0.13122956060E+02  0.51100000000E-03 0.  1.
         11    1    1    2    0    0 -0.78093679860E+01 -0.82945007061E+01  0.16963659411E+02  0.20434057629E+02  0.51100000000E-03 0. -1.
<mgrwt>
<rscale>  0 0.23976893E+02</rscale>
<asrwt>0</asrwt>
<pdfrwt beam="1">  1        2 0.43872519E-02 0.23976893E+02</pdfrwt>
<pdfrwt beam="2">  1       -2 0.77536559E-03 0.23976893E+02</pdfrwt>
<totfact> 0.28520698E+06</totfact>
</mgrwt>
</event>
<event>
 4    1  0.1433582E+000  0.2325632E+02  0.7818608E-02  0.1687389E+00
         -2   -1    0    0    0  501 -0.00000000000E+00  0.00000000000E+00  0.17826976359E+02  0.17826976549E+02  0.26000000000E-02 0. -1.
          2   -1    0    0  501    0  0.00000000000E+00 -0.00000000000E+00 -0.75848057979E+01  0.75848062436E+01  0.26000000000E-02 0.  1.
        -11    1    1    2    0    0 -0.10732604778E+02  0.24307420044E+01  0.92265558253E+01  0.14360593465E+02  0.51100000000E-03 0. -1.
         11    1    1    2    0    0  0.10732604778E+02 -0.24307420044E+01  0.10156147361E+01  0.11051189328E+02  0.51100000000E-03 0.  1.
<mgrwt>
<rscale>  0 0.23256325E+02</rscale>
<asrwt>0</asrwt>
<pdfrwt beam="2">  1        2 0.11668933E-02 0.23256325E+02</pdfrwt>
<pdfrwt beam="1">  1       -2 0.27426118E-02 0.23256325E+02</pdfrwt>
<totfact> 0.27161715E+06</totfact>
</mgrwt>
</event>
<event>
 4    1  0.1433582E+000  0.3522463E+02  0.7818608E-02  0.1546615E+00
          2   -1    0    0  501    0  0.00000000000E+00  0.00000000000E+00  0.26248146357E+02  0.26248146486E+02  0.26000000000E-02 0. -1.
         -2   -1    0    0    0  501 -0.00000000000E+00 -0.00000000000E+00 -0.11817736749E+02  0.11817737035E+02  0.26000000000E-02 0.  1.
        -11    1    1    2    0    0  0.14720960496E+02 -0.80385210748E+01  0.13021602194E+02  0.21234091056E+02  0.51100000000E-03 0. -1.
         11    1    1    2    0    0 -0.14720960496E+02  0.80385210748E+01  0.14088074134E+01  0.16831792465E+02  0.51100000000E-03 0.  1.
<mgrwt>
<rscale>  0 0.35224633E+02</rscale>
<asrwt>0</asrwt>
<pdfrwt beam="1">  1        2 0.40381763E-02 0.35224633E+02</pdfrwt>
<pdfrwt beam="2">  1       -2 0.18181134E-02 0.35224633E+02</pdfrwt>
<totfact> 0.11236843E+06</totfact>
</mgrwt>
</event>
<event>
 4    1  0.1433582E+000  0.2343504E+02  0.7818608E-02  0.1684554E+00
          2   -1    0    0  501    0  0.00000000000E+00  0.00000000000E+00  0.32453945824E+01  0.32453956239E+01  0.26000000000E-02 0. -1.
         -2   -1    0    0    0  501 -0.00000000000E+00 -0.00000000000E+00 -0.42306176598E+02  0.42306176678E+02  0.26000000000E-02 0.  1.
        -11    1    1    2    0    0  0.85006817791E+01 -0.66607065478E+01 -0.28368235791E+02  0.30354297959E+02  0.51100000000E-03 0. -1.
         11    1    1    2    0    0 -0.85006817791E+01  0.66607065478E+01 -0.10692546225E+02  0.15197274343E+02  0.51100000000E-03 0.  1.
<mgrwt>
<rscale>  0 0.23435039E+02</rscale>
<asrwt>0</asrwt>
<pdfrwt beam="1">  1        2 0.49929159E-03 0.23435039E+02</pdfrwt>
<pdfrwt beam="2">  1       -2 0.65086422E-02 0.23435039E+02</pdfrwt>
<totfact> 0.24422382E+06</totfact>
</mgrwt>
</event>
<event>
 4    1  0.1433582E+000  0.3857969E+02  0.7818608E-02  0.1518931E+00
         -2   -1    0    0    0  501 -0.00000000000E+00  0.00000000000E+00  0.31483107864E+02  0.31483107972E+02  0.26000000000E-02 0.  1.
          2   -1    0    0  501    0  0.00000000000E+00 -0.00000000000E+00 -0.11818977999E+02  0.11818978284E+02  0.26000000000E-02 0. -1.
        -11    1    1    2    0    0  0.16166012102E+02 -0.29968676728E+01 -0.14912840203E+01  0.16508939743E+02  0.51100000000E-03 0. -1.
         11    1    1    2    0    0 -0.16166012102E+02  0.29968676728E+01  0.21155413886E+02  0.26793146513E+02  0.51100000000E-03 0.  1.
<mgrwt>
<rscale>  0 0.38579692E+02</rscale>
<asrwt>0</asrwt>
<pdfrwt beam="2">  1        2 0.18183043E-02 0.38579692E+02</pdfrwt>
<pdfrwt beam="1">  1       -2 0.48435551E-02 0.38579692E+02</pdfrwt>
<totfact> 0.80820670E+05</totfact>
</mgrwt>
</event>
<event>
 4    1  0.1433582E+000  0.3017154E+02  0.7818608E-02  0.1596200E+00
         -2   -1    0    0    0  501 -0.00000000000E+00  0.00000000000E+00  0.10322380067E+02  0.10322380395E+02  0.26000000000E-02 0.  1.
          2   -1    0    0  501    0  0.00000000000E+00 -0.00000000000E+00 -0.22047278819E+02  0.22047278972E+02  0.26000000000E-02 0. -1.
        -11    1    1    2    0    0  0.65227025677E+01  0.88893129285E+01  0.51840351912E+01  0.12183585443E+02  0.51100000000E-03 0.  1.
         11    1    1    2    0    0 -0.65227025677E+01 -0.88893129285E+01 -0.16908933942E+02  0.20186073924E+02  0.51100000000E-03 0. -1.
<mgrwt>
<rscale>  0 0.30171536E+02</rscale>
<asrwt>0</asrwt>
<pdfrwt beam="2">  1        2 0.33918891E-02 0.30171536E+02</pdfrwt>
<pdfrwt beam="1">  1       -2 0.15880585E-02 0.30171536E+02</pdfrwt>
<totfact> 0.16082371E+06</totfact>
</mgrwt>
</event>
<event>
 4    1  0.1433582E+000  0.4394446E+02  0.7818608E-02  0.1481041E+00
         -2   -1    0    0    0  501 -0.00000000000E+00  0.00000000000E+00  0.84479764798E+01  0.84479768799E+01  0.26000000000E-02 0. -1.
          2   -1    0    0  501    0  0.00000000000E+00 -0.00000000000E+00 -0.57147280053E+02  0.57147280112E+02  0.26000000000E-02 0.  1.
        -11    1    1    2    0    0  0.74431306843E+01  0.67706682311E+01 -0.53506225883E+02  0.54444084630E+02  0.51100000000E-03 0.  1.
         11    1    1    2    0    0 -0.74431306843E+01 -0.67706682311E+01  0.48069223104E+01  0.11151172362E+02  0.51100000000E-03 0. -1.
<mgrwt>
<rscale>  0 0.43944460E+02</rscale>
<asrwt>0</asrwt>
<pdfrwt beam="2">  1        2 0.87918891E-02 0.43944460E+02</pdfrwt>
<pdfrwt beam="1">  1       -2 0.12996888E-02 0.43944460E+02</pdfrwt>
<totfact> 0.73093164E+05</totfact>
</mgrwt>
</event>
<event>
 4    1  0.1433582E+000  0.2286541E+02  0.7818608E-02  0.1693701E+00
         -2   -1    0    0    0  501 -0.00000000000E+00  0.00000000000E+00  0.98667680336E+02  0.98667680370E+02  0.26000000000E-02 0. -1.
          2   -1    0    0  501    0  0.00000000000E+00 -0.00000000000E+00 -0.13247154443E+01  0.13247179958E+01  0.26000000000E-02 0.  1.
        -11    1    1    2    0    0  0.11152415147E+02 -0.12236067681E+01  0.58285462953E+02  0.59355444308E+02  0.51100000000E-03 0. -1.
         11    1    1    2    0    0 -0.11152415147E+02  0.12236067681E+01  0.39057501939E+02  0.40636954058E+02  0.51100000000E-03 0.  1.
<mgrwt>
<rscale>  0 0.22865409E+02</rscale>
<asrwt>0</asrwt>
<pdfrwt beam="2">  1        2 0.20380253E-03 0.22865409E+02</pdfrwt>
<pdfrwt beam="1">  1       -2 0.15179647E-01 0.22865409E+02</pdfrwt>
<totfact> 0.22198980E+06</totfact>
</mgrwt>
</event>
<event>
 4    1  0.1433582E+000  0.3746376E+02  0.7818608E-02  0.1527750E+00
          2   -1    0    0  501    0  0.00000000000E+00  0.00000000000E+00  0.13100598472E+03  0.13100598474E+03  0.26000000000E-02 0. -1.
         -2   -1    0    0    0  501 -0.00000000000E+00 -0.00000000000E+00 -0.26783760482E+01  0.26783773101E+01  0.26000000000E-02 0.  1.
        -11    1    1    2    0    0  0.16889024126E+02  0.55445485519E+01  0.43082583465E+02  0.46605687988E+02  0.51100000000E-03 0. -1.
         11    1    1    2    0    0 -0.16889024126E+02 -0.55445485519E+01  0.85245025203E+02  0.87078674064E+02  0.51100000000E-03 0.  1.
<mgrwt>
<rscale>  0 0.37463763E+02</rscale>
<asrwt>0</asrwt>
<pdfrwt beam="1">  1        2 0.20154766E-01 0.37463763E+02</pdfrwt>
<pdfrwt beam="2">  1       -2 0.41205798E-03 0.37463763E+02</pdfrwt>
<totfact> 0.13171267E+06</totfact>
</mgrwt>
</event>
<event>
 4    1  0.1433582E+000  0.3794955E+02  0.7818608E-02  0.1523866E+00
          2   -1    0    0  501    0  0.00000000000E+00  0.00000000000E+00  0.11798942413E+02  0.11798942699E+02  0.26000000000E-02 0.  1.
         -2   -1    0    0    0  501 -0.00000000000E+00 -0.00000000000E+00 -0.30514773798E+02  0.30514773909E+02  0.26000000000E-02 0. -1.
        -11    1    1    2    0    0 -0.47785714248E+01  0.91016909182E+01  0.84250646848E+01  0.13291246655E+02  0.51100000000E-03 0.  1.
         11    1    1    2    0    0  0.47785714248E+01 -0.91016909182E+01 -0.27140896070E+02  0.29022469953E+02  0.51100000000E-03 0. -1.
<mgrwt>
<rscale>  0 0.37949549E+02</rscale>
<asrwt>0</asrwt>
<pdfrwt beam="1">  1        2 0.18152219E-02 0.37949549E+02</pdfrwt>
<pdfrwt beam="2">  1       -2 0.46945806E-02 0.37949549E+02</pdfrwt>
<totfact> 0.84331307E+05</totfact>
</mgrwt>
</event>
<event>
 4    1  0.1433582E+000  0.4243409E+02  0.7818608E-02  0.1491027E+00
          2   -1    0    0  501    0  0.00000000000E+00  0.00000000000E+00  0.17620756102E+01  0.17620775284E+01  0.26000000000E-02 0. -1.
         -2   -1    0    0    0  501 -0.00000000000E+00 -0.00000000000E+00 -0.25547299659E+03  0.25547299660E+03  0.26000000000E-02 0.  1.
        -11    1    1    2    0    0  0.17190922210E+02  0.12435236535E+02 -0.12690633336E+03  0.12866771297E+03  0.51100000000E-03 0.  1.
         11    1    1    2    0    0 -0.17190922210E+02 -0.12435236535E+02 -0.12680458762E+03  0.12856736116E+03  0.51100000000E-03 0. -1.
<mgrwt>
<rscale>  0 0.42434089E+02</rscale>
<asrwt>0</asrwt>
<pdfrwt beam="1">  1        2 0.27108891E-03 0.42434089E+02</pdfrwt>
<pdfrwt beam="2">  1       -2 0.39303509E-01 0.42434089E+02</pdfrwt>
<totfact> 0.37671551E+05</totfact>
</mgrwt>
</event>
<event>
 4    1  0.1433582E+000  0.3977639E+02  0.7818608E-02  0.1509863E+00
          2   -1    0    0  501    0  0.00000000000E+00  0.00000000000E+00  0.67634026646E+02  0.67634026696E+02  0.26000000000E-02 0. -1.
         -2   -1    0    0    0  501 -0.00000000000E+00 -0.00000000000E+00 -0.58482432529E+01  0.58482438308E+01  0.26000000000E-02 0.  1.
        -11    1    1    2    0    0 -0.18186675246E+02  0.26310019234E+01  0.16840266845E+02  0.24925326784E+02  0.51100000000E-03 0.  1.
         11    1    1    2    0    0  0.18186675246E+02 -0.26310019234E+01  0.44945516548E+02  0.48556943743E+02  0.51100000000E-03 0. -1.
<mgrwt>
<rscale>  0 0.39776388E+02</rscale>
<asrwt>0</asrwt>
<pdfrwt beam="1">  1        2 0.10405235E-01 0.39776388E+02</pdfrwt>
<pdfrwt beam="2">  1       -2 0.89972979E-03 0.39776388E+02</pdfrwt>
<totfact> 0.96908722E+05</totfact>
</mgrwt>
</event>
<event>
 4    1  0.1433582E+000  0.2472230E+02  0.7818608E-02  0.1665023E+00
         -2   -1    0    0    0  501 -0.00000000000E+00  0.00000000000E+00  0.19637248372E+01  0.19637265584E+01  0.26000000000E-02 0. -1.
          2   -1    0    0  501    0  0.00000000000E+00 -0.00000000000E+00 -0.77810274368E+02  0.77810274412E+02  0.26000000000E-02 0.  1.
        -11    1    1    2    0    0  0.10913943546E+02 -0.43588352102E+00 -0.56598042997E+02  0.57642368354E+02  0.51100000000E-03 0.  1.
         11    1    1    2    0    0 -0.10913943546E+02  0.43588352102E+00 -0.19248506534E+02  0.22131632616E+02  0.51100000000E-03 0. -1.
<mgrwt>
<rscale>  0 0.24722301E+02</rscale>
<asrwt>0</asrwt>
<pdfrwt beam="2">  1        2 0.11970809E-01 0.24722301E+02</pdfrwt>
<pdfrwt beam="1">  1       -2 0.30211171E-03 0.24722301E+02</pdfrwt>
<totfact> 0.31007918E+06</totfact>
</mgrwt>
</event>
<event>
 4    1  0.1433582E+000  0.3273522E+02  0.7818608E-02  0.1569684E+00
          2   -1    0    0  501    0  0.00000000000E+00  0.00000000000E+00  0.13587178342E+02  0.13587178591E+02  0.26000000000E-02 0.  1.
         -2   -1    0    0    0  501 -0.00000000000E+00 -0.00000000000E+00 -0.19717022555E+02  0.19717022726E+02  0.26000000000E-02 0. -1.
        -11    1    1    2    0    0 -0.11629631915E+02  0.10595527798E+02  0.15285468711E+01  0.15806644286E+02  0.51100000000E-03 0.  1.
         11    1    1    2    0    0  0.11629631915E+02 -0.10595527798E+02 -0.76583910837E+01  0.17497557031E+02  0.51100000000E-03 0. -1.
<mgrwt>
<rscale>  0 0.32735223E+02</rscale>
<asrwt>0</asrwt>
<pdfrwt beam="1">  1        2 0.20903352E-02 0.32735223E+02</pdfrwt>
<pdfrwt beam="2">  1       -2 0.30333881E-02 0.32735223E+02</pdfrwt>
<totfact> 0.12486974E+06</totfact>
</mgrwt>
</event>
<event>
 4    1  0.1433582E+000  0.5695522E+02  0.7818608E-02  0.1411072E+00
          2   -1    0    0  501    0  0.00000000000E+00  0.00000000000E+00  0.75772701459E+02  0.75772701504E+02  0.26000000000E-02 0. -1.
         -2   -1    0    0    0  501 -0.00000000000E+00 -0.00000000000E+00 -0.10702724752E+02  0.10702725068E+02  0.26000000000E-02 0.  1.
        -11    1    1    2    0    0 -0.18970911253E+02  0.16646626411E+02  0.52561013449E+02  0.58306652962E+02  0.51100000000E-03 0. -1.
         11    1    1    2    0    0  0.18970911253E+02 -0.16646626411E+02  0.12508963258E+02  0.28168773610E+02  0.51100000000E-03 0.  1.
<mgrwt>
<rscale>  0 0.56955224E+02</rscale>
<asrwt>0</asrwt>
<pdfrwt beam="1">  1        2 0.11657339E-01 0.56955224E+02</pdfrwt>
<pdfrwt beam="2">  1       -2 0.16465731E-02 0.56955224E+02</pdfrwt>
<totfact> 0.40027457E+05</totfact>
</mgrwt>
</event>
<event>
 4    1  0.1433582E+000  0.2159441E+02  0.7818608E-02  0.1715362E+00
          2   -1    0    0  501    0  0.00000000000E+00  0.00000000000E+00  0.29679049386E+01  0.29679060774E+01  0.26000000000E-02 0.  1.
         -2   -1    0    0    0  501 -0.00000000000E+00 -0.00000000000E+00 -0.39280089173E+02  0.39280089259E+02  0.26000000000E-02 0. -1.
        -11    1    1    2    0    0 -0.10672388069E+02 -0.15476021820E+01 -0.19199911857E+02  0.22021161532E+02  0.51100000000E-03 0. -1.
         11    1    1    2    0    0  0.10672388069E+02  0.15476021820E+01 -0.17112272377E+02  0.20226833805E+02  0.51100000000E-03 0.  1.
<mgrwt>
<rscale>  0 0.21594406E+02</rscale>
<asrwt>0</asrwt>
<pdfrwt beam="1">  1        2 0.45660088E-03 0.21594406E+02</pdfrwt>
<pdfrwt beam="2">  1       -2 0.60430904E-02 0.21594406E+02</pdfrwt>
<totfact> 0.29567085E+06</totfact>
</mgrwt>
</event>
<event>
 4    1  0.1433582E+000  0.4645938E+02  0.7818608E-02  0.1465431E+00
         -2   -1    0    0    0  501 -0.00000000000E+00  0.00000000000E+00  0.10469775057E+02  0.10469775379E+02  0.26000000000E-02 0.  1.
          2   -1    0    0  501    0  0.00000000000E+00 -0.00000000000E+00 -0.51540597559E+02  0.51540597625E+02  0.26000000000E-02 0. -1.
        -11    1    1    2    0    0 -0.20025925771E+02 -0.11269720730E+02 -0.15994575429E+02  0.27997691900E+02  0.51100000000E-03 0. -1.
         11    1    1    2    0    0  0.20025925771E+02  0.11269720730E+02 -0.25076247073E+02  0.34012681104E+02  0.51100000000E-03 0.  1.
<mgrwt>
<rscale>  0 0.46459379E+02</rscale>
<asrwt>0</asrwt>
<pdfrwt beam="2">  1        2 0.79293226E-02 0.46459379E+02</pdfrwt>
<pdfrwt beam="1">  1       -2 0.16107347E-02 0.46459379E+02</pdfrwt>
<totfact> 0.62254194E+05</totfact>
</mgrwt>
</event>
<event>
 4    1  0.1433582E+000  0.2251850E+02  0.7818608E-02  0.1699436E+00
         -2   -1    0    0    0  501 -0.00000000000E+00  0.00000000000E+00  0.22265143318E+01  0.22265158499E+01  0.26000000000E-02 0. -1.
          2   -1    0    0  501    0  0.00000000000E+00 -0.00000000000E+00 -0.56936804749E+02  0.56936804809E+02  0.26000000000E-02 0.  1.
        -11    1    1    2    0    0  0.97813188436E+01  0.24242799520E+01 -0.14161040821E+02  0.17380633159E+02  0.51100000000E-03 0. -1.
         11    1    1    2    0    0 -0.97813188436E+01 -0.24242799520E+01 -0.40549249596E+02  0.41782687500E+02  0.51100000000E-03 0.  1.
<mgrwt>
<rscale>  0 0.22518495E+02</rscale>
<asrwt>0</asrwt>
<pdfrwt beam="2">  1        2 0.87595075E-02 0.22518495E+02</pdfrwt>
<pdfrwt beam="1">  1       -2 0.34254083E-03 0.22518495E+02</pdfrwt>
<totfact> 0.36215894E+06</totfact>
</mgrwt>
</event>
<event>
 4    1  0.1433582E+000  0.5705185E+02  0.7818608E-02  0.1410637E+00
          2   -1    0    0  501    0  0.00000000000E+00  0.00000000000E+00  0.48388442904E+02  0.48388442974E+02  0.26000000000E-02 0. -1.
         -2   -1    0    0    0  501 -0.00000000000E+00 -0.00000000000E+00 -0.16816587989E+02  0.16816588190E+02  0.26000000000E-02 0.  1.
        -11    1    1    2    0    0  0.47440893371E+00 -0.27993731659E+02  0.22030688290E+02  0.35626188440E+02  0.51100000000E-03 0. -1.
         11    1    1    2    0    0 -0.47440893371E+00  0.27993731659E+02  0.95411666256E+01  0.29578842723E+02  0.51100000000E-03 0.  1.
<mgrwt>
<rscale>  0 0.57051854E+02</rscale>
<asrwt>0</asrwt>
<pdfrwt beam="1">  1        2 0.74443759E-02 0.57051854E+02</pdfrwt>
<pdfrwt beam="2">  1       -2 0.25871674E-02 0.57051854E+02</pdfrwt>
<totfact> 0.36163704E+05</totfact>
</mgrwt>
</event>
<event>
 4    1  0.1433582E+000  0.2284243E+02  0.7818608E-02  0.1694077E+00
         -2   -1    0    0    0  501 -0.00000000000E+00  0.00000000000E+00  0.69824116133E+01  0.69824120974E+01  0.26000000000E-02 0. -1.
          2   -1    0    0  501    0  0.00000000000E+00 -0.00000000000E+00 -0.18681816970E+02  0.18681817151E+02  0.26000000000E-02 0.  1.
        -11    1    1    2    0    0 -0.52042810547E+01 -0.95269901161E+01 -0.18621784735E+01  0.11014344778E+02  0.51100000000E-03 0. -1.
         11    1    1    2    0    0  0.52042810547E+01  0.95269901161E+01 -0.98372268829E+01  0.14649884470E+02  0.51100000000E-03 0.  1.
<mgrwt>
<rscale>  0 0.22842429E+02</rscale>
<asrwt>0</asrwt>
<pdfrwt beam="2">  1        2 0.28741257E-02 0.22842429E+02</pdfrwt>
<pdfrwt beam="1">  1       -2 0.10742172E-02 0.22842429E+02</pdfrwt>
<totfact> 0.30572828E+06</totfact>
</mgrwt>
</event>
<event>
 4    1  0.1433582E+000  0.3492338E+02  0.7818608E-02  0.1549282E+00
         -2   -1    0    0    0  501 -0.00000000000E+00  0.00000000000E+00  0.46781836474E+02  0.46781836546E+02  0.26000000000E-02 0.  1.
          2   -1    0    0  501    0  0.00000000000E+00 -0.00000000000E+00 -0.65177129839E+01  0.65177135025E+01  0.26000000000E-02 0. -1.
        -11    1    1    2    0    0  0.36217808467E+01 -0.12563790923E+02  0.37795273030E+02  0.39993109438E+02  0.51100000000E-03 0.  1.
         11    1    1    2    0    0 -0.36217808467E+01  0.12563790923E+02  0.24688504600E+01  0.13306440610E+02  0.51100000000E-03 0. -1.
<mgrwt>
<rscale>  0 0.34923379E+02</rscale>
<asrwt>0</asrwt>
<pdfrwt beam="2">  1        2 0.10027251E-02 0.34923379E+02</pdfrwt>
<pdfrwt beam="1">  1       -2 0.71972058E-02 0.34923379E+02</pdfrwt>
<totfact> 0.96570009E+05</totfact>
</mgrwt>
</event>
<event>
 4    1  0.1433582E+000  0.2598039E+02  0.7818608E-02  0.1647307E+00
          2   -1    0    0  501    0  0.00000000000E+00  0.00000000000E+00  0.84183731959E+02  0.84183731999E+02  0.26000000000E-02 0.  1.
         -2   -1    0    0    0  501 -0.00000000000E+00 -0.00000000000E+00 -0.20044860555E+01  0.20044877417E+01  0.26000000000E-02 0. -1.
        -11    1    1    2    0    0  0.12670090260E+02  0.26442841400E+01  0.37422748191E+02  0.39597796759E+02  0.51100000000E-03 0.  1.
         11    1    1    2    0    0 -0.12670090260E+02 -0.26442841400E+01  0.44756497713E+02  0.46590422981E+02  0.51100000000E-03 0. -1.
<mgrwt>
<rscale>  0 0.25980392E+02</rscale>
<asrwt>0</asrwt>
<pdfrwt beam="1">  1        2 0.12951344E-01 0.25980392E+02</pdfrwt>
<pdfrwt beam="2">  1       -2 0.30838259E-03 0.25980392E+02</pdfrwt>
<totfact> 0.28114895E+06</totfact>
</mgrwt>
</event>
<event>
 4    1  0.1433582E+000  0.2181060E+02  0.7818608E-02  0.1711548E+00
          2   -1    0    0  501    0  0.00000000000E+00  0.00000000000E+00  0.31278595759E+02  0.31278595867E+02  0.26000000000E-02 0.  1.
         -2   -1    0    0    0  501 -0.00000000000E+00 -0.00000000000E+00 -0.38021400186E+01  0.38021409076E+01  0.26000000000E-02 0. -1.
        -11    1    1    2    0    0 -0.36611534819E+01  0.99636287350E+01  0.17758544272E+02  0.20689220317E+02  0.51100000000E-03 0.  1.
         11    1    1    2    0    0  0.36611534819E+01 -0.99636287350E+01  0.97179114679E+01  0.14391516458E+02  0.51100000000E-03 0. -1.
<mgrwt>
<rscale>  0 0.21810605E+02</rscale>
<asrwt>0</asrwt>
<pdfrwt beam="1">  1        2 0.48120917E-02 0.21810605E+02</pdfrwt>
<pdfrwt beam="2">  1       -2 0.58494470E-03 0.21810605E+02</pdfrwt>
<totfact> 0.35822901E+06</totfact>
</mgrwt>
</event>
<event>
 4    1  0.1433582E+000  0.8481148E+02  0.7818608E-02  0.1315926E+00
         -2   -1    0    0    0  501 -0.00000000000E+00  0.00000000000E+00  0.58870992995E+01  0.58870998736E+01  0.26000000000E-02 0.  1.
          2   -1    0    0  501    0  0.00000000000E+00 -0.00000000000E+00 -0.30545548853E+03  0.30545548855E+03  0.26000000000E-02 0. -1.
        -11    1    1    2    0    0  0.28660527829E+02  0.26686433914E+02 -0.20950479339E+03  0.21313340908E+03  0.51100000000E-03 0. -1.
         11    1    1    2    0    0 -0.28660527829E+02 -0.26686433914E+02 -0.90063595841E+02  0.98209179340E+02  0.51100000000E-03 0.  1.
<mgrwt>
<rscale>  0 0.84811482E+02</rscale>
<asrwt>0</asrwt>
<pdfrwt beam="2">  1        2 0.46993140E-01 0.84811482E+02</pdfrwt>
<pdfrwt beam="1">  1       -2 0.90570787E-03 0.84811482E+02</pdfrwt>
<totfact> 0.21919010E+05</totfact>
</mgrwt>
</event>
<event>
 4    1  0.1433582E+000  0.8238368E+02  0.7818608E-02  0.1322420E+00
         -2   -1    0    0    0  501 -0.00000000000E+00  0.00000000000E+00  0.53052528602E+02  0.53052528665E+02  0.26000000000E-02 0.  1.
          2   -1    0    0  501    0  0.00000000000E+00 -0.00000000000E+00 -0.31982783844E+02  0.31982783950E+02  0.26000000000E-02 0. -1.
        -11    1    1    2    0    0 -0.11822604844E+02  0.13094257761E+02 -0.27885956743E+02  0.32997881074E+02  0.51100000000E-03 0. -1.
         11    1    1    2    0    0  0.11822604844E+02 -0.13094257761E+02  0.48955701501E+02  0.52037431541E+02  0.51100000000E-03 0.  1.
<mgrwt>
<rscale>  0 0.82383677E+02</rscale>
<asrwt>0</asrwt>
<pdfrwt beam="2">  1        2 0.49204283E-02 0.82383677E+02</pdfrwt>
<pdfrwt beam="1">  1       -2 0.81619274E-02 0.82383677E+02</pdfrwt>
<totfact> 0.12091270E+05</totfact>
</mgrwt>
</event>
<event>
 4    1  0.1433582E+000  0.2626021E+02  0.7818608E-02  0.1643534E+00
          2   -1    0    0  501    0  0.00000000000E+00  0.00000000000E+00  0.73827463348E+02  0.73827463394E+02  0.26000000000E-02 0. -1.
         -2   -1    0    0    0  501 -0.00000000000E+00 -0.00000000000E+00 -0.23351688205E+01  0.23351702679E+01  0.26000000000E-02 0.  1.
        -11    1    1    2    0    0  0.11304937315E+02 -0.30753445784E+01  0.52938941808E+02  0.54219838731E+02  0.51100000000E-03 0. -1.
         11    1    1    2    0    0 -0.11304937315E+02  0.30753445784E+01  0.18553352719E+02  0.21942794930E+02  0.51100000000E-03 0.  1.
<mgrwt>
<rscale>  0 0.26260209E+02</rscale>
<asrwt>0</asrwt>
<pdfrwt beam="1">  1        2 0.11358071E-01 0.26260209E+02</pdfrwt>
<pdfrwt beam="2">  1       -2 0.35925687E-03 0.26260209E+02</pdfrwt>
<totfact> 0.26687991E+06</totfact>
</mgrwt>
</event>
<event>
 4    1  0.1433582E+000  0.2511161E+02  0.7818608E-02  0.1659404E+00
          2   -1    0    0  501    0  0.00000000000E+00  0.00000000000E+00  0.18636837080E+01  0.18636855217E+01  0.26000000000E-02 0.  1.
         -2   -1    0    0    0  501 -0.00000000000E+00 -0.00000000000E+00 -0.84589517335E+02  0.84589517375E+02  0.26000000000E-02 0. -1.
        -11    1    1    2    0    0 -0.16148453706E+01  0.11556794076E+02 -0.25406566918E+02  0.27958198399E+02  0.51100000000E-03 0.  1.
         11    1    1    2    0    0  0.16148453706E+01 -0.11556794076E+02 -0.57319266709E+02  0.58495004498E+02  0.51100000000E-03 0. -1.
<mgrwt>
<rscale>  0 0.25111606E+02</rscale>
<asrwt>0</asrwt>
<pdfrwt beam="1">  1        2 0.28672078E-03 0.25111606E+02</pdfrwt>
<pdfrwt beam="2">  1       -2 0.13013769E-01 0.25111606E+02</pdfrwt>
<totfact> 0.18623568E+06</totfact>
</mgrwt>
</event>
<event>
 4    1  0.1433582E+000  0.3772170E+02  0.7818608E-02  0.1525679E+00
          2   -1    0    0  501    0  0.00000000000E+00  0.00000000000E+00  0.82010634777E+01  0.82010638898E+01  0.26000000000E-02 0.  1.
         -2   -1    0    0    0  501 -0.00000000000E+00 -0.00000000000E+00 -0.43376286659E+02  0.43376286737E+02  0.26000000000E-02 0. -1.
        -11    1    1    2    0    0 -0.15809770079E+02 -0.43309794579E+01 -0.30342920110E+02  0.34487664665E+02  0.51100000000E-03 0. -1.
         11    1    1    2    0    0  0.15809770079E+02  0.43309794579E+01 -0.48323030710E+01  0.17089685961E+02  0.51100000000E-03 0.  1.
<mgrwt>
<rscale>  0 0.37721702E+02</rscale>
<asrwt>0</asrwt>
<pdfrwt beam="1">  1        2 0.12617021E-02 0.37721702E+02</pdfrwt>
<pdfrwt beam="2">  1       -2 0.66732748E-02 0.37721702E+02</pdfrwt>
<totfact> 0.81493419E+05</totfact>
</mgrwt>
</event>
<event>
 4    1  0.1433582E+000  0.3393516E+02  0.7818608E-02  0.1558265E+00
         -2   -1    0    0    0  501 -0.00000000000E+00  0.00000000000E+00  0.19932163198E+02  0.19932163367E+02  0.26000000000E-02 0.  1.
          2   -1    0    0  501    0  0.00000000000E+00 -0.00000000000E+00 -0.14443930246E+02  0.14443930480E+02  0.26000000000E-02 0. -1.
        -11    1    1    2    0    0  0.16761095562E+02 -0.12225650136E+01  0.51132635293E+01  0.17566287424E+02  0.51100000000E-03 0. -1.
         11    1    1    2    0    0 -0.16761095562E+02  0.12225650136E+01  0.37496942285E+00  0.16809806423E+02  0.51100000000E-03 0.  1.
<mgrwt>
<rscale>  0 0.33935161E+02</rscale>
<asrwt>0</asrwt>
<pdfrwt beam="2">  1        2 0.22221431E-02 0.33935161E+02</pdfrwt>
<pdfrwt beam="1">  1       -2 0.30664867E-02 0.33935161E+02</pdfrwt>
<totfact> 0.11489988E+06</totfact>
</mgrwt>
</event>
<event>
 4    1  0.1433582E+000  0.4000807E+02  0.7818608E-02  0.1508152E+00
         -2   -1    0    0    0  501 -0.00000000000E+00  0.00000000000E+00  0.41742692774E+01  0.41742700872E+01  0.26000000000E-02 0.  1.
          2   -1    0    0  501    0  0.00000000000E+00 -0.00000000000E+00 -0.95863829108E+02  0.95863829143E+02  0.26000000000E-02 0. -1.
        -11    1    1    2    0    0 -0.82880842697E+01  0.15613187377E+02 -0.69260711816E+02  0.71480837729E+02  0.51100000000E-03 0. -1.
         11    1    1    2    0    0  0.82880842697E+01 -0.15613187377E+02 -0.22428848014E+02  0.28557261501E+02  0.51100000000E-03 0.  1.
<mgrwt>
<rscale>  0 0.40008073E+02</rscale>
<asrwt>0</asrwt>
<pdfrwt beam="2">  1        2 0.14748280E-01 0.40008073E+02</pdfrwt>
<pdfrwt beam="1">  1       -2 0.64219541E-03 0.40008073E+02</pdfrwt>
<totfact> 0.10334206E+06</totfact>
</mgrwt>
</event>
<event>
 4    1  0.1433582E+000  0.1012600E+03  0.7818608E-02  0.1277668E+00
          2   -1    0    0  501    0  0.00000000000E+00  0.00000000000E+00  0.32350890957E+03  0.32350890958E+03  0.26000000000E-02 0. -1.
         -2   -1    0    0    0  501 -0.00000000000E+00 -0.00000000000E+00 -0.79237336196E+01  0.79237340461E+01  0.26000000000E-02 0.  1.
        -11    1    1    2    0    0  0.21111750947E+02 -0.36206821090E+02  0.25075963095E+03  0.25423814119E+03  0.51100000000E-03 0. -1.
         11    1    1    2    0    0 -0.21111750947E+02  0.36206821090E+02  0.64825545000E+02  0.77194502436E+02  0.51100000000E-03 0.  1.
<mgrwt>
<rscale>  0 0.10126003E+03</rscale>
<asrwt>0</asrwt>
<pdfrwt beam="1">  1        2 0.49770594E-01 0.10126003E+03</pdfrwt>
<pdfrwt beam="2">  1       -2 0.12190362E-02 0.10126003E+03</pdfrwt>
<totfact> 0.13947470E+05</totfact>
</mgrwt>
</event>
<event>
 4    1  0.1433582E+000  0.3622960E+02  0.7818608E-02  0.1537945E+00
          2   -1    0    0  501    0  0.00000000000E+00  0.00000000000E+00  0.50487079209E+02  0.50487079276E+02  0.26000000000E-02 0.  1.
         -2   -1    0    0    0  501 -0.00000000000E+00 -0.00000000000E+00 -0.64996039110E+01  0.64996044310E+01  0.26000000000E-02 0. -1.
        -11    1    1    2    0    0  0.17442755478E+02  0.39786325975E+01  0.17526280478E+02  0.25044954455E+02  0.51100000000E-03 0. -1.
         11    1    1    2    0    0 -0.17442755478E+02 -0.39786325975E+01  0.26461194821E+02  0.31941729252E+02  0.51100000000E-03 0.  1.
<mgrwt>
<rscale>  0 0.36229603E+02</rscale>
<asrwt>0</asrwt>
<pdfrwt beam="1">  1        2 0.77672431E-02 0.36229603E+02</pdfrwt>
<pdfrwt beam="2">  1       -2 0.99993910E-03 0.36229603E+02</pdfrwt>
<totfact> 0.11542579E+06</totfact>
</mgrwt>
</event>
<event>
 4    1  0.1433582E+000  0.3262570E+02  0.7818608E-02  0.1570756E+00
         -2   -1    0    0    0  501 -0.00000000000E+00  0.00000000000E+00  0.30459494292E+01  0.30459505389E+01  0.26000000000E-02 0.  1.
          2   -1    0    0  501    0  0.00000000000E+00 -0.00000000000E+00 -0.87364882484E+02  0.87364882523E+02  0.26000000000E-02 0. -1.
        -11    1    1    2    0    0 -0.13255618581E+02  0.93009202544E+01 -0.47625404408E+02  0.50303058424E+02  0.51100000000E-03 0. -1.
         11    1    1    2    0    0  0.13255618581E+02 -0.93009202544E+01 -0.36693528647E+02  0.40107774638E+02  0.51100000000E-03 0.  1.
<mgrwt>
<rscale>  0 0.32625699E+02</rscale>
<asrwt>0</asrwt>
<pdfrwt beam="2">  1        2 0.13440749E-01 0.32625699E+02</pdfrwt>
<pdfrwt beam="1">  1       -2 0.46860776E-03 0.32625699E+02</pdfrwt>
<totfact> 0.16584816E+06</totfact>
</mgrwt>
</event>
<event>
 4    1  0.1433582E+000  0.9421946E+02  0.7818608E-02  0.1292944E+00
          2   -1    0    0  501    0  0.00000000000E+00  0.00000000000E+00  0.48529742596E+02  0.48529742665E+02  0.26000000000E-02 0. -1.
         -2   -1    0    0    0  501 -0.00000000000E+00 -0.00000000000E+00 -0.45731271860E+02  0.45731271934E+02  0.26000000000E-02 0.  1.
        -11    1    1    2    0    0 -0.99222536748E+01 -0.34362560574E+02 -0.29275175888E+02  0.46219829194E+02  0.51100000000E-03 0.  1.
         11    1    1    2    0    0  0.99222536748E+01  0.34362560574E+02  0.32073646623E+02  0.48041185406E+02  0.51100000000E-03 0. -1.
<mgrwt>
<rscale>  0 0.94219464E+02</rscale>
<asrwt>0</asrwt>
<pdfrwt beam="1">  1        2 0.74661142E-02 0.94219464E+02</pdfrwt>
<pdfrwt beam="2">  1       -2 0.70355803E-02 0.94219464E+02</pdfrwt>
<totfact> 0.91276130E+04</totfact>
</mgrwt>
</event>
<event>
 4    1  0.1433582E+000  0.2196025E+02  0.7818608E-02  0.1708940E+00
          2   -1    0    0  501    0  0.00000000000E+00  0.00000000000E+00  0.80301727567E+02  0.80301727610E+02  0.26000000000E-02 0. -1.
         -2   -1    0    0    0  501 -0.00000000000E+00 -0.00000000000E+00 -0.15013756794E+01  0.15013779307E+01  0.26000000000E-02 0.  1.
        -11    1    1    2    0    0  0.10427655032E+02  0.34281756930E+01  0.38381550747E+02  0.39920318336E+02  0.51100000000E-03 0.  1.
         11    1    1    2    0    0 -0.10427655032E+02 -0.34281756930E+01  0.40418801141E+02  0.41882787204E+02  0.51100000000E-03 0. -1.
<mgrwt>
<rscale>  0 0.21960251E+02</rscale>
<asrwt>0</asrwt>
<pdfrwt beam="1">  1        2 0.12354115E-01 0.21960251E+02</pdfrwt>
<pdfrwt beam="2">  1       -2 0.23098099E-03 0.21960251E+02</pdfrwt>
<totfact> 0.40854993E+06</totfact>
</mgrwt>
</event>
<event>
 4    1  0.1433582E+000  0.2787299E+02  0.7818608E-02  0.1622865E+00
          2   -1    0    0  501    0  0.00000000000E+00  0.00000000000E+00  0.51906497764E+01  0.51906504275E+01  0.26000000000E-02 0. -1.
         -2   -1    0    0    0  501 -0.00000000000E+00 -0.00000000000E+00 -0.37418411761E+02  0.37418411851E+02  0.26000000000E-02 0.  1.
        -11    1    1    2    0    0  0.11387831887E+02 -0.70137261857E+01 -0.10124469399E+02  0.16774383773E+02  0.51100000000E-03 0. -1.
         11    1    1    2    0    0 -0.11387831887E+02  0.70137261857E+01 -0.22103292585E+02  0.25834678505E+02  0.51100000000E-03 0.  1.
<mgrwt>
<rscale>  0 0.27872990E+02</rscale>
<asrwt>0</asrwt>
<pdfrwt beam="1">  1        2 0.79856159E-03 0.27872990E+02</pdfrwt>
<pdfrwt beam="2">  1       -2 0.57566786E-02 0.27872990E+02</pdfrwt>
<totfact> 0.16763001E+06</totfact>
</mgrwt>
</event>
<event>
 4    1  0.1433582E+000  0.2631284E+02  0.7818608E-02  0.1642831E+00
         -2   -1    0    0    0  501 -0.00000000000E+00  0.00000000000E+00  0.14083522022E+03  0.14083522025E+03  0.26000000000E-02 0.  1.
          2   -1    0    0  501    0  0.00000000000E+00 -0.00000000000E+00 -0.12290336694E+01  0.12290364196E+01  0.26000000000E-02 0. -1.
        -11    1    1    2    0    0  0.56934071634E+00  0.13142394321E+02  0.68661007438E+02  0.69909803462E+02  0.51100000000E-03 0. -1.
         11    1    1    2    0    0 -0.56934071634E+00 -0.13142394321E+02  0.70945179115E+02  0.72154453205E+02  0.51100000000E-03 0.  1.
<mgrwt>
<rscale>  0 0.26312843E+02</rscale>
<asrwt>0</asrwt>
<pdfrwt beam="2">  1        2 0.18908235E-03 0.26312843E+02</pdfrwt>
<pdfrwt beam="1">  1       -2 0.21666953E-01 0.26312843E+02</pdfrwt>
<totfact> 0.14662504E+06</totfact>
</mgrwt>
</event>
<event>
 4    1  0.1433582E+000  0.4646690E+02  0.7818608E-02  0.1465386E+00
          2   -1    0    0  501    0  0.00000000000E+00  0.00000000000E+00  0.18965723944E+02  0.18965724122E+02  0.26000000000E-02 0. -1.
         -2   -1    0    0    0  501 -0.00000000000E+00 -0.00000000000E+00 -0.28461516989E+02  0.28461517107E+02  0.26000000000E-02 0.  1.
        -11    1    1    2    0    0 -0.74651021561E-02  0.10235438329E+02  0.16540514581E+02  0.19451294980E+02  0.51100000000E-03 0. -1.
         11    1    1    2    0    0  0.74651021561E-02 -0.10235438329E+02 -0.26036307626E+02  0.27975946250E+02  0.51100000000E-03 0.  1.
<mgrwt>
<rscale>  0 0.46466904E+02</rscale>
<asrwt>0</asrwt>
<pdfrwt beam="1">  1        2 0.29178037E-02 0.46466904E+02</pdfrwt>
<pdfrwt beam="2">  1       -2 0.43786949E-02 0.46466904E+02</pdfrwt>
<totfact> 0.53044691E+05</totfact>
</mgrwt>
</event>
<event>
 4    1  0.1433582E+000  0.4868894E+02  0.7818608E-02  0.1452544E+00
         -2   -1    0    0    0  501 -0.00000000000E+00  0.00000000000E+00  0.14637007052E+02  0.14637007283E+02  0.26000000000E-02 0.  1.
          2   -1    0    0  501    0  0.00000000000E+00 -0.00000000000E+00 -0.40490062402E+02  0.40490062486E+02  0.26000000000E-02 0. -1.
        -11    1    1    2    0    0  0.46661278775E+01  0.18650535281E+02 -0.29835767940E+02  0.35493496087E+02  0.51100000000E-03 0. -1.
         11    1    1    2    0    0 -0.46661278775E+01 -0.18650535281E+02  0.39827125905E+01  0.19633573681E+02  0.51100000000E-03 0.  1.
<mgrwt>
<rscale>  0 0.48688945E+02</rscale>
<asrwt>0</asrwt>
<pdfrwt beam="2">  1        2 0.62292403E-02 0.48688945E+02</pdfrwt>
<pdfrwt beam="1">  1       -2 0.22518473E-02 0.48688945E+02</pdfrwt>
<totfact> 0.52869827E+05</totfact>
</mgrwt>
</event>
<event>
 4    1  0.1433582E+000  0.2872423E+02  0.7818608E-02  0.1612634E+00
          2   -1    0    0  501    0  0.00000000000E+00  0.00000000000E+00  0.56181443929E+02  0.56181443989E+02  0.26000000000E-02 0. -1.
         -2   -1    0    0    0  501 -0.00000000000E+00 -0.00000000000E+00 -0.36715018714E+01  0.36715027920E+01  0.26000000000E-02 0.  1.
        -11    1    1    2    0    0  0.11126100718E+01  0.11893723421E+02  0.42868781837E+02  0.44502033823E+02  0.51100000000E-03 0. -1.
         11    1    1    2    0    0 -0.11126100718E+01 -0.11893723421E+02  0.96411602211E+01  0.15350912958E+02  0.51100000000E-03 0.  1.
<mgrwt>
<rscale>  0 0.28724227E+02</rscale>
<asrwt>0</asrwt>
<pdfrwt beam="1">  1        2 0.86432991E-02 0.28724227E+02</pdfrwt>
<pdfrwt beam="2">  1       -2 0.56484652E-03 0.28724227E+02</pdfrwt>
<totfact> 0.20557304E+06</totfact>
</mgrwt>
</event>
<event>
 4    1  0.1433582E+000  0.1163180E+03  0.7818608E-02  0.1249298E+00
          2   -1    0    0  501    0  0.00000000000E+00  0.00000000000E+00  0.12558000045E+02  0.12558000314E+02  0.26000000000E-02 0. -1.
         -2   -1    0    0    0  501 -0.00000000000E+00 -0.00000000000E+00 -0.26934753614E+03  0.26934753615E+03  0.26000000000E-02 0.  1.
        -11    1    1    2    0    0  0.37444320585E+02  0.15363435125E+02 -0.22961659973E+03  0.23315637489E+03  0.51100000000E-03 0.  1.
         11    1    1    2    0    0 -0.37444320585E+02 -0.15363435125E+02 -0.27172936367E+02  0.48749161572E+02  0.51100000000E-03 0. -1.
<mgrwt>
<rscale>  0 0.11631795E+03</rscale>
<asrwt>0</asrwt>
<pdfrwt beam="1">  1        2 0.19320002E-02 0.11631795E+03</pdfrwt>
<pdfrwt beam="2">  1       -2 0.41438078E-01 0.11631795E+03</pdfrwt>
<totfact> 0.28836458E+04</totfact>
</mgrwt>
</event>
<event>
 4    1  0.1433582E+000  0.2572437E+02  0.7818608E-02  0.1650810E+00
         -2   -1    0    0    0  501 -0.00000000000E+00  0.00000000000E+00  0.42738072120E+01  0.42738080029E+01  0.26000000000E-02 0. -1.
          2   -1    0    0  501    0  0.00000000000E+00 -0.00000000000E+00 -0.38709240295E+02  0.38709240382E+02  0.26000000000E-02 0.  1.
        -11    1    1    2    0    0 -0.77122795699E+01  0.97759883969E+01 -0.11832663064E+02  0.17177343239E+02  0.51100000000E-03 0. -1.
         11    1    1    2    0    0  0.77122795699E+01 -0.97759883969E+01 -0.22602770019E+02  0.25805705147E+02  0.51100000000E-03 0.  1.
<mgrwt>
<rscale>  0 0.25724374E+02</rscale>
<asrwt>0</asrwt>
<pdfrwt beam="2">  1        2 0.59552676E-02 0.25724374E+02</pdfrwt>
<pdfrwt beam="1">  1       -2 0.65750889E-03 0.25724374E+02</pdfrwt>
<totfact> 0.25148277E+06</totfact>
</mgrwt>
</event>
<event>
 4    1  0.1433582E+000  0.2919761E+02  0.7818608E-02  0.1607131E+00
         -2   -1    0    0    0  501 -0.00000000000E+00  0.00000000000E+00  0.47247181492E+02  0.47247181564E+02  0.26000000000E-02 0. -1.
          2   -1    0    0  501    0  0.00000000000E+00 -0.00000000000E+00 -0.45108533541E+01  0.45108541034E+01  0.26000000000E-02 0.  1.
        -11    1    1    2    0    0  0.41138086416E+01 -0.10473563843E+02  0.37855633203E+02  0.39492631294E+02  0.51100000000E-03 0. -1.
         11    1    1    2    0    0 -0.41138086416E+01  0.10473563843E+02  0.48806949353E+01  0.12265404373E+02  0.51100000000E-03 0.  1.
<mgrwt>
<rscale>  0 0.29197611E+02</rscale>
<asrwt>0</asrwt>
<pdfrwt beam="2">  1        2 0.69397754E-03 0.29197611E+02</pdfrwt>
<pdfrwt beam="1">  1       -2 0.72687968E-02 0.29197611E+02</pdfrwt>
<totfact> 0.14611080E+06</totfact>
</mgrwt>
</event>
<event>
 4    1  0.1433582E+000  0.2748173E+02  0.7818608E-02  0.1627718E+00
          2   -1    0    0  501    0  0.00000000000E+00  0.00000000000E+00  0.63904228414E+01  0.63904233703E+01  0.26000000000E-02 0.  1.
         -2   -1    0    0    0  501 -0.00000000000E+00 -0.00000000000E+00 -0.29545989024E+02  0.29545989138E+02  0.26000000000E-02 0. -1.
        -11    1    1    2    0    0 -0.12461987575E+02 -0.36198865297E+01 -0.17484914450E+02  0.21774456283E+02  0.51100000000E-03 0. -1.
         11    1    1    2    0    0  0.12461987575E+02  0.36198865297E+01 -0.56706517320E+01  0.14161956226E+02  0.51100000000E-03 0.  1.
<mgrwt>
<rscale>  0 0.27481730E+02</rscale>
<asrwt>0</asrwt>
<pdfrwt beam="1">  1        2 0.98314204E-03 0.27481730E+02</pdfrwt>
<pdfrwt beam="2">  1       -2 0.45455368E-02 0.27481730E+02</pdfrwt>
<totfact> 0.17795753E+06</totfact>
</mgrwt>
</event>
<event>
 4    1  0.1433582E+000  0.2080874E+02  0.7818608E-02  0.1729708E+00
          2   -1    0    0  501    0  0.00000000000E+00  0.00000000000E+00  0.62672482770E+02  0.62672482824E+02  0.26000000000E-02 0.  1.
         -2   -1    0    0    0  501 -0.00000000000E+00 -0.00000000000E+00 -0.17272473052E+01  0.17272492621E+01  0.26000000000E-02 0. -1.
        -11    1    1    2    0    0  0.13874796704E+01  0.99947594375E+01  0.38320723179E+02  0.39626987537E+02  0.51100000000E-03 0.  1.
         11    1    1    2    0    0 -0.13874796704E+01 -0.99947594375E+01  0.22624512286E+02  0.24772744549E+02  0.51100000000E-03 0. -1.
<mgrwt>
<rscale>  0 0.20808743E+02</rscale>
<asrwt>0</asrwt>
<pdfrwt beam="1">  1        2 0.96419193E-02 0.20808743E+02</pdfrwt>
<pdfrwt beam="2">  1       -2 0.26573054E-03 0.20808743E+02</pdfrwt>
<totfact> 0.43990207E+06</totfact>
</mgrwt>
</event>
<event>
 4    1  0.1433582E+000  0.2911902E+02  0.7818608E-02  0.1608036E+00
          2   -1    0    0  501    0  0.00000000000E+00  0.00000000000E+00  0.59703819975E+01  0.59703825637E+01  0.26000000000E-02 0. -1.
         -2   -1    0    0    0  501 -0.00000000000E+00 -0.00000000000E+00 -0.35505149378E+02  0.35505149473E+02  0.26000000000E-02 0.  1.
        -11    1    1    2    0    0 -0.15851163164E+01  0.12557693941E+02 -0.45189215850E+01  0.13439826018E+02  0.51100000000E-03 0. -1.
         11    1    1    2    0    0  0.15851163164E+01 -0.12557693941E+02 -0.25015845795E+02  0.28035706019E+02  0.51100000000E-03 0.  1.
<mgrwt>
<rscale>  0 0.29119019E+02</rscale>
<asrwt>0</asrwt>
<pdfrwt beam="1">  1        2 0.91852038E-03 0.29119019E+02</pdfrwt>
<pdfrwt beam="2">  1       -2 0.54623306E-02 0.29119019E+02</pdfrwt>
<totfact> 0.15268601E+06</totfact>
</mgrwt>
</event>
<event>
 4    1  0.1433582E+000  0.2564396E+02  0.7818608E-02  0.1651921E+00
          2   -1    0    0  501    0  0.00000000000E+00  0.00000000000E+00  0.17841615924E+02  0.17841616113E+02  0.26000000000E-02 0.  1.
         -2   -1    0    0    0  501 -0.00000000000E+00 -0.00000000000E+00 -0.92145870287E+01  0.92145873955E+01  0.26000000000E-02 0. -1.
        -11    1    1    2    0    0 -0.97353105341E+01  0.82040648706E+01  0.59206129746E+01  0.14040534529E+02  0.51100000000E-03 0.  1.
         11    1    1    2    0    0  0.97353105341E+01 -0.82040648706E+01  0.27064159202E+01  0.13015668980E+02  0.51100000000E-03 0. -1.
<mgrwt>
<rscale>  0 0.25643957E+02</rscale>
<asrwt>0</asrwt>
<pdfrwt beam="1">  1        2 0.27448640E-02 0.25643957E+02</pdfrwt>
<pdfrwt beam="2">  1       -2 0.14176288E-02 0.25643957E+02</pdfrwt>
<totfact> 0.23223510E+06</totfact>
</mgrwt>
</event>
<event>
 4    1  0.1433582E+000  0.3923796E+02  0.7818608E-02  0.1513895E+00
          2   -1    0    0  501    0  0.00000000000E+00  0.00000000000E+00  0.67079414487E+01  0.67079419526E+01  0.26000000000E-02 0.  1.
         -2   -1    0    0    0  501 -0.00000000000E+00 -0.00000000000E+00 -0.57380385149E+02  0.57380385208E+02  0.26000000000E-02 0. -1.
        -11    1    1    2    0    0 -0.54185328654E+01  0.13088797547E+02 -0.47505390120E+02  0.49572565098E+02  0.51100000000E-03 0. -1.
         11    1    1    2    0    0  0.54185328654E+01 -0.13088797547E+02 -0.31670535803E+01  0.14515762063E+02  0.51100000000E-03 0.  1.
<mgrwt>
<rscale>  0 0.39237955E+02</rscale>
<asrwt>0</asrwt>
<pdfrwt beam="1">  1        2 0.10319911E-02 0.39237955E+02</pdfrwt>
<pdfrwt beam="2">  1       -2 0.88277513E-02 0.39237955E+02</pdfrwt>
<totfact> 0.71028162E+05</totfact>
</mgrwt>
</event>
<event>
 4    1  0.1433582E+000  0.2719755E+02  0.7818608E-02  0.1631306E+00
          2   -1    0    0  501    0  0.00000000000E+00  0.00000000000E+00  0.37888570651E+02  0.37888570740E+02  0.26000000000E-02 0. -1.
         -2   -1    0    0    0  501 -0.00000000000E+00 -0.00000000000E+00 -0.48808038003E+01  0.48808044929E+01  0.26000000000E-02 0.  1.
        -11    1    1    2    0    0  0.40415946099E+01 -0.12887146991E+02  0.18997074939E+02  0.23308837402E+02  0.51100000000E-03 0.  1.
         11    1    1    2    0    0 -0.40415946099E+01  0.12887146991E+02  0.14010691911E+02  0.19460537830E+02  0.51100000000E-03 0. -1.
<mgrwt>
<rscale>  0 0.27197551E+02</rscale>
<asrwt>0</asrwt>
<pdfrwt beam="1">  1        2 0.58290110E-02 0.27197551E+02</pdfrwt>
<pdfrwt beam="2">  1       -2 0.75089295E-03 0.27197551E+02</pdfrwt>
<totfact> 0.22004566E+06</totfact>
</mgrwt>
</event>
<event>
 4    1  0.1433582E+000  0.3490538E+02  0.7818608E-02  0.1549442E+00
         -2   -1    0    0    0  501 -0.00000000000E+00  0.00000000000E+00  0.81008613613E+01  0.81008617785E+01  0.26000000000E-02 0.  1.
          2   -1    0    0  501    0  0.00000000000E+00 -0.00000000000E+00 -0.37600485415E+02  0.37600485505E+02  0.26000000000E-02 0. -1.
        -11    1    1    2    0    0 -0.13402503059E+02 -0.10841030033E+02 -0.11178223796E+02  0.20545259987E+02  0.51100000000E-03 0.  1.
         11    1    1    2    0    0  0.13402503059E+02  0.10841030033E+02 -0.18321400257E+02  0.25156087297E+02  0.51100000000E-03 0. -1.
<mgrwt>
<rscale>  0 0.34905377E+02</rscale>
<asrwt>0</asrwt>
<pdfrwt beam="2">  1        2 0.57846900E-02 0.34905377E+02</pdfrwt>
<pdfrwt beam="1">  1       -2 0.12462864E-02 0.34905377E+02</pdfrwt>
<totfact> 0.12066981E+06</totfact>
</mgrwt>
</event>
<event>
 4    1  0.1433582E+000  0.4670844E+02  0.7818608E-02  0.1463950E+00
          2   -1    0    0  501    0  0.00000000000E+00  0.00000000000E+00  0.78868465353E+01  0.78868469639E+01  0.26000000000E-02 0. -1.
         -2   -1    0    0    0  501 -0.00000000000E+00 -0.00000000000E+00 -0.69155582708E+02  0.69155582757E+02  0.26000000000E-02 0.  1.
        -11    1    1    2    0    0 -0.98759081862E+01  0.17573367531E+02 -0.11183457245E+02  0.23052690192E+02  0.51100000000E-03 0. -1.
         11    1    1    2    0    0  0.98759081862E+01 -0.17573367531E+02 -0.50085278928E+02  0.53989739530E+02  0.51100000000E-03 0.  1.
<mgrwt>
<rscale>  0 0.46708435E+02</rscale>
<asrwt>0</asrwt>
<pdfrwt beam="1">  1        2 0.12133611E-02 0.46708435E+02</pdfrwt>
<pdfrwt beam="2">  1       -2 0.10639320E-01 0.46708435E+02</pdfrwt>
<totfact> 0.45224678E+05</totfact>
</mgrwt>
</event>
<event>
 4    1  0.1433582E+000  0.4096734E+02  0.7818608E-02  0.1501211E+00
          2   -1    0    0  501    0  0.00000000000E+00  0.00000000000E+00  0.33914350051E+02  0.33914350151E+02  0.26000000000E-02 0.  1.
         -2   -1    0    0    0  501 -0.00000000000E+00 -0.00000000000E+00 -0.12371773837E+02  0.12371774110E+02  0.26000000000E-02 0. -1.
        -11    1    1    2    0    0  0.14269588235E+02 -0.14126474095E+01  0.27297883352E+02  0.30834901603E+02  0.51100000000E-03 0.  1.
         11    1    1    2    0    0 -0.14269588235E+02  0.14126474095E+01 -0.57553071377E+01  0.15451222658E+02  0.51100000000E-03 0. -1.
<mgrwt>
<rscale>  0 0.40967337E+02</rscale>
<asrwt>0</asrwt>
<pdfrwt beam="1">  1        2 0.52175923E-02 0.40967337E+02</pdfrwt>
<pdfrwt beam="2">  1       -2 0.19033499E-02 0.40967337E+02</pdfrwt>
<totfact> 0.79810359E+05</totfact>
</mgrwt>
</event>
<event>
 4    1  0.1433582E+000  0.3129539E+02  0.7818608E-02  0.1584196E+00
         -2   -1    0    0    0  501 -0.00000000000E+00  0.00000000000E+00  0.39458639867E+02  0.39458639953E+02  0.26000000000E-02 0. -1.
          2   -1    0    0  501    0  0.00000000000E+00 -0.00000000000E+00 -0.62052399719E+01  0.62052405166E+01  0.26000000000E-02 0.  1.
        -11    1    1    2    0    0 -0.89208539086E+01 -0.10498853800E+02  0.27452067026E+02  0.30715200631E+02  0.51100000000E-03 0. -1.
         11    1    1    2    0    0  0.89208539086E+01  0.10498853800E+02  0.58013328694E+01  0.14948679838E+02  0.51100000000E-03 0.  1.
<mgrwt>
<rscale>  0 0.31295389E+02</rscale>
<asrwt>0</asrwt>
<pdfrwt beam="2">  1        2 0.95465240E-03 0.31295389E+02</pdfrwt>
<pdfrwt beam="1">  1       -2 0.60705597E-02 0.31295389E+02</pdfrwt>
<totfact> 0.12762635E+06</totfact>
</mgrwt>
</event>
<event>
 4    1  0.1433582E+000  0.2831886E+02  0.7818608E-02  0.1617451E+00
          2   -1    0    0  501    0  0.00000000000E+00  0.00000000000E+00  0.40008685674E+01  0.40008694123E+01  0.26000000000E-02 0.  1.
         -2   -1    0    0    0  501 -0.00000000000E+00 -0.00000000000E+00 -0.50111470519E+02  0.50111470586E+02  0.26000000000E-02 0. -1.
        -11    1    1    2    0    0 -0.14095778707E+02  0.42962188929E+00 -0.25482783500E+02  0.29124694118E+02  0.51100000000E-03 0. -1.
         11    1    1    2    0    0  0.14095778707E+02 -0.42962188929E+00 -0.20627818451E+02  0.24987645880E+02  0.51100000000E-03 0.  1.
<mgrwt>
<rscale>  0 0.28318858E+02</rscale>
<asrwt>0</asrwt>
<pdfrwt beam="1">  1        2 0.61551835E-03 0.28318858E+02</pdfrwt>
<pdfrwt beam="2">  1       -2 0.77094566E-02 0.28318858E+02</pdfrwt>
<totfact> 0.15538213E+06</totfact>
</mgrwt>
</event>
<event>
 4    1  0.1433582E+000  0.2462851E+02  0.7818608E-02  0.1666396E+00
          2   -1    0    0  501    0  0.00000000000E+00  0.00000000000E+00  0.16009056893E+01  0.16009078006E+01  0.26000000000E-02 0.  1.
         -2   -1    0    0    0  501 -0.00000000000E+00 -0.00000000000E+00 -0.94721827916E+02  0.94721827952E+02  0.26000000000E-02 0. -1.
        -11    1    1    2    0    0  0.61298424218E+01  0.10400490026E+02 -0.37064109128E+02  0.38980679145E+02  0.51100000000E-03 0.  1.
         11    1    1    2    0    0 -0.61298424218E+01 -0.10400490026E+02 -0.56056813099E+02  0.57342056607E+02  0.51100000000E-03 0. -1.
<mgrwt>
<rscale>  0 0.24628505E+02</rscale>
<asrwt>0</asrwt>
<pdfrwt beam="1">  1        2 0.24629342E-03 0.24628505E+02</pdfrwt>
<pdfrwt beam="2">  1       -2 0.14572585E-01 0.24628505E+02</pdfrwt>
<totfact> 0.18975051E+06</totfact>
</mgrwt>
</event>
<event>
 4    1  0.1433582E+000  0.3345916E+02  0.7818608E-02  0.1562725E+00
         -2   -1    0    0    0  501 -0.00000000000E+00  0.00000000000E+00  0.16661048019E+02  0.16661048222E+02  0.26000000000E-02 0. -1.
          2   -1    0    0  501    0  0.00000000000E+00 -0.00000000000E+00 -0.16798390158E+02  0.16798390360E+02  0.26000000000E-02 0.  1.
        -11    1    1    2    0    0 -0.12085088308E+02 -0.40618995166E+01  0.10763336196E+02  0.16685256768E+02  0.51100000000E-03 0. -1.
         11    1    1    2    0    0  0.12085088308E+02  0.40618995166E+01 -0.10900678335E+02  0.16774181814E+02  0.51100000000E-03 0.  1.
<mgrwt>
<rscale>  0 0.33459157E+02</rscale>
<asrwt>0</asrwt>
<pdfrwt beam="2">  1        2 0.25843677E-02 0.33459157E+02</pdfrwt>
<pdfrwt beam="1">  1       -2 0.25632382E-02 0.33459157E+02</pdfrwt>
<totfact> 0.12106455E+06</totfact>
</mgrwt>
</event>
<event>
 4    1  0.1433582E+000  0.2301365E+02  0.7818608E-02  0.1691289E+00
          2   -1    0    0  501    0  0.00000000000E+00  0.00000000000E+00  0.46499401680E+02  0.46499401753E+02  0.26000000000E-02 0. -1.
         -2   -1    0    0    0  501 -0.00000000000E+00 -0.00000000000E+00 -0.28474984297E+01  0.28474996167E+01  0.26000000000E-02 0.  1.
        -11    1    1    2    0    0 -0.63553698428E+01 -0.92269597365E+01  0.27450046070E+02  0.29648482952E+02  0.51100000000E-03 0. -1.
         11    1    1    2    0    0  0.63553698428E+01  0.92269597365E+01  0.16201857180E+02  0.19698418418E+02  0.51100000000E-03 0.  1.
<mgrwt>
<rscale>  0 0.23013649E+02</rscale>
<asrwt>0</asrwt>
<pdfrwt beam="1">  1        2 0.71537541E-02 0.23013649E+02</pdfrwt>
<pdfrwt beam="2">  1       -2 0.43807679E-03 0.23013649E+02</pdfrwt>
<totfact> 0.33382539E+06</totfact>
</mgrwt>
</event>
<event>
 4    1  0.1433582E+000  0.8262722E+02  0.7818608E-02  0.1321757E+00
         -2   -1    0    0    0  501 -0.00000000000E+00  0.00000000000E+00  0.10182491408E+03  0.10182491411E+03  0.26000000000E-02 0.  1.
          2   -1    0    0  501    0  0.00000000000E+00 -0.00000000000E+00 -0.16762247868E+02  0.16762248069E+02  0.26000000000E-02 0. -1.
        -11    1    1    2    0    0 -0.86884268094E+01  0.40356002737E+02  0.44897790988E+02  0.60991043222E+02  0.51100000000E-03 0. -1.
         11    1    1    2    0    0  0.86884268094E+01 -0.40356002737E+02  0.40164875225E+02  0.57596118962E+02  0.51100000000E-03 0.  1.
<mgrwt>
<rscale>  0 0.82627222E+02</rscale>
<asrwt>0</asrwt>
<pdfrwt beam="2">  1        2 0.25788074E-02 0.82627222E+02</pdfrwt>
<pdfrwt beam="1">  1       -2 0.15665371E-01 0.82627222E+02</pdfrwt>
<totfact> 0.10143144E+05</totfact>
</mgrwt>
</event>
<event>
 4    1  0.1433582E+000  0.4057415E+02  0.7818608E-02  0.1504028E+00
          2   -1    0    0  501    0  0.00000000000E+00  0.00000000000E+00  0.62593321861E+01  0.62593327261E+01  0.26000000000E-02 0.  1.
         -2   -1    0    0    0  501 -0.00000000000E+00 -0.00000000000E+00 -0.65752284348E+02  0.65752284399E+02  0.26000000000E-02 0. -1.
        -11    1    1    2    0    0  0.12346042464E+02 -0.69182066871E+01 -0.39487537260E+01  0.14692821531E+02  0.51100000000E-03 0.  1.
         11    1    1    2    0    0 -0.12346042464E+02  0.69182066871E+01 -0.55544198435E+02  0.57318795594E+02  0.51100000000E-03 0. -1.
<mgrwt>
<rscale>  0 0.40574150E+02</rscale>
<asrwt>0</asrwt>
<pdfrwt beam="1">  1        2 0.96297428E-03 0.40574150E+02</pdfrwt>
<pdfrwt beam="2">  1       -2 0.10115736E-01 0.40574150E+02</pdfrwt>
<totfact> 0.64011552E+05</totfact>
</mgrwt>
</event>
<event>
 4    1  0.1433582E+000  0.2309336E+02  0.7818608E-02  0.1690001E+00
         -2   -1    0    0    0  501 -0.00000000000E+00  0.00000000000E+00  0.20902838908E+02  0.20902839070E+02  0.26000000000E-02 0.  1.
          2   -1    0    0  501    0  0.00000000000E+00 -0.00000000000E+00 -0.63783593065E+01  0.63783598364E+01  0.26000000000E-02 0. -1.
        -11    1    1    2    0    0 -0.61100465040E+01 -0.83264796089E+01  0.11622379379E+01  0.10392965325E+02  0.51100000000E-03 0. -1.
         11    1    1    2    0    0  0.61100465040E+01  0.83264796089E+01  0.13362241664E+02  0.16888233582E+02  0.51100000000E-03 0.  1.
<mgrwt>
<rscale>  0 0.23093361E+02</rscale>
<asrwt>0</asrwt>
<pdfrwt beam="2">  1        2 0.98128609E-03 0.23093361E+02</pdfrwt>
<pdfrwt beam="1">  1       -2 0.32158214E-02 0.23093361E+02</pdfrwt>
<totfact> 0.27203421E+06</totfact>
</mgrwt>
</event>
<event>
 4    1  0.1433582E+000  0.2540097E+02  0.7818608E-02  0.1655309E+00
          2   -1    0    0  501    0  0.00000000000E+00  0.00000000000E+00  0.78007016833E+02  0.78007016876E+02  0.26000000000E-02 0. -1.
         -2   -1    0    0    0  501 -0.00000000000E+00 -0.00000000000E+00 -0.20677910236E+01  0.20677926582E+01  0.26000000000E-02 0.  1.
        -11    1    1    2    0    0 -0.10397454313E+02 -0.40284216831E+01  0.57136562522E+02  0.58214448504E+02  0.51100000000E-03 0. -1.
         11    1    1    2    0    0  0.10397454313E+02  0.40284216831E+01  0.18802663287E+02  0.21860361031E+02  0.51100000000E-03 0.  1.
<mgrwt>
<rscale>  0 0.25400967E+02</rscale>
<asrwt>0</asrwt>
<pdfrwt beam="1">  1        2 0.12001079E-01 0.25400967E+02</pdfrwt>
<pdfrwt beam="2">  1       -2 0.31812183E-03 0.25400967E+02</pdfrwt>
<totfact> 0.29148147E+06</totfact>
</mgrwt>
</event>
<event>
 4    1  0.1433582E+000  0.2380877E+02  0.7818608E-02  0.1678726E+00
          2   -1    0    0  501    0  0.00000000000E+00  0.00000000000E+00  0.20374435736E+02  0.20374435902E+02  0.26000000000E-02 0. -1.
         -2   -1    0    0    0  501 -0.00000000000E+00 -0.00000000000E+00 -0.69554968311E+01  0.69554973171E+01  0.26000000000E-02 0.  1.
        -11    1    1    2    0    0  0.82379490582E+01 -0.77508234957E+01  0.24490571879E+01  0.11573113277E+02  0.51100000000E-03 0.  1.
         11    1    1    2    0    0 -0.82379490582E+01  0.77508234957E+01  0.10969881717E+02  0.15756819942E+02  0.51100000000E-03 0. -1.
<mgrwt>
<rscale>  0 0.23808766E+02</rscale>
<asrwt>0</asrwt>
<pdfrwt beam="1">  1        2 0.31345286E-02 0.23808766E+02</pdfrwt>
<pdfrwt beam="2">  1       -2 0.10700765E-02 0.23808766E+02</pdfrwt>
<totfact> 0.27997370E+06</totfact>
</mgrwt>
</event>
<event>
 4    1  0.1433582E+000  0.2122166E+02  0.7818608E-02  0.1722071E+00
          2   -1    0    0  501    0  0.00000000000E+00  0.00000000000E+00  0.13914806273E+01  0.13914830563E+01  0.26000000000E-02 0. -1.
         -2   -1    0    0    0  501 -0.00000000000E+00 -0.00000000000E+00 -0.80913503045E+02  0.80913503087E+02  0.26000000000E-02 0.  1.
        -11    1    1    2    0    0 -0.45597473671E+01  0.94369670831E+01 -0.46183198111E+02  0.47357527721E+02  0.51100000000E-03 0. -1.
         11    1    1    2    0    0  0.45597473671E+01 -0.94369670831E+01 -0.33338824307E+02  0.34947458422E+02  0.51100000000E-03 0.  1.
<mgrwt>
<rscale>  0 0.21221656E+02</rscale>
<asrwt>0</asrwt>
<pdfrwt beam="1">  1        2 0.21407420E-03 0.21221656E+02</pdfrwt>
<pdfrwt beam="2">  1       -2 0.12448228E-01 0.21221656E+02</pdfrwt>
<totfact> 0.27379726E+06</totfact>
</mgrwt>
</event>
<event>
 4    1  0.1433582E+000  0.3771343E+02  0.7818608E-02  0.1525745E+00
          2   -1    0    0  501    0  0.00000000000E+00  0.00000000000E+00  0.16216574269E+03  0.16216574271E+03  0.26000000000E-02 0. -1.
         -2   -1    0    0    0  501 -0.00000000000E+00 -0.00000000000E+00 -0.21926677332E+01  0.21926692747E+01  0.26000000000E-02 0.  1.
        -11    1    1    2    0    0 -0.18387022481E+01 -0.17889949918E+02  0.10469523239E+03  0.10622863465E+03  0.51100000000E-03 0. -1.
         11    1    1    2    0    0  0.18387022481E+01  0.17889949918E+02  0.55277842566E+02  0.58129777335E+02  0.51100000000E-03 0.  1.
<mgrwt>
<rscale>  0 0.37713431E+02</rscale>
<asrwt>0</asrwt>
<pdfrwt beam="1">  1        2 0.24948571E-01 0.37713431E+02</pdfrwt>
<pdfrwt beam="2">  1       -2 0.33733369E-03 0.37713431E+02</pdfrwt>
<totfact> 0.13792953E+06</totfact>
</mgrwt>
</event>
<event>
 4    1  0.1433582E+000  0.5247662E+02  0.7818608E-02  0.1432423E+00
          2   -1    0    0  501    0  0.00000000000E+00  0.00000000000E+00  0.42340429182E+02  0.42340429262E+02  0.26000000000E-02 0.  1.
         -2   -1    0    0    0  501 -0.00000000000E+00 -0.00000000000E+00 -0.16259846105E+02  0.16259846312E+02  0.26000000000E-02 0. -1.
        -11    1    1    2    0    0 -0.11894740840E+02  0.14036164909E+02  0.33930215961E+02  0.38597387741E+02  0.51100000000E-03 0.  1.
         11    1    1    2    0    0  0.11894740840E+02 -0.14036164909E+02 -0.78496328839E+01  0.20002887833E+02  0.51100000000E-03 0. -1.
<mgrwt>
<rscale>  0 0.52476618E+02</rscale>
<asrwt>0</asrwt>
<pdfrwt beam="1">  1        2 0.65139120E-02 0.52476618E+02</pdfrwt>
<pdfrwt beam="2">  1       -2 0.25015149E-02 0.52476618E+02</pdfrwt>
<totfact> 0.43887849E+05</totfact>
</mgrwt>
</event>
<event>
 4    1  0.1433582E+000  0.2225522E+02  0.7818608E-02  0.1703875E+00
          2   -1    0    0  501    0  0.00000000000E+00  0.00000000000E+00  0.81346792965E+01  0.81346797120E+01  0.26000000000E-02 0.  1.
         -2   -1    0    0    0  501 -0.00000000000E+00 -0.00000000000E+00 -0.15221701369E+02  0.15221701592E+02  0.26000000000E-02 0. -1.
        -11    1    1    2    0    0 -0.65979799384E+01  0.89542615534E+01 -0.38939913444E+01  0.11784536821E+02  0.51100000000E-03 0. -1.
         11    1    1    2    0    0  0.65979799384E+01 -0.89542615534E+01 -0.31930307285E+01  0.11571844483E+02  0.51100000000E-03 0.  1.
<mgrwt>
<rscale>  0 0.22255217E+02</rscale>
<asrwt>0</asrwt>
<pdfrwt beam="1">  1        2 0.12514892E-02 0.22255217E+02</pdfrwt>
<pdfrwt beam="2">  1       -2 0.23418003E-02 0.22255217E+02</pdfrwt>
<totfact> 0.30316939E+06</totfact>
</mgrwt>
</event>
<event>
 4    1  0.1433582E+000  0.2239950E+02  0.7818608E-02  0.1701433E+00
         -2   -1    0    0    0  501 -0.00000000000E+00  0.00000000000E+00  0.14551249190E+01  0.14551272418E+01  0.26000000000E-02 0. -1.
          2   -1    0    0  501    0  0.00000000000E+00 -0.00000000000E+00 -0.86201712778E+02  0.86201712817E+02  0.26000000000E-02 0.  1.
        -11    1    1    2    0    0 -0.64491400550E+01 -0.90093583233E+01 -0.35973555076E+02  0.37641155799E+02  0.51100000000E-03 0. -1.
         11    1    1    2    0    0  0.64491400550E+01  0.90093583233E+01 -0.48773032783E+02  0.50015684260E+02  0.51100000000E-03 0.  1.
<mgrwt>
<rscale>  0 0.22399497E+02</rscale>
<asrwt>0</asrwt>
<pdfrwt beam="2">  1        2 0.13261798E-01 0.22399497E+02</pdfrwt>
<pdfrwt beam="1">  1       -2 0.22386562E-03 0.22399497E+02</pdfrwt>
<totfact> 0.39654389E+06</totfact>
</mgrwt>
</event>
<event>
 4    1  0.1433582E+000  0.4082600E+02  0.7818608E-02  0.1502219E+00
         -2   -1    0    0    0  501 -0.00000000000E+00  0.00000000000E+00  0.41537340476E+01  0.41537348613E+01  0.26000000000E-02 0.  1.
          2   -1    0    0  501    0  0.00000000000E+00 -0.00000000000E+00 -0.10031708601E+03  0.10031708605E+03  0.26000000000E-02 0. -1.
        -11    1    1    2    0    0 -0.10382974132E+02  0.10659038083E+02 -0.83839836568E+02  0.85150099475E+02  0.51100000000E-03 0. -1.
         11    1    1    2    0    0  0.10382974132E+02 -0.10659038083E+02 -0.12323515399E+02  0.19320721434E+02  0.51100000000E-03 0.  1.
<mgrwt>
<rscale>  0 0.40825999E+02</rscale>
<asrwt>0</asrwt>
<pdfrwt beam="2">  1        2 0.15433396E-01 0.40825999E+02</pdfrwt>
<pdfrwt beam="1">  1       -2 0.63903615E-03 0.40825999E+02</pdfrwt>
<totfact> 0.99437115E+05</totfact>
</mgrwt>
</event>
<event>
 4    1  0.1433582E+000  0.2432817E+02  0.7818608E-02  0.1670843E+00
          2   -1    0    0  501    0  0.00000000000E+00  0.00000000000E+00  0.18543955583E+01  0.18543973810E+01  0.26000000000E-02 0.  1.
         -2   -1    0    0    0  501 -0.00000000000E+00 -0.00000000000E+00 -0.79791439222E+02  0.79791439265E+02  0.26000000000E-02 0. -1.
        -11    1    1    2    0    0  0.89465603592E+01  0.65733453463E+01 -0.55652755649E+02  0.56749264514E+02  0.51100000000E-03 0. -1.
         11    1    1    2    0    0 -0.89465603592E+01 -0.65733453463E+01 -0.22284288015E+02  0.24896572132E+02  0.51100000000E-03 0.  1.
<mgrwt>
<rscale>  0 0.24328170E+02</rscale>
<asrwt>0</asrwt>
<pdfrwt beam="1">  1        2 0.28529183E-03 0.24328170E+02</pdfrwt>
<pdfrwt beam="2">  1       -2 0.12275604E-01 0.24328170E+02</pdfrwt>
<totfact> 0.20250470E+06</totfact>
</mgrwt>
</event>
<event>
 4    1  0.1433582E+000  0.4488341E+02  0.7818608E-02  0.1475071E+00
         -2   -1    0    0    0  501 -0.00000000000E+00  0.00000000000E+00  0.73508377589E+01  0.73508382187E+01  0.26000000000E-02 0. -1.
          2   -1    0    0  501    0  0.00000000000E+00 -0.00000000000E+00 -0.68513307478E+02  0.68513307527E+02  0.26000000000E-02 0.  1.
        -11    1    1    2    0    0 -0.93007397215E+01 -0.15406638794E+02 -0.53243304282E+02  0.56202470848E+02  0.51100000000E-03 0.  1.
         11    1    1    2    0    0  0.93007397215E+01  0.15406638794E+02 -0.79191654368E+01  0.19661674898E+02  0.51100000000E-03 0. -1.
<mgrwt>
<rscale>  0 0.44883415E+02</rscale>
<asrwt>0</asrwt>
<pdfrwt beam="2">  1        2 0.10540508E-01 0.44883415E+02</pdfrwt>
<pdfrwt beam="1">  1       -2 0.11308982E-02 0.44883415E+02</pdfrwt>
<totfact> 0.71905399E+05</totfact>
</mgrwt>
</event>
<event>
 4    1  0.1433582E+000  0.4354776E+02  0.7818608E-02  0.1483617E+00
         -2   -1    0    0    0  501 -0.00000000000E+00  0.00000000000E+00  0.54950685683E+01  0.54950691834E+01  0.26000000000E-02 0. -1.
          2   -1    0    0  501    0  0.00000000000E+00 -0.00000000000E+00 -0.86277709145E+02  0.86277709184E+02  0.26000000000E-02 0.  1.
        -11    1    1    2    0    0  0.18714351090E+02 -0.96297086426E+01 -0.28630615790E+02  0.35534073592E+02  0.51100000000E-03 0.  1.
         11    1    1    2    0    0 -0.18714351090E+02  0.96297086426E+01 -0.52152024787E+02  0.56238704776E+02  0.51100000000E-03 0. -1.
<mgrwt>
<rscale>  0 0.43547765E+02</rscale>
<asrwt>0</asrwt>
<pdfrwt beam="2">  1        2 0.13273493E-01 0.43547765E+02</pdfrwt>
<pdfrwt beam="1">  1       -2 0.84539528E-03 0.43547765E+02</pdfrwt>
<totfact> 0.81678332E+05</totfact>
</mgrwt>
</event>
<event>
 4    1  0.1433582E+000  0.2466088E+02  0.7818608E-02  0.1665921E+00
         -2   -1    0    0    0  501 -0.00000000000E+00  0.00000000000E+00  0.18388174159E+02  0.18388174343E+02  0.26000000000E-02 0. -1.
          2   -1    0    0  501    0  0.00000000000E+00 -0.00000000000E+00 -0.82683442881E+01  0.82683446969E+01  0.26000000000E-02 0.  1.
        -11    1    1    2    0    0  0.95726913376E+01 -0.32195235817E+01 -0.25862712255E+01  0.10425476040E+02  0.51100000000E-03 0. -1.
         11    1    1    2    0    0 -0.95726913376E+01  0.32195235817E+01  0.12706101096E+02  0.16231043000E+02  0.51100000000E-03 0.  1.
<mgrwt>
<rscale>  0 0.24660881E+02</rscale>
<asrwt>0</asrwt>
<pdfrwt beam="2">  1        2 0.12720530E-02 0.24660881E+02</pdfrwt>
<pdfrwt beam="1">  1       -2 0.28289499E-02 0.24660881E+02</pdfrwt>
<totfact> 0.23790921E+06</totfact>
</mgrwt>
</event>
<event>
 4    1  0.1433582E+000  0.2069511E+02  0.7818608E-02  0.1731848E+00
         -2   -1    0    0    0  501 -0.00000000000E+00  0.00000000000E+00  0.59261432450E+01  0.59261438153E+01  0.26000000000E-02 0. -1.
          2   -1    0    0  501    0  0.00000000000E+00 -0.00000000000E+00 -0.18067710043E+02  0.18067710230E+02  0.26000000000E-02 0.  1.
        -11    1    1    2    0    0 -0.10300976536E+02  0.22425434290E+00 -0.71776522959E+01  0.12557033899E+02  0.51100000000E-03 0. -1.
         11    1    1    2    0    0  0.10300976536E+02 -0.22425434290E+00 -0.49639145023E+01  0.11436820146E+02  0.51100000000E-03 0.  1.
<mgrwt>
<rscale>  0 0.20695105E+02</rscale>
<asrwt>0</asrwt>
<pdfrwt beam="2">  1        2 0.27796477E-02 0.20695105E+02</pdfrwt>
<pdfrwt beam="1">  1       -2 0.91171441E-03 0.20695105E+02</pdfrwt>
<totfact> 0.38233406E+06</totfact>
</mgrwt>
</event>
<event>
 4    1  0.1433582E+000  0.2315347E+02  0.7818608E-02  0.1689034E+00
          2   -1    0    0  501    0  0.00000000000E+00  0.00000000000E+00  0.18421627369E+02  0.18421627552E+02  0.26000000000E-02 0. -1.
         -2   -1    0    0    0  501 -0.00000000000E+00 -0.00000000000E+00 -0.72751894330E+01  0.72751898976E+01  0.26000000000E-02 0.  1.
        -11    1    1    2    0    0  0.48725495817E+01  0.10413980032E+02  0.40726180404E+01  0.12197497182E+02  0.51100000000E-03 0.  1.
         11    1    1    2    0    0 -0.48725495817E+01 -0.10413980032E+02  0.70738198952E+01  0.13499320268E+02  0.51100000000E-03 0. -1.
<mgrwt>
<rscale>  0 0.23153474E+02</rscale>
<asrwt>0</asrwt>
<pdfrwt beam="1">  1        2 0.28340965E-02 0.23153474E+02</pdfrwt>
<pdfrwt beam="2">  1       -2 0.11192600E-02 0.23153474E+02</pdfrwt>
<totfact> 0.29591962E+06</totfact>
</mgrwt>
</event>
<event>
 4    1  0.1433582E+000  0.4301874E+02  0.7818608E-02  0.1487103E+00
         -2   -1    0    0    0  501 -0.00000000000E+00  0.00000000000E+00  0.26854964709E+02  0.26854964835E+02  0.26000000000E-02 0.  1.
          2   -1    0    0  501    0  0.00000000000E+00 -0.00000000000E+00 -0.17227834885E+02  0.17227835081E+02  0.26000000000E-02 0. -1.
        -11    1    1    2    0    0 -0.89955421405E+01  0.14994943309E+02 -0.80216151219E+01  0.19238357848E+02  0.51100000000E-03 0. -1.
         11    1    1    2    0    0  0.89955421405E+01 -0.14994943309E+02  0.17648744946E+02  0.24844442068E+02  0.51100000000E-03 0.  1.
<mgrwt>
<rscale>  0 0.43018736E+02</rscale>
<asrwt>0</asrwt>
<pdfrwt beam="2">  1        2 0.26504362E-02 0.43018736E+02</pdfrwt>
<pdfrwt beam="1">  1       -2 0.41315331E-02 0.43018736E+02</pdfrwt>
<totfact> 0.64051149E+05</totfact>
</mgrwt>
</event>
<event>
 4    1  0.1433582E+000  0.3420802E+02  0.7818608E-02  0.1555748E+00
         -2   -1    0    0    0  501 -0.00000000000E+00  0.00000000000E+00  0.10802128636E+02  0.10802128949E+02  0.26000000000E-02 0. -1.
          2   -1    0    0  501    0  0.00000000000E+00 -0.00000000000E+00 -0.27082360646E+02  0.27082360771E+02  0.26000000000E-02 0.  1.
        -11    1    1    2    0    0  0.10642378779E+02 -0.97330253551E+00  0.66495175166E+01  0.12586644802E+02  0.51100000000E-03 0. -1.
         11    1    1    2    0    0 -0.10642378779E+02  0.97330253551E+00 -0.22929749527E+02  0.25297844919E+02  0.51100000000E-03 0.  1.
<mgrwt>
<rscale>  0 0.34208020E+02</rscale>
<asrwt>0</asrwt>
<pdfrwt beam="2">  1        2 0.41665170E-02 0.34208020E+02</pdfrwt>
<pdfrwt beam="1">  1       -2 0.16618660E-02 0.34208020E+02</pdfrwt>
<totfact> 0.12126627E+06</totfact>
</mgrwt>
</event>
<event>
 4    1  0.1433582E+000  0.5283678E+02  0.7818608E-02  0.1430615E+00
          2   -1    0    0  501    0  0.00000000000E+00  0.00000000000E+00  0.61716005836E+02  0.61716005891E+02  0.26000000000E-02 0.  1.
         -2   -1    0    0    0  501 -0.00000000000E+00 -0.00000000000E+00 -0.11308755378E+02  0.11308755677E+02  0.26000000000E-02 0. -1.
        -11    1    1    2    0    0 -0.81287856408E+00 -0.19446819018E+02  0.49891947642E+02  0.53554140654E+02  0.51100000000E-03 0.  1.
         11    1    1    2    0    0  0.81287856408E+00  0.19446819018E+02  0.51530281581E+00  0.19470620913E+02  0.51100000000E-03 0. -1.
<mgrwt>
<rscale>  0 0.52836776E+02</rscale>
<asrwt>0</asrwt>
<pdfrwt beam="1">  1        2 0.94947701E-02 0.52836776E+02</pdfrwt>
<pdfrwt beam="2">  1       -2 0.17398086E-02 0.52836776E+02</pdfrwt>
<totfact> 0.46422333E+05</totfact>
</mgrwt>
</event>
<event>
 4    1  0.1433582E+000  0.4039551E+02  0.7818608E-02  0.1505321E+00
         -2   -1    0    0    0  501 -0.00000000000E+00  0.00000000000E+00  0.11984979075E+02  0.11984979357E+02  0.26000000000E-02 0. -1.
          2   -1    0    0  501    0  0.00000000000E+00 -0.00000000000E+00 -0.34038385208E+02  0.34038385307E+02  0.26000000000E-02 0.  1.
        -11    1    1    2    0    0  0.12681944732E+02  0.58667489865E+01 -0.27642755331E+02  0.30973737075E+02  0.51100000000E-03 0.  1.
         11    1    1    2    0    0 -0.12681944732E+02 -0.58667489865E+01  0.55893491980E+01  0.15049627589E+02  0.51100000000E-03 0. -1.
<mgrwt>
<rscale>  0 0.40395512E+02</rscale>
<asrwt>0</asrwt>
<pdfrwt beam="2">  1        2 0.52366746E-02 0.40395512E+02</pdfrwt>
<pdfrwt beam="1">  1       -2 0.18438430E-02 0.40395512E+02</pdfrwt>
<totfact> 0.82729353E+05</totfact>
</mgrwt>
</event>
<event>
 4    1  0.1433582E+000  0.3759490E+02  0.7818608E-02  0.1526695E+00
          2   -1    0    0  501    0  0.00000000000E+00  0.00000000000E+00  0.88815128859E+01  0.88815132665E+01  0.26000000000E-02 0.  1.
         -2   -1    0    0    0  501 -0.00000000000E+00 -0.00000000000E+00 -0.39784224018E+02  0.39784224103E+02  0.26000000000E-02 0. -1.
        -11    1    1    2    0    0  0.19862301584E+01 -0.14412708897E+02 -0.43661168812E-01  0.14548992905E+02  0.51100000000E-03 0.  1.
         11    1    1    2    0    0 -0.19862301584E+01  0.14412708897E+02 -0.30859049963E+02  0.34116744465E+02  0.51100000000E-03 0. -1.
<mgrwt>
<rscale>  0 0.37594899E+02</rscale>
<asrwt>0</asrwt>
<pdfrwt beam="1">  1        2 0.13663867E-02 0.37594899E+02</pdfrwt>
<pdfrwt beam="2">  1       -2 0.61206498E-02 0.37594899E+02</pdfrwt>
<totfact> 0.83171134E+05</totfact>
</mgrwt>
</event>
<event>
 4    1  0.1433582E+000  0.2682159E+02  0.7818608E-02  0.1636137E+00
         -2   -1    0    0    0  501 -0.00000000000E+00  0.00000000000E+00  0.26401975157E+02  0.26401975285E+02  0.26000000000E-02 0.  1.
          2   -1    0    0  501    0  0.00000000000E+00 -0.00000000000E+00 -0.68119703304E+01  0.68119708265E+01  0.26000000000E-02 0. -1.
        -11    1    1    2    0    0 -0.90046077846E+01  0.47730386180E+01  0.20589408216E+02  0.22973649905E+02  0.51100000000E-03 0.  1.
         11    1    1    2    0    0  0.90046077846E+01 -0.47730386180E+01 -0.99940338946E+00  0.10240296207E+02  0.51100000000E-03 0. -1.
<mgrwt>
<rscale>  0 0.26821594E+02</rscale>
<asrwt>0</asrwt>
<pdfrwt beam="2">  1        2 0.10479955E-02 0.26821594E+02</pdfrwt>
<pdfrwt beam="1">  1       -2 0.40618423E-02 0.26821594E+02</pdfrwt>
<totfact> 0.19031001E+06</totfact>
</mgrwt>
</event>
<event>
 4    1  0.1433582E+000  0.2659670E+02  0.7818608E-02  0.1639073E+00
          2   -1    0    0  501    0  0.00000000000E+00  0.00000000000E+00  0.38238515063E+02  0.38238515151E+02  0.26000000000E-02 0. -1.
         -2   -1    0    0    0  501 -0.00000000000E+00 -0.00000000000E+00 -0.46248172822E+01  0.46248180130E+01  0.26000000000E-02 0.  1.
        -11    1    1    2    0    0  0.11844579804E+02  0.55426771991E+01  0.12915295523E+02  0.18379885745E+02  0.51100000000E-03 0.  1.
         11    1    1    2    0    0 -0.11844579804E+02 -0.55426771991E+01  0.20698402258E+02  0.24483447420E+02  0.51100000000E-03 0. -1.
<mgrwt>
<rscale>  0 0.26596704E+02</rscale>
<asrwt>0</asrwt>
<pdfrwt beam="1">  1        2 0.58828487E-02 0.26596704E+02</pdfrwt>
<pdfrwt beam="2">  1       -2 0.71151039E-03 0.26596704E+02</pdfrwt>
<totfact> 0.23220581E+06</totfact>
</mgrwt>
</event>
<event>
 4    1  0.1433582E+000  0.2911347E+02  0.7818608E-02  0.1608100E+00
         -2   -1    0    0    0  501 -0.00000000000E+00  0.00000000000E+00  0.28047217882E+02  0.28047218002E+02  0.26000000000E-02 0.  1.
          2   -1    0    0  501    0  0.00000000000E+00 -0.00000000000E+00 -0.75550642532E+01  0.75550647005E+01  0.26000000000E-02 0. -1.
        -11    1    1    2    0    0 -0.77643354891E+01  0.12312413912E+02  0.10081549966E+02  0.17706442102E+02  0.51100000000E-03 0. -1.
         11    1    1    2    0    0  0.77643354891E+01 -0.12312413912E+02  0.10410603662E+02  0.17895840601E+02  0.51100000000E-03 0.  1.
<mgrwt>
<rscale>  0 0.29113471E+02</rscale>
<asrwt>0</asrwt>
<pdfrwt beam="2">  1        2 0.11623176E-02 0.29113471E+02</pdfrwt>
<pdfrwt beam="1">  1       -2 0.43149567E-02 0.29113471E+02</pdfrwt>
<totfact> 0.15699834E+06</totfact>
</mgrwt>
</event>
<event>
 4    1  0.1433582E+000  0.6504992E+02  0.7818608E-02  0.1377784E+00
         -2   -1    0    0    0  501 -0.00000000000E+00  0.00000000000E+00  0.17790460141E+03  0.17790460142E+03  0.26000000000E-02 0. -1.
          2   -1    0    0  501    0  0.00000000000E+00 -0.00000000000E+00 -0.59462933645E+01  0.59462939329E+01  0.26000000000E-02 0.  1.
        -11    1    1    2    0    0 -0.23600505420E+02  0.14239192459E+02  0.37178556703E+02  0.46281568003E+02  0.51100000000E-03 0.  1.
         11    1    1    2    0    0  0.23600505420E+02 -0.14239192459E+02  0.13477975134E+03  0.13756932735E+03  0.51100000000E-03 0. -1.
<mgrwt>
<rscale>  0 0.65049919E+02</rscale>
<asrwt>0</asrwt>
<pdfrwt beam="2">  1        2 0.91481456E-03 0.65049919E+02</pdfrwt>
<pdfrwt beam="1">  1       -2 0.27369934E-01 0.65049919E+02</pdfrwt>
<totfact> 0.15367688E+05</totfact>
</mgrwt>
</event>
<event>
 4    1  0.1433582E+000  0.4626393E+02  0.7818608E-02  0.1466602E+00
         -2   -1    0    0    0  501 -0.00000000000E+00  0.00000000000E+00  0.24269697961E+02  0.24269698100E+02  0.26000000000E-02 0. -1.
          2   -1    0    0  501    0  0.00000000000E+00 -0.00000000000E+00 -0.22047566433E+02  0.22047566586E+02  0.26000000000E-02 0.  1.
        -11    1    1    2    0    0 -0.14805789361E+02  0.10195212836E+01  0.18875167283E+02  0.24010888415E+02  0.51100000000E-03 0. -1.
         11    1    1    2    0    0  0.14805789361E+02 -0.10195212836E+01 -0.16653035755E+02  0.22306376272E+02  0.51100000000E-03 0.  1.
<mgrwt>
<rscale>  0 0.46263929E+02</rscale>
<asrwt>0</asrwt>
<pdfrwt beam="2">  1        2 0.33919333E-02 0.46263929E+02</pdfrwt>
<pdfrwt beam="1">  1       -2 0.37337997E-02 0.46263929E+02</pdfrwt>
<totfact> 0.54858684E+05</totfact>
</mgrwt>
</event>
<event>
 4    1  0.1433582E+000  0.2281654E+02  0.7818608E-02  0.1694501E+00
          2   -1    0    0  501    0  0.00000000000E+00  0.00000000000E+00  0.39427126416E+01  0.39427134989E+01  0.26000000000E-02 0. -1.
         -2   -1    0    0    0  501 -0.00000000000E+00 -0.00000000000E+00 -0.33009927780E+02  0.33009927882E+02  0.26000000000E-02 0.  1.
        -11    1    1    2    0    0 -0.10961740145E+02 -0.18794598253E+01 -0.10418357466E+02  0.15239235177E+02  0.51100000000E-03 0. -1.
         11    1    1    2    0    0  0.10961740145E+02  0.18794598253E+01 -0.18648857672E+02  0.21713406204E+02  0.51100000000E-03 0.  1.
<mgrwt>
<rscale>  0 0.22816545E+02</rscale>
<asrwt>0</asrwt>
<pdfrwt beam="1">  1        2 0.60657127E-03 0.22816545E+02</pdfrwt>
<pdfrwt beam="2">  1       -2 0.50784503E-02 0.22816545E+02</pdfrwt>
<totfact> 0.26703923E+06</totfact>
</mgrwt>
</event>
<event>
 4    1  0.1433582E+000  0.2328022E+02  0.7818608E-02  0.1687008E+00
          2   -1    0    0  501    0  0.00000000000E+00  0.00000000000E+00  0.27457176940E+02  0.27457177063E+02  0.26000000000E-02 0.  1.
         -2   -1    0    0    0  501 -0.00000000000E+00 -0.00000000000E+00 -0.49346716089E+01  0.49346722939E+01  0.26000000000E-02 0. -1.
        -11    1    1    2    0    0  0.94301214089E+01 -0.66449276590E+01  0.91012755216E+01  0.14694062398E+02  0.51100000000E-03 0. -1.
         11    1    1    2    0    0 -0.94301214089E+01  0.66449276590E+01  0.13421229810E+02  0.17697786959E+02  0.51100000000E-03 0.  1.
<mgrwt>
<rscale>  0 0.23280220E+02</rscale>
<asrwt>0</asrwt>
<pdfrwt beam="1">  1        2 0.42241812E-02 0.23280220E+02</pdfrwt>
<pdfrwt beam="2">  1       -2 0.75918031E-03 0.23280220E+02</pdfrwt>
<totfact> 0.30403534E+06</totfact>
</mgrwt>
</event>
<event>
 4    1  0.1433582E+000  0.3934963E+02  0.7818608E-02  0.1513053E+00
          2   -1    0    0  501    0  0.00000000000E+00  0.00000000000E+00  0.37030085829E+01  0.37030094957E+01  0.26000000000E-02 0.  1.
         -2   -1    0    0    0  501 -0.00000000000E+00 -0.00000000000E+00 -0.10453615837E+03  0.10453615840E+03  0.26000000000E-02 0. -1.
        -11    1    1    2    0    0 -0.17508421684E+02  0.84589464458E+00 -0.25838461163E+02  0.31223171574E+02  0.51100000000E-03 0.  1.
         11    1    1    2    0    0  0.17508421684E+02 -0.84589464458E+00 -0.74994688625E+02  0.77015996325E+02  0.51100000000E-03 0. -1.
<mgrwt>
<rscale>  0 0.39349630E+02</rscale>
<asrwt>0</asrwt>
<pdfrwt beam="1">  1        2 0.56969378E-03 0.39349630E+02</pdfrwt>
<pdfrwt beam="2">  1       -2 0.16082484E-01 0.39349630E+02</pdfrwt>
<totfact> 0.62266309E+05</totfact>
</mgrwt>
</event>
<event>
 4    1  0.1433582E+000  0.2048495E+02  0.7818608E-02  0.1735853E+00
         -2   -1    0    0    0  501 -0.00000000000E+00  0.00000000000E+00  0.18628073393E+01  0.18628091538E+01  0.26000000000E-02 0. -1.
          2   -1    0    0  501    0  0.00000000000E+00 -0.00000000000E+00 -0.56317304225E+02  0.56317304285E+02  0.26000000000E-02 0.  1.
        -11    1    1    2    0    0 -0.10016957095E+02  0.10041249260E+01 -0.21867999510E+02  0.24073992173E+02  0.51100000000E-03 0.  1.
         11    1    1    2    0    0  0.10016957095E+02 -0.10041249260E+01 -0.32586497376E+02  0.34106121266E+02  0.51100000000E-03 0. -1.
<mgrwt>
<rscale>  0 0.20484955E+02</rscale>
<asrwt>0</asrwt>
<pdfrwt beam="2">  1        2 0.86641995E-02 0.20484955E+02</pdfrwt>
<pdfrwt beam="1">  1       -2 0.28658593E-03 0.20484955E+02</pdfrwt>
<totfact> 0.44744199E+06</totfact>
</mgrwt>
</event>
<event>
 4    1  0.1433582E+000  0.2361084E+02  0.7818608E-02  0.1681796E+00
          2   -1    0    0  501    0  0.00000000000E+00  0.00000000000E+00  0.38826581935E+01  0.38826590640E+01  0.26000000000E-02 0. -1.
         -2   -1    0    0    0  501 -0.00000000000E+00 -0.00000000000E+00 -0.35894961267E+02  0.35894961362E+02  0.26000000000E-02 0.  1.
        -11    1    1    2    0    0  0.95602441832E+01 -0.35061414233E+01 -0.59433454181E+01  0.11790447470E+02  0.51100000000E-03 0. -1.
         11    1    1    2    0    0 -0.95602441832E+01  0.35061414233E+01 -0.26068957656E+02  0.27987172956E+02  0.51100000000E-03 0.  1.
<mgrwt>
<rscale>  0 0.23610835E+02</rscale>
<asrwt>0</asrwt>
<pdfrwt beam="1">  1        2 0.59733213E-03 0.23610835E+02</pdfrwt>
<pdfrwt beam="2">  1       -2 0.55223016E-02 0.23610835E+02</pdfrwt>
<totfact> 0.24508572E+06</totfact>
</mgrwt>
</event>
<event>
 4    1  0.1433582E+000  0.2294607E+02  0.7818608E-02  0.1692386E+00
         -2   -1    0    0    0  501 -0.00000000000E+00  0.00000000000E+00  0.35543105351E+01  0.35543114860E+01  0.26000000000E-02 0. -1.
          2   -1    0    0  501    0  0.00000000000E+00 -0.00000000000E+00 -0.37034044578E+02  0.37034044669E+02  0.26000000000E-02 0.  1.
        -11    1    1    2    0    0 -0.51025021424E+01  0.96762507582E+01 -0.22858471909E+02  0.25341173910E+02  0.51100000000E-03 0.  1.
         11    1    1    2    0    0  0.51025021424E+01 -0.96762507582E+01 -0.10621262134E+02  0.15247182246E+02  0.51100000000E-03 0. -1.
<mgrwt>
<rscale>  0 0.22946069E+02</rscale>
<asrwt>0</asrwt>
<pdfrwt beam="2">  1        2 0.56975451E-02 0.22946069E+02</pdfrwt>
<pdfrwt beam="1">  1       -2 0.54681711E-03 0.22946069E+02</pdfrwt>
<totfact> 0.32565942E+06</totfact>
</mgrwt>
</event>
<event>
 4    1  0.1433582E+000  0.3463252E+02  0.7818608E-02  0.1551888E+00
         -2   -1    0    0    0  501 -0.00000000000E+00  0.00000000000E+00  0.44280069041E+01  0.44280076675E+01  0.26000000000E-02 0. -1.
          2   -1    0    0  501    0  0.00000000000E+00 -0.00000000000E+00 -0.67717328639E+02  0.67717328689E+02  0.26000000000E-02 0.  1.
        -11    1    1    2    0    0 -0.73962045670E+01  0.15644413093E+02 -0.32964351650E+02  0.37230363724E+02  0.51100000000E-03 0.  1.
         11    1    1    2    0    0  0.73962045670E+01 -0.15644413093E+02 -0.30324970085E+02  0.34914972633E+02  0.51100000000E-03 0. -1.
<mgrwt>
<rscale>  0 0.34632518E+02</rscale>
<asrwt>0</asrwt>
<pdfrwt beam="2">  1        2 0.10418050E-01 0.34632518E+02</pdfrwt>
<pdfrwt beam="1">  1       -2 0.68123194E-03 0.34632518E+02</pdfrwt>
<totfact> 0.13605032E+06</totfact>
</mgrwt>
</event>
<event>
 4    1  0.1433582E+000  0.3301940E+02  0.7818608E-02  0.1566927E+00
          2   -1    0    0  501    0  0.00000000000E+00  0.00000000000E+00  0.20791692381E+02  0.20791692544E+02  0.26000000000E-02 0. -1.
         -2   -1    0    0    0  501 -0.00000000000E+00 -0.00000000000E+00 -0.13109569252E+02  0.13109569510E+02  0.26000000000E-02 0.  1.
        -11    1    1    2    0    0  0.21832854481E+01  0.13889281859E+02  0.12726160725E+02  0.18964019958E+02  0.51100000000E-03 0. -1.
         11    1    1    2    0    0 -0.21832854481E+01 -0.13889281859E+02 -0.50440375961E+01  0.14937242096E+02  0.51100000000E-03 0.  1.
<mgrwt>
<rscale>  0 0.33019397E+02</rscale>
<asrwt>0</asrwt>
<pdfrwt beam="1">  1        2 0.31987219E-02 0.33019397E+02</pdfrwt>
<pdfrwt beam="2">  1       -2 0.20168568E-02 0.33019397E+02</pdfrwt>
<totfact> 0.12815461E+06</totfact>
</mgrwt>
</event>
<event>
 4    1  0.1433582E+000  0.7042015E+02  0.7818608E-02  0.1358670E+00
          2   -1    0    0  501    0  0.00000000000E+00  0.00000000000E+00  0.21460118751E+02  0.21460118908E+02  0.26000000000E-02 0.  1.
         -2   -1    0    0    0  501 -0.00000000000E+00 -0.00000000000E+00 -0.57769924120E+02  0.57769924179E+02  0.26000000000E-02 0. -1.
        -11    1    1    2    0    0  0.19736083196E+02 -0.21990021325E+02  0.33894691733E+01  0.29741595776E+02  0.51100000000E-03 0.  1.
         11    1    1    2    0    0 -0.19736083196E+02  0.21990021325E+02 -0.39699274543E+02  0.49488447311E+02  0.51100000000E-03 0. -1.
<mgrwt>
<rscale>  0 0.70420152E+02</rscale>
<asrwt>0</asrwt>
<pdfrwt beam="1">  1        2 0.33015568E-02 0.70420152E+02</pdfrwt>
<pdfrwt beam="2">  1       -2 0.88876806E-02 0.70420152E+02</pdfrwt>
<totfact> 0.17324551E+05</totfact>
</mgrwt>
</event>
<event>
 4    1  0.1433582E+000  0.4732877E+02  0.7818608E-02  0.1460306E+00
         -2   -1    0    0    0  501 -0.00000000000E+00  0.00000000000E+00  0.13317537460E+03  0.13317537462E+03  0.26000000000E-02 0.  1.
          2   -1    0    0  501    0  0.00000000000E+00 -0.00000000000E+00 -0.42050046091E+01  0.42050054129E+01  0.26000000000E-02 0. -1.
        -11    1    1    2    0    0 -0.11066615380E+02  0.19127692263E+02  0.39912555471E+02  0.45621822319E+02  0.51100000000E-03 0. -1.
         11    1    1    2    0    0  0.11066615380E+02 -0.19127692263E+02  0.89057814520E+02  0.91758557718E+02  0.51100000000E-03 0.  1.
<mgrwt>
<rscale>  0 0.47328770E+02</rscale>
<asrwt>0</asrwt>
<pdfrwt beam="2">  1        2 0.64692384E-03 0.47328770E+02</pdfrwt>
<pdfrwt beam="1">  1       -2 0.20488520E-01 0.47328770E+02</pdfrwt>
<totfact> 0.37268995E+05</totfact>
</mgrwt>
</event>
<event>
 4    1  0.1433582E+000  0.3991651E+02  0.7818608E-02  0.1508827E+00
          2   -1    0    0  501    0  0.00000000000E+00  0.00000000000E+00  0.34019750508E+02  0.34019750608E+02  0.26000000000E-02 0.  1.
         -2   -1    0    0    0  501 -0.00000000000E+00 -0.00000000000E+00 -0.11708841090E+02  0.11708841379E+02  0.26000000000E-02 0. -1.
        -11    1    1    2    0    0 -0.19860723775E+02 -0.17889179458E+01  0.12102424748E+02  0.23326321213E+02  0.51100000000E-03 0.  1.
         11    1    1    2    0    0  0.19860723775E+02  0.17889179458E+01  0.10208484670E+02  0.22402270773E+02  0.51100000000E-03 0. -1.
<mgrwt>
<rscale>  0 0.39916506E+02</rscale>
<asrwt>0</asrwt>
<pdfrwt beam="1">  1        2 0.52338077E-02 0.39916506E+02</pdfrwt>
<pdfrwt beam="2">  1       -2 0.18013602E-02 0.39916506E+02</pdfrwt>
<totfact> 0.85238758E+05</totfact>
</mgrwt>
</event>
<event>
 4    1  0.1433582E+000  0.4934161E+02  0.7818608E-02  0.1448925E+00
         -2   -1    0    0    0  501 -0.00000000000E+00  0.00000000000E+00  0.51453706935E+02  0.51453707000E+02  0.26000000000E-02 0. -1.
          2   -1    0    0  501    0  0.00000000000E+00 -0.00000000000E+00 -0.11829051958E+02  0.11829052244E+02  0.26000000000E-02 0.  1.
        -11    1    1    2    0    0 -0.83068727725E+01 -0.21539574122E+02  0.86541109716E+01  0.24654634971E+02  0.51100000000E-03 0.  1.
         11    1    1    2    0    0  0.83068727725E+01  0.21539574122E+02  0.30970544005E+02  0.38628124273E+02  0.51100000000E-03 0. -1.
<mgrwt>
<rscale>  0 0.49341609E+02</rscale>
<asrwt>0</asrwt>
<pdfrwt beam="2">  1        2 0.18198542E-02 0.49341609E+02</pdfrwt>
<pdfrwt beam="1">  1       -2 0.79159549E-02 0.49341609E+02</pdfrwt>
<totfact> 0.41876075E+05</totfact>
</mgrwt>
</event>
<event>
 4    1  0.1433582E+000  0.3563387E+02  0.7818608E-02  0.1543043E+00
         -2   -1    0    0    0  501 -0.00000000000E+00  0.00000000000E+00  0.13616605838E+02  0.13616606086E+02  0.26000000000E-02 0. -1.
          2   -1    0    0  501    0  0.00000000000E+00 -0.00000000000E+00 -0.23312946742E+02  0.23312946887E+02  0.26000000000E-02 0.  1.
        -11    1    1    2    0    0 -0.93245066159E+01 -0.14846173560E+02 -0.81398068857E+01  0.19329039019E+02  0.51100000000E-03 0.  1.
         11    1    1    2    0    0  0.93245066159E+01  0.14846173560E+02 -0.15565340184E+01  0.17600513953E+02  0.51100000000E-03 0. -1.
<mgrwt>
<rscale>  0 0.35633872E+02</rscale>
<asrwt>0</asrwt>
<pdfrwt beam="2">  1        2 0.35866072E-02 0.35633872E+02</pdfrwt>
<pdfrwt beam="1">  1       -2 0.20948625E-02 0.35633872E+02</pdfrwt>
<totfact> 0.10758387E+06</totfact>
</mgrwt>
</event>
<event>
 4    1  0.1433582E+000  0.2588131E+02  0.7818608E-02  0.1648657E+00
          2   -1    0    0  501    0  0.00000000000E+00  0.00000000000E+00  0.18798165716E+02  0.18798165896E+02  0.26000000000E-02 0. -1.
         -2   -1    0    0    0  501 -0.00000000000E+00 -0.00000000000E+00 -0.89083417111E+01  0.89083420905E+01  0.26000000000E-02 0.  1.
        -11    1    1    2    0    0 -0.79957295901E+01 -0.85093101165E+01  0.10916893956E+02  0.15984949930E+02  0.51100000000E-03 0. -1.
         11    1    1    2    0    0  0.79957295901E+01  0.85093101165E+01 -0.10270699513E+01  0.11721558057E+02  0.51100000000E-03 0.  1.
<mgrwt>
<rscale>  0 0.25881305E+02</rscale>
<asrwt>0</asrwt>
<pdfrwt beam="1">  1        2 0.28920255E-02 0.25881305E+02</pdfrwt>
<pdfrwt beam="2">  1       -2 0.13705142E-02 0.25881305E+02</pdfrwt>
<totfact> 0.22837080E+06</totfact>
</mgrwt>
</event>
<event>
 4    1  0.1433582E+000  0.3754134E+02  0.7818608E-02  0.1527125E+00
          2   -1    0    0  501    0  0.00000000000E+00  0.00000000000E+00  0.38560291939E+02  0.38560292026E+02  0.26000000000E-02 0. -1.
         -2   -1    0    0    0  501 -0.00000000000E+00 -0.00000000000E+00 -0.91373290772E+01  0.91373294471E+01  0.26000000000E-02 0.  1.
        -11    1    1    2    0    0  0.14161765134E+02  0.68182130882E+01  0.16741200523E+01  0.15806527122E+02  0.51100000000E-03 0.  1.
         11    1    1    2    0    0 -0.14161765134E+02 -0.68182130882E+01  0.27748842809E+02  0.31891094352E+02  0.51100000000E-03 0. -1.
<mgrwt>
<rscale>  0 0.37541342E+02</rscale>
<asrwt>0</asrwt>
<pdfrwt beam="1">  1        2 0.59323527E-02 0.37541342E+02</pdfrwt>
<pdfrwt beam="2">  1       -2 0.14057430E-02 0.37541342E+02</pdfrwt>
<totfact> 0.10121974E+06</totfact>
</mgrwt>
</event>
<event>
 4    1  0.1433582E+000  0.2658249E+02  0.7818608E-02  0.1639260E+00
         -2   -1    0    0    0  501 -0.00000000000E+00  0.00000000000E+00  0.56133209929E+02  0.56133209989E+02  0.26000000000E-02 0.  1.
          2   -1    0    0  501    0  0.00000000000E+00 -0.00000000000E+00 -0.31471053317E+01  0.31471064057E+01  0.26000000000E-02 0. -1.
        -11    1    1    2    0    0  0.11440693760E+02 -0.37563520206E+01  0.13945667158E+02  0.18425017963E+02  0.51100000000E-03 0. -1.
         11    1    1    2    0    0 -0.11440693760E+02  0.37563520206E+01  0.39040437439E+02  0.40855298431E+02  0.51100000000E-03 0.  1.
<mgrwt>
<rscale>  0 0.26582487E+02</rscale>
<asrwt>0</asrwt>
<pdfrwt beam="2">  1        2 0.48417017E-03 0.26582487E+02</pdfrwt>
<pdfrwt beam="1">  1       -2 0.86358780E-02 0.26582487E+02</pdfrwt>
<totfact> 0.17645963E+06</totfact>
</mgrwt>
</event>
<event>
 4    1  0.1433582E+000  0.2363334E+02  0.7818608E-02  0.1681445E+00
          2   -1    0    0  501    0  0.00000000000E+00  0.00000000000E+00  0.58686899594E+02  0.58686899652E+02  0.26000000000E-02 0. -1.
         -2   -1    0    0    0  501 -0.00000000000E+00 -0.00000000000E+00 -0.23792980199E+01  0.23792994405E+01  0.26000000000E-02 0.  1.
        -11    1    1    2    0    0  0.59060051528E+01  0.98941658722E+01  0.21387012454E+02  0.24293614740E+02  0.51100000000E-03 0.  1.
         11    1    1    2    0    0 -0.59060051528E+01 -0.98941658722E+01  0.34920589120E+02  0.36772584352E+02  0.51100000000E-03 0. -1.
<mgrwt>
<rscale>  0 0.23633338E+02</rscale>
<asrwt>0</asrwt>
<pdfrwt beam="1">  1        2 0.90287541E-02 0.23633338E+02</pdfrwt>
<pdfrwt beam="2">  1       -2 0.36604596E-03 0.23633338E+02</pdfrwt>
<totfact> 0.32605979E+06</totfact>
</mgrwt>
</event>
<event>
 4    1  0.1433582E+000  0.4667996E+02  0.7818608E-02  0.1464118E+00
          2   -1    0    0  501    0  0.00000000000E+00  0.00000000000E+00  0.27835814832E+02  0.27835814954E+02  0.26000000000E-02 0.  1.
         -2   -1    0    0    0  501 -0.00000000000E+00 -0.00000000000E+00 -0.19570275207E+02  0.19570275380E+02  0.26000000000E-02 0. -1.
        -11    1    1    2    0    0 -0.11754459232E+02 -0.90321992305E+01  0.22441145470E+02  0.26895221602E+02  0.51100000000E-03 0.  1.
         11    1    1    2    0    0  0.11754459232E+02  0.90321992305E+01 -0.14175605845E+02  0.20510868731E+02  0.51100000000E-03 0. -1.
<mgrwt>
<rscale>  0 0.46679956E+02</rscale>
<asrwt>0</asrwt>
<pdfrwt beam="1">  1        2 0.42824331E-02 0.46679956E+02</pdfrwt>
<pdfrwt beam="2">  1       -2 0.30108116E-02 0.46679956E+02</pdfrwt>
<totfact> 0.55490937E+05</totfact>
</mgrwt>
</event>
<event>
 4    1  0.1433582E+000  0.3271765E+02  0.7818608E-02  0.1569856E+00
          2   -1    0    0  501    0  0.00000000000E+00  0.00000000000E+00  0.15150196978E+03  0.15150196981E+03  0.26000000000E-02 0.  1.
         -2   -1    0    0    0  501 -0.00000000000E+00 -0.00000000000E+00 -0.17663858502E+01  0.17663877637E+01  0.26000000000E-02 0. -1.
        -11    1    1    2    0    0  0.22641622105E+01  0.16051479134E+02  0.85168187861E+02  0.86697154721E+02  0.51100000000E-03 0. -1.
         11    1    1    2    0    0 -0.22641622105E+01 -0.16051479134E+02  0.64567396073E+02  0.66571202849E+02  0.51100000000E-03 0.  1.
<mgrwt>
<rscale>  0 0.32717646E+02</rscale>
<asrwt>0</asrwt>
<pdfrwt beam="1">  1        2 0.23308001E-01 0.32717646E+02</pdfrwt>
<pdfrwt beam="2">  1       -2 0.27175176E-03 0.32717646E+02</pdfrwt>
<totfact> 0.19006137E+06</totfact>
</mgrwt>
</event>
<event>
 4    1  0.1433582E+000  0.2364895E+02  0.7818608E-02  0.1681202E+00
          2   -1    0    0  501    0  0.00000000000E+00  0.00000000000E+00  0.14698084643E+01  0.14698107639E+01  0.26000000000E-02 0. -1.
         -2   -1    0    0    0  501 -0.00000000000E+00 -0.00000000000E+00 -0.95126711661E+02  0.95126711697E+02  0.26000000000E-02 0.  1.
        -11    1    1    2    0    0  0.10821984638E+02 -0.10808591838E+01 -0.65783181994E+02  0.66676162469E+02  0.51100000000E-03 0.  1.
         11    1    1    2    0    0 -0.10821984638E+02  0.10808591838E+01 -0.27873721204E+02  0.29920359992E+02  0.51100000000E-03 0. -1.
<mgrwt>
<rscale>  0 0.23648946E+02</rscale>
<asrwt>0</asrwt>
<pdfrwt beam="1">  1        2 0.22612463E-03 0.23648946E+02</pdfrwt>
<pdfrwt beam="2">  1       -2 0.14634874E-01 0.23648946E+02</pdfrwt>
<totfact> 0.20767465E+06</totfact>
</mgrwt>
</event>
<event>
 4    1  0.1433582E+000  0.2282632E+02  0.7818608E-02  0.1694341E+00
          2   -1    0    0  501    0  0.00000000000E+00  0.00000000000E+00  0.23732054421E+02  0.23732054563E+02  0.26000000000E-02 0. -1.
         -2   -1    0    0    0  501 -0.00000000000E+00 -0.00000000000E+00 -0.54887884277E+01  0.54887890435E+01  0.26000000000E-02 0.  1.
        -11    1    1    2    0    0 -0.19402761997E+01  0.10563790719E+02  0.14063345834E+02  0.17695650381E+02  0.51100000000E-03 0. -1.
         11    1    1    2    0    0  0.19402761997E+01 -0.10563790719E+02  0.41799201590E+01  0.11525193226E+02  0.51100000000E-03 0.  1.
<mgrwt>
<rscale>  0 0.22826321E+02</rscale>
<asrwt>0</asrwt>
<pdfrwt beam="1">  1        2 0.36510853E-02 0.22826321E+02</pdfrwt>
<pdfrwt beam="2">  1       -2 0.84442905E-03 0.22826321E+02</pdfrwt>
<totfact> 0.31331639E+06</totfact>
</mgrwt>
</event>
<event>
 4    1  0.1433582E+000  0.3932957E+02  0.7818608E-02  0.1513204E+00
         -2   -1    0    0    0  501 -0.00000000000E+00  0.00000000000E+00  0.33519959116E+01  0.33519969199E+01  0.26000000000E-02 0. -1.
          2   -1    0    0  501    0  0.00000000000E+00 -0.00000000000E+00 -0.11536522181E+03  0.11536522184E+03  0.26000000000E-02 0.  1.
        -11    1    1    2    0    0 -0.10222714942E+02 -0.12322550546E+02 -0.21543240631E+02  0.26841392846E+02  0.51100000000E-03 0. -1.
         11    1    1    2    0    0  0.10222714942E+02  0.12322550546E+02 -0.90469985263E+02  0.91875825909E+02  0.51100000000E-03 0.  1.
<mgrwt>
<rscale>  0 0.39329572E+02</rscale>
<asrwt>0</asrwt>
<pdfrwt beam="2">  1        2 0.17748493E-01 0.39329572E+02</pdfrwt>
<pdfrwt beam="1">  1       -2 0.51569185E-03 0.39329572E+02</pdfrwt>
<totfact> 0.11300362E+06</totfact>
</mgrwt>
</event>
<event>
 4    1  0.1433582E+000  0.4852066E+02  0.7818608E-02  0.1453488E+00
         -2   -1    0    0    0  501 -0.00000000000E+00  0.00000000000E+00  0.31363787726E+02  0.31363787834E+02  0.26000000000E-02 0.  1.
          2   -1    0    0  501    0  0.00000000000E+00 -0.00000000000E+00 -0.18765708587E+02  0.18765708768E+02  0.26000000000E-02 0. -1.
        -11    1    1    2    0    0 -0.11711575090E+02  0.19440848380E+02  0.15153877825E+02  0.27290063946E+02  0.51100000000E-03 0. -1.
         11    1    1    2    0    0  0.11711575090E+02 -0.19440848380E+02 -0.25557986865E+01  0.22839432655E+02  0.51100000000E-03 0.  1.
<mgrwt>
<rscale>  0 0.48520664E+02</rscale>
<asrwt>0</asrwt>
<pdfrwt beam="2">  1        2 0.28870321E-02 0.48520664E+02</pdfrwt>
<pdfrwt beam="1">  1       -2 0.48251981E-02 0.48520664E+02</pdfrwt>
<totfact> 0.47229656E+05</totfact>
</mgrwt>
</event>
<event>
 4    1  0.1433582E+000  0.5155511E+02  0.7818608E-02  0.1437130E+00
         -2   -1    0    0    0  501 -0.00000000000E+00  0.00000000000E+00  0.20343899655E+02  0.20343899821E+02  0.26000000000E-02 0. -1.
          2   -1    0    0  501    0  0.00000000000E+00 -0.00000000000E+00 -0.32662491069E+02  0.32662491172E+02  0.26000000000E-02 0.  1.
        -11    1    1    2    0    0  0.22657463099E+02  0.11594405758E+02 -0.19587563283E+01  0.25526997583E+02  0.51100000000E-03 0. -1.
         11    1    1    2    0    0 -0.22657463099E+02 -0.11594405758E+02 -0.10359835085E+02  0.27479393411E+02  0.51100000000E-03 0.  1.
<mgrwt>
<rscale>  0 0.51555114E+02</rscale>
<asrwt>0</asrwt>
<pdfrwt beam="2">  1        2 0.50249986E-02 0.51555114E+02</pdfrwt>
<pdfrwt beam="1">  1       -2 0.31298307E-02 0.51555114E+02</pdfrwt>
<totfact> 0.43936910E+05</totfact>
</mgrwt>
</event>
<event>
 4    1  0.1433582E+000  0.2195121E+02  0.7818608E-02  0.1709097E+00
          2   -1    0    0  501    0  0.00000000000E+00  0.00000000000E+00  0.70449350049E+02  0.70449350097E+02  0.26000000000E-02 0.  1.
         -2   -1    0    0    0  501 -0.00000000000E+00 -0.00000000000E+00 -0.17099346570E+01  0.17099366336E+01  0.26000000000E-02 0. -1.
        -11    1    1    2    0    0 -0.86439282074E+01 -0.66531728988E+01  0.38371063588E+02  0.39891361542E+02  0.51100000000E-03 0.  1.
         11    1    1    2    0    0  0.86439282074E+01  0.66531728988E+01  0.30368351804E+02  0.32267925190E+02  0.51100000000E-03 0. -1.
<mgrwt>
<rscale>  0 0.21951206E+02</rscale>
<asrwt>0</asrwt>
<pdfrwt beam="1">  1        2 0.10838359E-01 0.21951206E+02</pdfrwt>
<pdfrwt beam="2">  1       -2 0.26306709E-03 0.21951206E+02</pdfrwt>
<totfact> 0.39853238E+06</totfact>
</mgrwt>
</event>
<event>
 4    1  0.1433582E+000  0.2403834E+02  0.7818608E-02  0.1675211E+00
          2   -1    0    0  501    0  0.00000000000E+00  0.00000000000E+00  0.18374361326E+02  0.18374361510E+02  0.26000000000E-02 0.  1.
         -2   -1    0    0    0  501 -0.00000000000E+00 -0.00000000000E+00 -0.78620662316E+01  0.78620666615E+01  0.26000000000E-02 0. -1.
        -11    1    1    2    0    0  0.11263519688E+02  0.41712797691E+01  0.47754142081E+01  0.12925595994E+02  0.51100000000E-03 0.  1.
         11    1    1    2    0    0 -0.11263519688E+02 -0.41712797691E+01  0.57368808859E+01  0.13310832177E+02  0.51100000000E-03 0. -1.
<mgrwt>
<rscale>  0 0.24038341E+02</rscale>
<asrwt>0</asrwt>
<pdfrwt beam="1">  1        2 0.28268249E-02 0.24038341E+02</pdfrwt>
<pdfrwt beam="2">  1       -2 0.12095487E-02 0.24038341E+02</pdfrwt>
<totfact> 0.27112822E+06</totfact>
</mgrwt>
</event>
<event>
 4    1  0.1433582E+000  0.5497167E+02  0.7818608E-02  0.1420233E+00
          2   -1    0    0  501    0  0.00000000000E+00  0.00000000000E+00  0.38730859379E+02  0.38730859466E+02  0.26000000000E-02 0.  1.
         -2   -1    0    0    0  501 -0.00000000000E+00 -0.00000000000E+00 -0.19505664320E+02  0.19505664493E+02  0.26000000000E-02 0. -1.
        -11    1    1    2    0    0 -0.17400703785E+02  0.20720620179E+02  0.44942388675E+01  0.27428575903E+02  0.51100000000E-03 0. -1.
         11    1    1    2    0    0  0.17400703785E+02 -0.20720620179E+02  0.14730956192E+02  0.30807948056E+02  0.51100000000E-03 0.  1.
<mgrwt>
<rscale>  0 0.54971671E+02</rscale>
<asrwt>0</asrwt>
<pdfrwt beam="1">  1        2 0.59585938E-02 0.54971671E+02</pdfrwt>
<pdfrwt beam="2">  1       -2 0.30008715E-02 0.54971671E+02</pdfrwt>
<totfact> 0.38230968E+05</totfact>
</mgrwt>
</event>
<event>
 4    1  0.1433582E+000  0.3462973E+02  0.7818608E-02  0.1551913E+00
          2   -1    0    0  501    0  0.00000000000E+00  0.00000000000E+00  0.74188962920E+01  0.74188967476E+01  0.26000000000E-02 0. -1.
         -2   -1    0    0    0  501 -0.00000000000E+00 -0.00000000000E+00 -0.40410934746E+02  0.40410934829E+02  0.26000000000E-02 0.  1.
        -11    1    1    2    0    0  0.46540359679E+01  0.15167703742E+02 -0.69184405546E+01  0.17308498132E+02  0.51100000000E-03 0. -1.
         11    1    1    2    0    0 -0.46540359679E+01 -0.15167703742E+02 -0.26073597899E+02  0.30521333445E+02  0.51100000000E-03 0.  1.
<mgrwt>
<rscale>  0 0.34629730E+02</rscale>
<asrwt>0</asrwt>
<pdfrwt beam="1">  1        2 0.11413687E-02 0.34629730E+02</pdfrwt>
<pdfrwt beam="2">  1       -2 0.62170668E-02 0.34629730E+02</pdfrwt>
<totfact> 0.10057954E+06</totfact>
</mgrwt>
</event>
<event>
 4    1  0.1433582E+000  0.2366992E+02  0.7818608E-02  0.1680875E+00
          2   -1    0    0  501    0  0.00000000000E+00  0.00000000000E+00  0.73396014928E+02  0.73396014974E+02  0.26000000000E-02 0. -1.
         -2   -1    0    0    0  501 -0.00000000000E+00 -0.00000000000E+00 -0.19083633235E+01  0.19083650947E+01  0.26000000000E-02 0.  1.
        -11    1    1    2    0    0  0.31937194534E+01 -0.11389930885E+02  0.34570735266E+02  0.36538556439E+02  0.51100000000E-03 0.  1.
         11    1    1    2    0    0 -0.31937194534E+01  0.11389930885E+02  0.36916916339E+02  0.38765823630E+02  0.51100000000E-03 0. -1.
<mgrwt>
<rscale>  0 0.23669924E+02</rscale>
<asrwt>0</asrwt>
<pdfrwt beam="1">  1        2 0.11291696E-01 0.23669924E+02</pdfrwt>
<pdfrwt beam="2">  1       -2 0.29359446E-03 0.23669924E+02</pdfrwt>
<totfact> 0.33856213E+06</totfact>
</mgrwt>
</event>
<event>
 4    1  0.1433582E+000  0.2194057E+02  0.7818608E-02  0.1709282E+00
          2   -1    0    0  501    0  0.00000000000E+00  0.00000000000E+00  0.47968454546E+02  0.47968454617E+02  0.26000000000E-02 0. -1.
         -2   -1    0    0    0  501 -0.00000000000E+00 -0.00000000000E+00 -0.25088813630E+01  0.25088827102E+01  0.26000000000E-02 0.  1.
        -11    1    1    2    0    0  0.10529596174E+02  0.23084221937E+01  0.18045294617E+02  0.21019844593E+02  0.51100000000E-03 0.  1.
         11    1    1    2    0    0 -0.10529596174E+02 -0.23084221937E+01  0.27414278566E+02  0.29457492734E+02  0.51100000000E-03 0. -1.
<mgrwt>
<rscale>  0 0.21940574E+02</rscale>
<asrwt>0</asrwt>
<pdfrwt beam="1">  1        2 0.73797624E-02 0.21940574E+02</pdfrwt>
<pdfrwt beam="2">  1       -2 0.38598185E-03 0.21940574E+02</pdfrwt>
<totfact> 0.37387534E+06</totfact>
</mgrwt>
</event>
<event>
 4    1  0.1433582E+000  0.2839063E+02  0.7818608E-02  0.1616591E+00
          2   -1    0    0  501    0  0.00000000000E+00  0.00000000000E+00  0.10049990328E+02  0.10049990664E+02  0.26000000000E-02 0. -1.
         -2   -1    0    0    0  501 -0.00000000000E+00 -0.00000000000E+00 -0.20050463950E+02  0.20050464119E+02  0.26000000000E-02 0.  1.
        -11    1    1    2    0    0 -0.11762579622E+02 -0.77518315258E+01 -0.31462659979E+01  0.14434270379E+02  0.51100000000E-03 0.  1.
         11    1    1    2    0    0  0.11762579622E+02  0.77518315258E+01 -0.68542076243E+01  0.15666184404E+02  0.51100000000E-03 0. -1.
<mgrwt>
<rscale>  0 0.28390631E+02</rscale>
<asrwt>0</asrwt>
<pdfrwt beam="1">  1        2 0.15461524E-02 0.28390631E+02</pdfrwt>
<pdfrwt beam="2">  1       -2 0.30846868E-02 0.28390631E+02</pdfrwt>
<totfact> 0.17213650E+06</totfact>
</mgrwt>
</event>
<event>
 4    1  0.1433582E+000  0.2571474E+02  0.7818608E-02  0.1650943E+00
         -2   -1    0    0    0  501 -0.00000000000E+00  0.00000000000E+00  0.68206914166E+02  0.68206914215E+02  0.26000000000E-02 0.  1.
          2   -1    0    0  501    0  0.00000000000E+00 -0.00000000000E+00 -0.24236818316E+01  0.24236832262E+01  0.26000000000E-02 0. -1.
        -11    1    1    2    0    0  0.63814016722E+01  0.87635322065E+01  0.51879645661E+02  0.53000183190E+02  0.51100000000E-03 0.  1.
         11    1    1    2    0    0 -0.63814016722E+01 -0.87635322065E+01  0.13903586674E+02  0.17630414252E+02  0.51100000000E-03 0. -1.
<mgrwt>
<rscale>  0 0.25714736E+02</rscale>
<asrwt>0</asrwt>
<pdfrwt beam="2">  1        2 0.37287426E-03 0.25714736E+02</pdfrwt>
<pdfrwt beam="1">  1       -2 0.10493371E-01 0.25714736E+02</pdfrwt>
<totfact> 0.18410973E+06</totfact>
</mgrwt>
</event>
<event>
 4    1  0.1433582E+000  0.2050087E+02  0.7818608E-02  0.1735547E+00
         -2   -1    0    0    0  501 -0.00000000000E+00  0.00000000000E+00  0.10154984169E+01  0.10155017453E+01  0.26000000000E-02 0. -1.
          2   -1    0    0  501    0  0.00000000000E+00 -0.00000000000E+00 -0.10346765277E+03  0.10346765281E+03  0.26000000000E-02 0.  1.
        -11    1    1    2    0    0 -0.73667146441E+00  0.10214179859E+02 -0.48951075359E+02  0.50010798175E+02  0.51100000000E-03 0.  1.
         11    1    1    2    0    0  0.73667146441E+00 -0.10214179859E+02 -0.53501078998E+02  0.54472356377E+02  0.51100000000E-03 0. -1.
<mgrwt>
<rscale>  0 0.20500870E+02</rscale>
<asrwt>0</asrwt>
<pdfrwt beam="2">  1        2 0.15918092E-01 0.20500870E+02</pdfrwt>
<pdfrwt beam="1">  1       -2 0.15623087E-03 0.20500870E+02</pdfrwt>
<totfact> 0.50342221E+06</totfact>
</mgrwt>
</event>
<event>
 4    1  0.1433582E+000  0.4519228E+02  0.7818608E-02  0.1473145E+00
         -2   -1    0    0    0  501 -0.00000000000E+00  0.00000000000E+00  0.43699074303E+02  0.43699074381E+02  0.26000000000E-02 0. -1.
          2   -1    0    0  501    0  0.00000000000E+00 -0.00000000000E+00 -0.11684128845E+02  0.11684129134E+02  0.26000000000E-02 0.  1.
        -11    1    1    2    0    0 -0.57264366526E+01  0.18633695496E+02  0.20035290700E+01  0.19596449004E+02  0.51100000000E-03 0.  1.
         11    1    1    2    0    0  0.57264366526E+01 -0.18633695496E+02  0.30011416388E+02  0.35786754511E+02  0.51100000000E-03 0. -1.
<mgrwt>
<rscale>  0 0.45192284E+02</rscale>
<asrwt>0</asrwt>
<pdfrwt beam="2">  1        2 0.17975583E-02 0.45192284E+02</pdfrwt>
<pdfrwt beam="1">  1       -2 0.67229346E-02 0.45192284E+02</pdfrwt>
<totfact> 0.53085729E+05</totfact>
</mgrwt>
</event>
<event>
 4    1  0.1433582E+000  0.3400186E+02  0.7818608E-02  0.1557647E+00
          2   -1    0    0  501    0  0.00000000000E+00  0.00000000000E+00  0.35410558138E+01  0.35410567683E+01  0.26000000000E-02 0.  1.
         -2   -1    0    0    0  501 -0.00000000000E+00 -0.00000000000E+00 -0.81622990802E+02  0.81622990843E+02  0.26000000000E-02 0. -1.
        -11    1    1    2    0    0  0.13099253206E+02 -0.10289298185E+02 -0.30520787500E+02  0.34770369017E+02  0.51100000000E-03 0.  1.
         11    1    1    2    0    0 -0.13099253206E+02  0.10289298185E+02 -0.47561147487E+02  0.50393678594E+02  0.51100000000E-03 0. -1.
<mgrwt>
<rscale>  0 0.34001859E+02</rscale>
<asrwt>0</asrwt>
<pdfrwt beam="1">  1        2 0.54477796E-03 0.34001859E+02</pdfrwt>
<pdfrwt beam="2">  1       -2 0.12557382E-01 0.34001859E+02</pdfrwt>
<totfact> 0.93216497E+05</totfact>
</mgrwt>
</event>
<event>
 4    1  0.1433582E+000  0.3247992E+02  0.7818608E-02  0.1572190E+00
          2   -1    0    0  501    0  0.00000000000E+00  0.00000000000E+00  0.59933955702E+02  0.59933955758E+02  0.26000000000E-02 0. -1.
         -2   -1    0    0    0  501 -0.00000000000E+00 -0.00000000000E+00 -0.44004470445E+01  0.44004478126E+01  0.26000000000E-02 0.  1.
        -11    1    1    2    0    0  0.45181094032E+01 -0.10312048893E+02  0.50949464175E+02  0.52178535481E+02  0.51100000000E-03 0. -1.
         11    1    1    2    0    0 -0.45181094032E+01  0.10312048893E+02  0.45840444826E+01  0.12155868090E+02  0.51100000000E-03 0.  1.
<mgrwt>
<rscale>  0 0.32479915E+02</rscale>
<asrwt>0</asrwt>
<pdfrwt beam="1">  1        2 0.92206086E-02 0.32479915E+02</pdfrwt>
<pdfrwt beam="2">  1       -2 0.67699192E-03 0.32479915E+02</pdfrwt>
<totfact> 0.15514857E+06</totfact>
</mgrwt>
</event>
<event>
 4    1  0.1433582E+000  0.3597251E+02  0.7818608E-02  0.1540130E+00
         -2   -1    0    0    0  501 -0.00000000000E+00  0.00000000000E+00  0.19892497280E+02  0.19892497450E+02  0.26000000000E-02 0.  1.
          2   -1    0    0  501    0  0.00000000000E+00 -0.00000000000E+00 -0.16262679942E+02  0.16262680150E+02  0.26000000000E-02 0. -1.
        -11    1    1    2    0    0  0.15814660538E+02 -0.85655034942E+01  0.20001951375E+01  0.18096190729E+02  0.51100000000E-03 0. -1.
         11    1    1    2    0    0 -0.15814660538E+02  0.85655034942E+01  0.16296222004E+01  0.18058986872E+02  0.51100000000E-03 0.  1.
<mgrwt>
<rscale>  0 0.35972507E+02</rscale>
<asrwt>0</asrwt>
<pdfrwt beam="2">  1        2 0.25019508E-02 0.35972507E+02</pdfrwt>
<pdfrwt beam="1">  1       -2 0.30603842E-02 0.35972507E+02</pdfrwt>
<totfact> 0.10060491E+06</totfact>
</mgrwt>
</event>
<event>
 4    1  0.1433582E+000  0.3346934E+02  0.7818608E-02  0.1562629E+00
         -2   -1    0    0    0  501 -0.00000000000E+00  0.00000000000E+00  0.24055566929E+02  0.24055567069E+02  0.26000000000E-02 0. -1.
          2   -1    0    0  501    0  0.00000000000E+00 -0.00000000000E+00 -0.11641762206E+02  0.11641762496E+02  0.26000000000E-02 0.  1.
        -11    1    1    2    0    0  0.14321923887E+02  0.84143569472E+01  0.83745010332E+01  0.18602450765E+02  0.51100000000E-03 0. -1.
         11    1    1    2    0    0 -0.14321923887E+02 -0.84143569472E+01  0.40393036897E+01  0.17094878801E+02  0.51100000000E-03 0.  1.
<mgrwt>
<rscale>  0 0.33469341E+02</rscale>
<asrwt>0</asrwt>
<pdfrwt beam="2">  1        2 0.17910404E-02 0.33469341E+02</pdfrwt>
<pdfrwt beam="1">  1       -2 0.37008565E-02 0.33469341E+02</pdfrwt>
<totfact> 0.11608257E+06</totfact>
</mgrwt>
</event>
<event>
 4    1  0.1433582E+000  0.3113365E+02  0.7818608E-02  0.1585885E+00
         -2   -1    0    0    0  501 -0.00000000000E+00  0.00000000000E+00  0.65459846142E+01  0.65459851305E+01  0.26000000000E-02 0.  1.
          2   -1    0    0  501    0  0.00000000000E+00 -0.00000000000E+00 -0.37019024335E+02  0.37019024426E+02  0.26000000000E-02 0. -1.
        -11    1    1    2    0    0  0.12067636200E+02  0.78750720471E+01 -0.23477065637E+02  0.27546637079E+02  0.51100000000E-03 0. -1.
         11    1    1    2    0    0 -0.12067636200E+02 -0.78750720471E+01 -0.69959740843E+01  0.16018372478E+02  0.51100000000E-03 0.  1.
<mgrwt>
<rscale>  0 0.31133646E+02</rscale>
<asrwt>0</asrwt>
<pdfrwt beam="2">  1        2 0.56952345E-02 0.31133646E+02</pdfrwt>
<pdfrwt beam="1">  1       -2 0.10070746E-02 0.31133646E+02</pdfrwt>
<totfact> 0.15895872E+06</totfact>
</mgrwt>
</event>
<event>
 4    1  0.1433582E+000  0.7801305E+02  0.7818608E-02  0.1334787E+00
         -2   -1    0    0    0  501 -0.00000000000E+00  0.00000000000E+00  0.31768662993E+02  0.31768663099E+02  0.26000000000E-02 0.  1.
          2   -1    0    0  501    0  0.00000000000E+00 -0.00000000000E+00 -0.47893393487E+02  0.47893393558E+02  0.26000000000E-02 0. -1.
        -11    1    1    2    0    0 -0.11818112717E+02  0.18639545202E+02 -0.40904419630E+02  0.46478726091E+02  0.51100000000E-03 0. -1.
         11    1    1    2    0    0  0.11818112717E+02 -0.18639545202E+02  0.24779689135E+02  0.33183330566E+02  0.51100000000E-03 0.  1.
<mgrwt>
<rscale>  0 0.78013052E+02</rscale>
<asrwt>0</asrwt>
<pdfrwt beam="2">  1        2 0.73682144E-02 0.78013052E+02</pdfrwt>
<pdfrwt beam="1">  1       -2 0.48874866E-02 0.78013052E+02</pdfrwt>
<totfact> 0.15504627E+05</totfact>
</mgrwt>
</event>
<event>
 4    1  0.1433582E+000  0.3732246E+02  0.7818608E-02  0.1528893E+00
         -2   -1    0    0    0  501 -0.00000000000E+00  0.00000000000E+00  0.13979937505E+03  0.13979937507E+03  0.26000000000E-02 0.  1.
          2   -1    0    0  501    0  0.00000000000E+00 -0.00000000000E+00 -0.24910080931E+01  0.24910094500E+01  0.26000000000E-02 0. -1.
        -11    1    1    2    0    0  0.17226218533E+02  0.43547508961E+01  0.46908112575E+02  0.50160517202E+02  0.51100000000E-03 0. -1.
         11    1    1    2    0    0 -0.17226218533E+02 -0.43547508961E+01  0.90400254382E+02  0.92129867322E+02  0.51100000000E-03 0.  1.
<mgrwt>
<rscale>  0 0.37322458E+02</rscale>
<asrwt>0</asrwt>
<pdfrwt beam="2">  1        2 0.38323214E-03 0.37322458E+02</pdfrwt>
<pdfrwt beam="1">  1       -2 0.21507595E-01 0.37322458E+02</pdfrwt>
<totfact> 0.65087283E+05</totfact>
</mgrwt>
</event>
<event>
 4    1  0.1433582E+000  0.7419375E+02  0.7818608E-02  0.1346386E+00
          2   -1    0    0  501    0  0.00000000000E+00  0.00000000000E+00  0.74692747345E+01  0.74692751870E+01  0.26000000000E-02 0. -1.
         -2   -1    0    0    0  501 -0.00000000000E+00 -0.00000000000E+00 -0.18424520069E+03  0.18424520071E+03  0.26000000000E-02 0.  1.
        -11    1    1    2    0    0  0.26632651977E+02 -0.20673122225E+01 -0.21873617534E+02  0.34525745110E+02  0.51100000000E-03 0. -1.
         11    1    1    2    0    0 -0.26632651977E+02  0.20673122225E+01 -0.15490230842E+03  0.15718873079E+03  0.51100000000E-03 0.  1.
<mgrwt>
<rscale>  0 0.74193748E+02</rscale>
<asrwt>0</asrwt>
<pdfrwt beam="1">  1        2 0.11491194E-02 0.74193748E+02</pdfrwt>
<pdfrwt beam="2">  1       -2 0.28345412E-01 0.74193748E+02</pdfrwt>
<totfact> 0.10886708E+05</totfact>
</mgrwt>
</event>
<event>
 4    1  0.1433582E+000  0.2403801E+02  0.7818608E-02  0.1675217E+00
          2   -1    0    0  501    0  0.00000000000E+00  0.00000000000E+00  0.67710366973E+02  0.67710367023E+02  0.26000000000E-02 0. -1.
         -2   -1    0    0    0  501 -0.00000000000E+00 -0.00000000000E+00 -0.21334457058E+01  0.21334472901E+01  0.26000000000E-02 0.  1.
        -11    1    1    2    0    0  0.78720535481E+01 -0.85729874644E+01  0.41500825950E+02  0.43102017307E+02  0.51100000000E-03 0.  1.
         11    1    1    2    0    0 -0.78720535481E+01  0.85729874644E+01  0.24076095317E+02  0.26741797006E+02  0.51100000000E-03 0. -1.
<mgrwt>
<rscale>  0 0.24038007E+02</rscale>
<asrwt>0</asrwt>
<pdfrwt beam="1">  1        2 0.10416981E-01 0.24038007E+02</pdfrwt>
<pdfrwt beam="2">  1       -2 0.32822251E-03 0.24038007E+02</pdfrwt>
<totfact> 0.32180818E+06</totfact>
</mgrwt>
</event>
<event>
 4    1  0.1433582E+000  0.2633932E+02  0.7818608E-02  0.1642478E+00
          2   -1    0    0  501    0  0.00000000000E+00  0.00000000000E+00  0.61268033949E+02  0.61268034004E+02  0.26000000000E-02 0.  1.
         -2   -1    0    0    0  501 -0.00000000000E+00 -0.00000000000E+00 -0.28308379740E+01  0.28308391680E+01  0.26000000000E-02 0. -1.
        -11    1    1    2    0    0 -0.11984247101E+02  0.52213441498E+01  0.25328441066E+02  0.28502886528E+02  0.51100000000E-03 0. -1.
         11    1    1    2    0    0  0.11984247101E+02 -0.52213441498E+01  0.33108754908E+02  0.35595986644E+02  0.51100000000E-03 0.  1.
<mgrwt>
<rscale>  0 0.26339318E+02</rscale>
<asrwt>0</asrwt>
<pdfrwt beam="1">  1        2 0.94258518E-02 0.26339318E+02</pdfrwt>
<pdfrwt beam="2">  1       -2 0.43551361E-03 0.26339318E+02</pdfrwt>
<totfact> 0.25579191E+06</totfact>
</mgrwt>
</event>
<event>
 4    1  0.1433582E+000  0.3164606E+02  0.7818608E-02  0.1580575E+00
         -2   -1    0    0    0  501 -0.00000000000E+00  0.00000000000E+00  0.13139415263E+03  0.13139415265E+03  0.26000000000E-02 0.  1.
          2   -1    0    0  501    0  0.00000000000E+00 -0.00000000000E+00 -0.19054746806E+01  0.19054764544E+01  0.26000000000E-02 0. -1.
        -11    1    1    2    0    0 -0.15325377634E+02  0.36893338956E+01  0.70535108483E+02  0.72275029666E+02  0.51100000000E-03 0. -1.
         11    1    1    2    0    0  0.15325377634E+02 -0.36893338956E+01  0.58953569462E+02  0.61024599440E+02  0.51100000000E-03 0.  1.
<mgrwt>
<rscale>  0 0.31646065E+02</rscale>
<asrwt>0</asrwt>
<pdfrwt beam="2">  1        2 0.29314998E-03 0.31646065E+02</pdfrwt>
<pdfrwt beam="1">  1       -2 0.20214493E-01 0.31646065E+02</pdfrwt>
<totfact> 0.97877362E+05</totfact>
</mgrwt>
</event>
<event>
 4    1  0.1433582E+000  0.6052524E+02  0.7818608E-02  0.1395641E+00
          2   -1    0    0  501    0  0.00000000000E+00  0.00000000000E+00  0.17220389112E+03  0.17220389114E+03  0.26000000000E-02 0. -1.
         -2   -1    0    0    0  501 -0.00000000000E+00 -0.00000000000E+00 -0.53182659635E+01  0.53182665991E+01  0.26000000000E-02 0.  1.
        -11    1    1    2    0    0  0.10567113012E+02  0.28077846259E+02  0.95100191862E+02  0.99719987066E+02  0.51100000000E-03 0. -1.
         11    1    1    2    0    0 -0.10567113012E+02 -0.28077846259E+02  0.71785433299E+02  0.77802170677E+02  0.51100000000E-03 0.  1.
<mgrwt>
<rscale>  0 0.60525239E+02</rscale>
<asrwt>0</asrwt>
<pdfrwt beam="1">  1        2 0.26492902E-01 0.60525239E+02</pdfrwt>
<pdfrwt beam="2">  1       -2 0.81819496E-03 0.60525239E+02</pdfrwt>
<totfact> 0.43164333E+05</totfact>
</mgrwt>
</event>
<event>
 4    1  0.1433582E+000  0.4227559E+02  0.7818608E-02  0.1492103E+00
          2   -1    0    0  501    0  0.00000000000E+00  0.00000000000E+00  0.71564305860E+02  0.71564305907E+02  0.26000000000E-02 0.  1.
         -2   -1    0    0    0  501 -0.00000000000E+00 -0.00000000000E+00 -0.62434232297E+01  0.62434237710E+01  0.26000000000E-02 0. -1.
        -11    1    1    2    0    0  0.19905086372E+01  0.14214936070E+02  0.41014353112E+01  0.14928104501E+02  0.51100000000E-03 0. -1.
         11    1    1    2    0    0 -0.19905086372E+01 -0.14214936070E+02  0.61219447319E+02  0.62879625177E+02  0.51100000000E-03 0.  1.
<mgrwt>
<rscale>  0 0.42275585E+02</rscale>
<asrwt>0</asrwt>
<pdfrwt beam="1">  1        2 0.11009894E-01 0.42275585E+02</pdfrwt>
<pdfrwt beam="2">  1       -2 0.96052661E-03 0.42275585E+02</pdfrwt>
<totfact> 0.84311053E+05</totfact>
</mgrwt>
</event>
<event>
 4    1  0.1433582E+000  0.2198756E+02  0.7818608E-02  0.1708467E+00
          2   -1    0    0  501    0  0.00000000000E+00  0.00000000000E+00  0.60082437067E+01  0.60082442693E+01  0.26000000000E-02 0.  1.
         -2   -1    0    0    0  501 -0.00000000000E+00 -0.00000000000E+00 -0.20116219029E+02  0.20116219197E+02  0.26000000000E-02 0. -1.
        -11    1    1    2    0    0 -0.10208945476E+02 -0.53650577131E-01 -0.11900364589E+02  0.15679417200E+02  0.51100000000E-03 0. -1.
         11    1    1    2    0    0  0.10208945476E+02  0.53650577131E-01 -0.22076107333E+01  0.10445046267E+02  0.51100000000E-03 0.  1.
<mgrwt>
<rscale>  0 0.21987556E+02</rscale>
<asrwt>0</asrwt>
<pdfrwt beam="1">  1        2 0.92434525E-03 0.21987556E+02</pdfrwt>
<pdfrwt beam="2">  1       -2 0.30948029E-02 0.21987556E+02</pdfrwt>
<totfact> 0.30414871E+06</totfact>
</mgrwt>
</event>
<event>
 4    1  0.1433582E+000  0.2132957E+02  0.7818608E-02  0.1720111E+00
         -2   -1    0    0    0  501 -0.00000000000E+00  0.00000000000E+00  0.23201531822E+01  0.23201546390E+01  0.26000000000E-02 0. -1.
          2   -1    0    0  501    0  0.00000000000E+00 -0.00000000000E+00 -0.49021576800E+02  0.49021576869E+02  0.26000000000E-02 0.  1.
        -11    1    1    2    0    0  0.33800507910E+01 -0.97048390946E+01 -0.30213585344E+02  0.31913467138E+02  0.51100000000E-03 0.  1.
         11    1    1    2    0    0 -0.33800507910E+01  0.97048390946E+01 -0.16487838274E+02  0.19428264370E+02  0.51100000000E-03 0. -1.
<mgrwt>
<rscale>  0 0.21329567E+02</rscale>
<asrwt>0</asrwt>
<pdfrwt beam="2">  1        2 0.75417804E-02 0.21329567E+02</pdfrwt>
<pdfrwt beam="1">  1       -2 0.35694680E-03 0.21329567E+02</pdfrwt>
<totfact> 0.39983167E+06</totfact>
</mgrwt>
</event>
<event>
 4    1  0.1433582E+000  0.3245911E+02  0.7818608E-02  0.1572396E+00
          2   -1    0    0  501    0  0.00000000000E+00  0.00000000000E+00  0.23344253420E+01  0.23344267898E+01  0.26000000000E-02 0.  1.
         -2   -1    0    0    0  501 -0.00000000000E+00 -0.00000000000E+00 -0.11283219089E+03  0.11283219092E+03  0.26000000000E-02 0. -1.
        -11    1    1    2    0    0  0.36631730137E+01  0.13658907073E+02 -0.83503019289E+02  0.84692023294E+02  0.51100000000E-03 0. -1.
         11    1    1    2    0    0 -0.36631730137E+01 -0.13658907073E+02 -0.26994746255E+02  0.30474594412E+02  0.51100000000E-03 0.  1.
<mgrwt>
<rscale>  0 0.32459107E+02</rscale>
<asrwt>0</asrwt>
<pdfrwt beam="1">  1        2 0.35914256E-03 0.32459107E+02</pdfrwt>
<pdfrwt beam="2">  1       -2 0.17358794E-01 0.32459107E+02</pdfrwt>
<totfact> 0.96283102E+05</totfact>
</mgrwt>
</event>
<event>
 4    1  0.1433582E+000  0.5111312E+02  0.7818608E-02  0.1439429E+00
         -2   -1    0    0    0  501 -0.00000000000E+00  0.00000000000E+00  0.65184440943E+01  0.65184446129E+01  0.26000000000E-02 0.  1.
          2   -1    0    0  501    0  0.00000000000E+00 -0.00000000000E+00 -0.10019839867E+03  0.10019839870E+03  0.26000000000E-02 0. -1.
        -11    1    1    2    0    0  0.19423970863E+02 -0.59649411694E+01 -0.14477092080E+02  0.24949095427E+02  0.51100000000E-03 0.  1.
         11    1    1    2    0    0 -0.19423970863E+02  0.59649411694E+01 -0.79202862493E+02  0.81767747887E+02  0.51100000000E-03 0. -1.
<mgrwt>
<rscale>  0 0.51113117E+02</rscale>
<asrwt>0</asrwt>
<pdfrwt beam="2">  1        2 0.15415137E-01 0.51113117E+02</pdfrwt>
<pdfrwt beam="1">  1       -2 0.10028377E-02 0.51113117E+02</pdfrwt>
<totfact> 0.56653752E+05</totfact>
</mgrwt>
</event>
<event>
 4    1  0.1433582E+000  0.3835985E+02  0.7818608E-02  0.1520640E+00
          2   -1    0    0  501    0  0.00000000000E+00  0.00000000000E+00  0.61876969842E+01  0.61876975304E+01  0.26000000000E-02 0.  1.
         -2   -1    0    0    0  501 -0.00000000000E+00 -0.00000000000E+00 -0.59451775464E+02  0.59451775521E+02  0.26000000000E-02 0. -1.
        -11    1    1    2    0    0 -0.10832388059E+02 -0.15819530415E+02 -0.25740568274E+02  0.32096339806E+02  0.51100000000E-03 0.  1.
         11    1    1    2    0    0  0.10832388059E+02  0.15819530415E+02 -0.27523510205E+02  0.33543133245E+02  0.51100000000E-03 0. -1.
<mgrwt>
<rscale>  0 0.38359854E+02</rscale>
<asrwt>0</asrwt>
<pdfrwt beam="1">  1        2 0.95195347E-03 0.38359854E+02</pdfrwt>
<pdfrwt beam="2">  1       -2 0.91464267E-02 0.38359854E+02</pdfrwt>
<totfact> 0.74485864E+05</totfact>
</mgrwt>
</event>
<event>
 4    1  0.1433582E+000  0.3707141E+02  0.7818608E-02  0.1530939E+00
          2   -1    0    0  501    0  0.00000000000E+00  0.00000000000E+00  0.24038975012E+02  0.24038975153E+02  0.26000000000E-02 0. -1.
         -2   -1    0    0    0  501 -0.00000000000E+00 -0.00000000000E+00 -0.14292301314E+02  0.14292301551E+02  0.26000000000E-02 0.  1.
        -11    1    1    2    0    0  0.17311598301E+02 -0.63647731541E+01  0.29750496606E+01  0.18682951956E+02  0.51100000000E-03 0.  1.
         11    1    1    2    0    0 -0.17311598301E+02  0.63647731541E+01  0.67716240371E+01  0.19648324748E+02  0.51100000000E-03 0. -1.
<mgrwt>
<rscale>  0 0.37071406E+02</rscale>
<asrwt>0</asrwt>
<pdfrwt beam="1">  1        2 0.36983038E-02 0.37071406E+02</pdfrwt>
<pdfrwt beam="2">  1       -2 0.21988156E-02 0.37071406E+02</pdfrwt>
<totfact> 0.97833299E+05</totfact>
</mgrwt>
</event>
<event>
 4    1  0.1433582E+000  0.2586672E+02  0.7818608E-02  0.1648856E+00
         -2   -1    0    0    0  501 -0.00000000000E+00  0.00000000000E+00  0.15907308783E+01  0.15907330031E+01  0.26000000000E-02 0.  1.
          2   -1    0    0  501    0  0.00000000000E+00 -0.00000000000E+00 -0.10515398469E+03  0.10515398472E+03  0.26000000000E-02 0. -1.
        -11    1    1    2    0    0  0.11685804050E+02  0.53139808573E+01 -0.45288895970E+02  0.47073139977E+02  0.51100000000E-03 0.  1.
         11    1    1    2    0    0 -0.11685804050E+02 -0.53139808573E+01 -0.58274357838E+02  0.59671577745E+02  0.51100000000E-03 0. -1.
<mgrwt>
<rscale>  0 0.25866720E+02</rscale>
<asrwt>0</asrwt>
<pdfrwt beam="2">  1        2 0.16177531E-01 0.25866720E+02</pdfrwt>
<pdfrwt beam="1">  1       -2 0.24472808E-03 0.25866720E+02</pdfrwt>
<totfact> 0.29881175E+06</totfact>
</mgrwt>
</event>
<event>
 4    1  0.1433582E+000  0.2074664E+02  0.7818608E-02  0.1730875E+00
          2   -1    0    0  501    0  0.00000000000E+00  0.00000000000E+00  0.66055072941E+01  0.66055078058E+01  0.26000000000E-02 0.  1.
         -2   -1    0    0    0  501 -0.00000000000E+00 -0.00000000000E+00 -0.16290302467E+02  0.16290302674E+02  0.26000000000E-02 0. -1.
        -11    1    1    2    0    0 -0.54321682678E+01  0.88146630721E+01 -0.41453132702E+01  0.11153042613E+02  0.51100000000E-03 0. -1.
         11    1    1    2    0    0  0.54321682678E+01 -0.88146630721E+01 -0.55394819027E+01  0.11742767867E+02  0.51100000000E-03 0.  1.
<mgrwt>
<rscale>  0 0.20746635E+02</rscale>
<asrwt>0</asrwt>
<pdfrwt beam="1">  1        2 0.10162320E-02 0.20746635E+02</pdfrwt>
<pdfrwt beam="2">  1       -2 0.25062004E-02 0.20746635E+02</pdfrwt>
<totfact> 0.35145442E+06</totfact>
</mgrwt>
</event>
<event>
 4    1  0.1433582E+000  0.2110389E+02  0.7818608E-02  0.1724227E+00
         -2   -1    0    0    0  501 -0.00000000000E+00  0.00000000000E+00  0.89751804645E+01  0.89751808411E+01  0.26000000000E-02 0. -1.
          2   -1    0    0  501    0  0.00000000000E+00 -0.00000000000E+00 -0.12405720247E+02  0.12405720519E+02  0.26000000000E-02 0.  1.
        -11    1    1    2    0    0  0.20624216647E+01 -0.98819078042E+01  0.13971708621E+01  0.10191063323E+02  0.51100000000E-03 0.  1.
         11    1    1    2    0    0 -0.20624216647E+01  0.98819078042E+01 -0.48277106442E+01  0.11189838037E+02  0.51100000000E-03 0. -1.
<mgrwt>
<rscale>  0 0.21103894E+02</rscale>
<asrwt>0</asrwt>
<pdfrwt beam="2">  1        2 0.19085724E-02 0.21103894E+02</pdfrwt>
<pdfrwt beam="1">  1       -2 0.13807971E-02 0.21103894E+02</pdfrwt>
<totfact> 0.35459660E+06</totfact>
</mgrwt>
</event>
<event>
 4    1  0.1433582E+000  0.3054797E+02  0.7818608E-02  0.1592109E+00
          2   -1    0    0  501    0  0.00000000000E+00  0.00000000000E+00  0.63526642678E+02  0.63526642731E+02  0.26000000000E-02 0.  1.
         -2   -1    0    0    0  501 -0.00000000000E+00 -0.00000000000E+00 -0.36723894389E+01  0.36723903593E+01  0.26000000000E-02 0. -1.
        -11    1    1    2    0    0 -0.85698972753E+01  0.90620750382E+01  0.49321499609E+02  0.50874106059E+02  0.51100000000E-03 0.  1.
         11    1    1    2    0    0  0.85698972753E+01 -0.90620750382E+01  0.10532753630E+02  0.16324927032E+02  0.51100000000E-03 0. -1.
<mgrwt>
<rscale>  0 0.30547969E+02</rscale>
<asrwt>0</asrwt>
<pdfrwt beam="1">  1        2 0.97733286E-02 0.30547969E+02</pdfrwt>
<pdfrwt beam="2">  1       -2 0.56498313E-03 0.30547969E+02</pdfrwt>
<totfact> 0.18164225E+06</totfact>
</mgrwt>
</event>
<event>
 4    1  0.1433582E+000  0.2761777E+02  0.7818608E-02  0.1626019E+00
         -2   -1    0    0    0  501 -0.00000000000E+00  0.00000000000E+00  0.21384322618E+02  0.21384322777E+02  0.26000000000E-02 0.  1.
          2   -1    0    0  501    0  0.00000000000E+00 -0.00000000000E+00 -0.89170633555E+01  0.89170637346E+01  0.26000000000E-02 0. -1.
        -11    1    1    2    0    0 -0.10966983386E+02 -0.83123944979E+01  0.74916679157E+01  0.15668302885E+02  0.51100000000E-03 0. -1.
         11    1    1    2    0    0  0.10966983386E+02  0.83123944979E+01  0.49755913473E+01  0.14633083626E+02  0.51100000000E-03 0.  1.
<mgrwt>
<rscale>  0 0.27617775E+02</rscale>
<asrwt>0</asrwt>
<pdfrwt beam="2">  1        2 0.13718560E-02 0.27617775E+02</pdfrwt>
<pdfrwt beam="1">  1       -2 0.32898958E-02 0.27617775E+02</pdfrwt>
<totfact> 0.18201167E+06</totfact>
</mgrwt>
</event>
<event>
 4    1  0.1433582E+000  0.2610128E+02  0.7818608E-02  0.1645670E+00
          2   -1    0    0  501    0  0.00000000000E+00  0.00000000000E+00  0.43744002533E+01  0.43744010260E+01  0.26000000000E-02 0. -1.
         -2   -1    0    0    0  501 -0.00000000000E+00 -0.00000000000E+00 -0.38935424132E+02  0.38935424219E+02  0.26000000000E-02 0.  1.
        -11    1    1    2    0    0 -0.62525293026E+01 -0.78743884973E+01 -0.34754787675E+01  0.10638565214E+02  0.51100000000E-03 0. -1.
         11    1    1    2    0    0  0.62525293026E+01  0.78743884973E+01 -0.31085545111E+02  0.32671260031E+02  0.51100000000E-03 0.  1.
<mgrwt>
<rscale>  0 0.26101276E+02</rscale>
<asrwt>0</asrwt>
<pdfrwt beam="1">  1        2 0.67298475E-03 0.26101276E+02</pdfrwt>
<pdfrwt beam="2">  1       -2 0.59900651E-02 0.26101276E+02</pdfrwt>
<totfact> 0.19365408E+06</totfact>
</mgrwt>
</event>
<event>
 4    1  0.1433582E+000  0.2802705E+02  0.7818608E-02  0.1620980E+00
          2   -1    0    0  501    0  0.00000000000E+00  0.00000000000E+00  0.35841229097E+01  0.35841238528E+01  0.26000000000E-02 0. -1.
         -2   -1    0    0    0  501 -0.00000000000E+00 -0.00000000000E+00 -0.54791309671E+02  0.54791309733E+02  0.26000000000E-02 0.  1.
        -11    1    1    2    0    0 -0.34301603956E+01 -0.13308146747E+02 -0.31309943920E+02  0.34193352552E+02  0.51100000000E-03 0.  1.
         11    1    1    2    0    0  0.34301603956E+01  0.13308146747E+02 -0.19897242841E+02  0.24182081034E+02  0.51100000000E-03 0. -1.
<mgrwt>
<rscale>  0 0.28027045E+02</rscale>
<asrwt>0</asrwt>
<pdfrwt beam="1">  1        2 0.55140364E-03 0.28027045E+02</pdfrwt>
<pdfrwt beam="2">  1       -2 0.84294318E-02 0.28027045E+02</pdfrwt>
<totfact> 0.15696522E+06</totfact>
</mgrwt>
</event>
<event>
 4    1  0.1433582E+000  0.3019489E+02  0.7818608E-02  0.1595944E+00
          2   -1    0    0  501    0  0.00000000000E+00  0.00000000000E+00  0.23797104752E+02  0.23797104894E+02  0.26000000000E-02 0. -1.
         -2   -1    0    0    0  501 -0.00000000000E+00 -0.00000000000E+00 -0.95781769531E+01  0.95781773059E+01  0.26000000000E-02 0.  1.
        -11    1    1    2    0    0  0.14912436837E+02  0.93057508457E+00  0.95022250921E+01  0.17707033189E+02  0.51100000000E-03 0. -1.
         11    1    1    2    0    0 -0.14912436837E+02 -0.93057508457E+00  0.47167027071E+01  0.15668249011E+02  0.51100000000E-03 0.  1.
<mgrwt>
<rscale>  0 0.30194893E+02</rscale>
<asrwt>0</asrwt>
<pdfrwt beam="1">  1        2 0.36610931E-02 0.30194893E+02</pdfrwt>
<pdfrwt beam="2">  1       -2 0.14735657E-02 0.30194893E+02</pdfrwt>
<totfact> 0.16190504E+06</totfact>
</mgrwt>
</event>
<event>
 4    1  0.1433582E+000  0.2116739E+02  0.7818608E-02  0.1723062E+00
          2   -1    0    0  501    0  0.00000000000E+00  0.00000000000E+00  0.28398326950E+02  0.28398327069E+02  0.26000000000E-02 0.  1.
         -2   -1    0    0    0  501 -0.00000000000E+00 -0.00000000000E+00 -0.39444073440E+01  0.39444082009E+01  0.26000000000E-02 0. -1.
        -11    1    1    2    0    0  0.10124596958E+02  0.40823029090E+00  0.75572078412E+01  0.12640629183E+02  0.51100000000E-03 0. -1.
         11    1    1    2    0    0 -0.10124596958E+02 -0.40823029090E+00  0.16896711764E+02  0.19702106086E+02  0.51100000000E-03 0.  1.
<mgrwt>
<rscale>  0 0.21167389E+02</rscale>
<asrwt>0</asrwt>
<pdfrwt beam="1">  1        2 0.43689735E-02 0.21167389E+02</pdfrwt>
<pdfrwt beam="2">  1       -2 0.60683197E-03 0.21167389E+02</pdfrwt>
<totfact> 0.37934326E+06</totfact>
</mgrwt>
</event>
<event>
 4    1  0.1433582E+000  0.2071563E+02  0.7818608E-02  0.1731460E+00
         -2   -1    0    0    0  501 -0.00000000000E+00  0.00000000000E+00  0.40501236419E+02  0.40501236503E+02  0.26000000000E-02 0. -1.
          2   -1    0    0  501    0  0.00000000000E+00 -0.00000000000E+00 -0.26489149620E+01  0.26489162380E+01  0.26000000000E-02 0.  1.
        -11    1    1    2    0    0 -0.92366599267E+01  0.44162349132E+01  0.22196725768E+02  0.24444092384E+02  0.51100000000E-03 0. -1.
         11    1    1    2    0    0  0.92366599267E+01 -0.44162349132E+01  0.15655595689E+02  0.18706060357E+02  0.51100000000E-03 0.  1.
<mgrwt>
<rscale>  0 0.20715633E+02</rscale>
<asrwt>0</asrwt>
<pdfrwt beam="2">  1        2 0.40752551E-03 0.20715633E+02</pdfrwt>
<pdfrwt beam="1">  1       -2 0.62309592E-02 0.20715633E+02</pdfrwt>
<totfact> 0.32281152E+06</totfact>
</mgrwt>
</event>
<event>
 4    1  0.1433582E+000  0.6173203E+02  0.7818608E-02  0.1390704E+00
          2   -1    0    0  501    0  0.00000000000E+00  0.00000000000E+00  0.33134521454E+02  0.33134521556E+02  0.26000000000E-02 0.  1.
         -2   -1    0    0    0  501 -0.00000000000E+00 -0.00000000000E+00 -0.28752819150E+02  0.28752819267E+02  0.26000000000E-02 0. -1.
        -11    1    1    2    0    0 -0.26482444256E+02 -0.15776734586E+02  0.37714284857E+01  0.31055577293E+02  0.51100000000E-03 0. -1.
         11    1    1    2    0    0  0.26482444256E+02  0.15776734586E+02  0.61027381863E+00  0.30831763530E+02  0.51100000000E-03 0.  1.
<mgrwt>
<rscale>  0 0.61732031E+02</rscale>
<asrwt>0</asrwt>
<pdfrwt beam="1">  1        2 0.50976187E-02 0.61732031E+02</pdfrwt>
<pdfrwt beam="2">  1       -2 0.44235107E-02 0.61732031E+02</pdfrwt>
<totfact> 0.27254789E+05</totfact>
</mgrwt>
</event>
<event>
 4    1  0.1433582E+000  0.2527358E+02  0.7818608E-02  0.1657103E+00
         -2   -1    0    0    0  501 -0.00000000000E+00  0.00000000000E+00  0.18109912745E+02  0.18109912932E+02  0.26000000000E-02 0.  1.
          2   -1    0    0  501    0  0.00000000000E+00 -0.00000000000E+00 -0.88177352711E+01  0.88177356544E+01  0.26000000000E-02 0. -1.
        -11    1    1    2    0    0  0.55450614586E+01 -0.11042037609E+02  0.18243396339E+01  0.12490096737E+02  0.51100000000E-03 0.  1.
         11    1    1    2    0    0 -0.55450614586E+01  0.11042037609E+02  0.74678378401E+01  0.14437551849E+02  0.51100000000E-03 0. -1.
<mgrwt>
<rscale>  0 0.25273577E+02</rscale>
<asrwt>0</asrwt>
<pdfrwt beam="2">  1        2 0.13565747E-02 0.25273577E+02</pdfrwt>
<pdfrwt beam="1">  1       -2 0.27861405E-02 0.25273577E+02</pdfrwt>
<totfact> 0.22556846E+06</totfact>
</mgrwt>
</event>
<event>
 4    1  0.1433582E+000  0.2224108E+02  0.7818608E-02  0.1704116E+00
         -2   -1    0    0    0  501 -0.00000000000E+00  0.00000000000E+00  0.14041474912E+01  0.14041498984E+01  0.26000000000E-02 0. -1.
          2   -1    0    0  501    0  0.00000000000E+00 -0.00000000000E+00 -0.88072192334E+02  0.88072192372E+02  0.26000000000E-02 0.  1.
        -11    1    1    2    0    0  0.65535414142E+01 -0.84767552947E+01 -0.31357731259E+02  0.33137766904E+02  0.51100000000E-03 0. -1.
         11    1    1    2    0    0 -0.65535414142E+01  0.84767552947E+01 -0.55310313584E+02  0.56338575367E+02  0.51100000000E-03 0.  1.
<mgrwt>
<rscale>  0 0.22241084E+02</rscale>
<asrwt>0</asrwt>
<pdfrwt beam="2">  1        2 0.13549564E-01 0.22241084E+02</pdfrwt>
<pdfrwt beam="1">  1       -2 0.21602295E-03 0.22241084E+02</pdfrwt>
<totfact> 0.40479964E+06</totfact>
</mgrwt>
</event>
<event>
 4    1  0.1433582E+000  0.2630730E+02  0.7818608E-02  0.1642905E+00
          2   -1    0    0  501    0  0.00000000000E+00  0.00000000000E+00  0.45600998585E+02  0.45600998659E+02  0.26000000000E-02 0. -1.
         -2   -1    0    0    0  501 -0.00000000000E+00 -0.00000000000E+00 -0.37941811334E+01  0.37941820243E+01  0.26000000000E-02 0.  1.
        -11    1    1    2    0    0 -0.42977174641E+01 -0.11533487359E+02  0.29615005014E+02  0.32070862607E+02  0.51100000000E-03 0. -1.
         11    1    1    2    0    0  0.42977174641E+01  0.11533487359E+02  0.12191812437E+02  0.17324318077E+02  0.51100000000E-03 0.  1.
<mgrwt>
<rscale>  0 0.26307297E+02</rscale>
<asrwt>0</asrwt>
<pdfrwt beam="1">  1        2 0.70155382E-02 0.26307297E+02</pdfrwt>
<pdfrwt beam="2">  1       -2 0.58372026E-03 0.26307297E+02</pdfrwt>
<totfact> 0.24432588E+06</totfact>
</mgrwt>
</event>
<event>
 4    1  0.1433582E+000  0.3666017E+02  0.7818608E-02  0.1534333E+00
         -2   -1    0    0    0  501 -0.00000000000E+00  0.00000000000E+00  0.87537357302E+02  0.87537357340E+02  0.26000000000E-02 0. -1.
          2   -1    0    0  501    0  0.00000000000E+00 -0.00000000000E+00 -0.38382689149E+01  0.38382697955E+01  0.26000000000E-02 0.  1.
        -11    1    1    2    0    0  0.54654749915E+01 -0.17491072377E+02  0.40783493952E+02  0.44711323051E+02  0.51100000000E-03 0.  1.
         11    1    1    2    0    0 -0.54654749915E+01  0.17491072377E+02  0.42915594435E+02  0.46664304085E+02  0.51100000000E-03 0. -1.
<mgrwt>
<rscale>  0 0.36660167E+02</rscale>
<asrwt>0</asrwt>
<pdfrwt beam="2">  1        2 0.59050303E-03 0.36660167E+02</pdfrwt>
<pdfrwt beam="1">  1       -2 0.13467285E-01 0.36660167E+02</pdfrwt>
<totfact> 0.76873234E+05</totfact>
</mgrwt>
</event>
<event>
 4    1  0.1433582E+000  0.3202757E+02  0.7818608E-02  0.1576700E+00
          2   -1    0    0  501    0  0.00000000000E+00  0.00000000000E+00  0.40966513877E+02  0.40966513959E+02  0.26000000000E-02 0.  1.
         -2   -1    0    0    0  501 -0.00000000000E+00 -0.00000000000E+00 -0.62597795482E+01  0.62597800881E+01  0.26000000000E-02 0. -1.
        -11    1    1    2    0    0 -0.32629000996E+01  0.14282219209E+02  0.78184747235E+01  0.16605928154E+02  0.51100000000E-03 0. -1.
         11    1    1    2    0    0  0.32629000996E+01 -0.14282219209E+02  0.26888259605E+02  0.30620365893E+02  0.51100000000E-03 0.  1.
<mgrwt>
<rscale>  0 0.32027573E+02</rscale>
<asrwt>0</asrwt>
<pdfrwt beam="1">  1        2 0.63025407E-02 0.32027573E+02</pdfrwt>
<pdfrwt beam="2">  1       -2 0.96304305E-03 0.32027573E+02</pdfrwt>
<totfact> 0.15065521E+06</totfact>
</mgrwt>
</event>
<event>
 4    1  0.1433582E+000  0.2658065E+02  0.7818608E-02  0.1639284E+00
          2   -1    0    0  501    0  0.00000000000E+00  0.00000000000E+00  0.61983074974E+01  0.61983080427E+01  0.26000000000E-02 0. -1.
         -2   -1    0    0    0  501 -0.00000000000E+00 -0.00000000000E+00 -0.28496924885E+02  0.28496925003E+02  0.26000000000E-02 0.  1.
        -11    1    1    2    0    0  0.63757477743E+01  0.93849073042E+01 -0.21149045948E+01  0.11541207324E+02  0.51100000000E-03 0. -1.
         11    1    1    2    0    0 -0.63757477743E+01 -0.93849073042E+01 -0.20183712793E+02  0.23154025722E+02  0.51100000000E-03 0.  1.
<mgrwt>
<rscale>  0 0.26580648E+02</rscale>
<asrwt>0</asrwt>
<pdfrwt beam="1">  1        2 0.95358584E-03 0.26580648E+02</pdfrwt>
<pdfrwt beam="2">  1       -2 0.43841423E-02 0.26580648E+02</pdfrwt>
<totfact> 0.19266585E+06</totfact>
</mgrwt>
</event>
<event>
 4    1  0.1433582E+000  0.4720049E+02  0.7818608E-02  0.1461054E+00
          2   -1    0    0  501    0  0.00000000000E+00  0.00000000000E+00  0.36693224162E+02  0.36693224254E+02  0.26000000000E-02 0.  1.
         -2   -1    0    0    0  501 -0.00000000000E+00 -0.00000000000E+00 -0.15179136271E+02  0.15179136494E+02  0.26000000000E-02 0. -1.
        -11    1    1    2    0    0 -0.66584564003E+01  0.12287025112E+02 -0.10142800171E+02  0.17267959442E+02  0.51100000000E-03 0. -1.
         11    1    1    2    0    0  0.66584564003E+01 -0.12287025112E+02  0.31656888062E+02  0.34604401306E+02  0.51100000000E-03 0.  1.
<mgrwt>
<rscale>  0 0.47200486E+02</rscale>
<asrwt>0</asrwt>
<pdfrwt beam="1">  1        2 0.56451114E-02 0.47200486E+02</pdfrwt>
<pdfrwt beam="2">  1       -2 0.23352518E-02 0.47200486E+02</pdfrwt>
<totfact> 0.56327134E+05</totfact>
</mgrwt>
</event>
<event>
 4    1  0.1433582E+000  0.2444792E+02  0.7818608E-02  0.1669061E+00
          2   -1    0    0  501    0  0.00000000000E+00  0.00000000000E+00  0.11915665916E+02  0.11915666200E+02  0.26000000000E-02 0.  1.
         -2   -1    0    0    0  501 -0.00000000000E+00 -0.00000000000E+00 -0.12540227512E+02  0.12540227782E+02  0.26000000000E-02 0. -1.
        -11    1    1    2    0    0 -0.47778647552E+01 -0.90471162451E+01  0.63792113533E+01  0.12057057756E+02  0.51100000000E-03 0.  1.
         11    1    1    2    0    0  0.47778647552E+01  0.90471162451E+01 -0.70037729495E+01  0.12398836226E+02  0.51100000000E-03 0. -1.
<mgrwt>
<rscale>  0 0.24447918E+02</rscale>
<asrwt>0</asrwt>
<pdfrwt beam="1">  1        2 0.18331794E-02 0.24447918E+02</pdfrwt>
<pdfrwt beam="2">  1       -2 0.19292658E-02 0.24447918E+02</pdfrwt>
<totfact> 0.25076684E+06</totfact>
</mgrwt>
</event>
<event>
 4    1  0.1433582E+000  0.3330885E+02  0.7818608E-02  0.1564152E+00
          2   -1    0    0  501    0  0.00000000000E+00  0.00000000000E+00  0.68884331795E+01  0.68884336701E+01  0.26000000000E-02 0. -1.
         -2   -1    0    0    0  501 -0.00000000000E+00 -0.00000000000E+00 -0.40266034759E+02  0.40266034843E+02  0.26000000000E-02 0.  1.
        -11    1    1    2    0    0  0.16588951998E+02  0.14737545049E+01 -0.16592551786E+02  0.23509105805E+02  0.51100000000E-03 0. -1.
         11    1    1    2    0    0 -0.16588951998E+02 -0.14737545049E+01 -0.16785049794E+02  0.23645362708E+02  0.51100000000E-03 0.  1.
<mgrwt>
<rscale>  0 0.33308852E+02</rscale>
<asrwt>0</asrwt>
<pdfrwt beam="1">  1        2 0.10597590E-02 0.33308852E+02</pdfrwt>
<pdfrwt beam="2">  1       -2 0.61947745E-02 0.33308852E+02</pdfrwt>
<totfact> 0.11015768E+06</totfact>
</mgrwt>
</event>
<event>
 4    1  0.1433582E+000  0.2745806E+02  0.7818608E-02  0.1628015E+00
          2   -1    0    0  501    0  0.00000000000E+00  0.00000000000E+00  0.17837478603E+02  0.17837478793E+02  0.26000000000E-02 0. -1.
         -2   -1    0    0    0  501 -0.00000000000E+00 -0.00000000000E+00 -0.10566864596E+02  0.10566864915E+02  0.26000000000E-02 0.  1.
        -11    1    1    2    0    0  0.88317288129E+01 -0.90174509514E+01 -0.19519780319E+01  0.12772003523E+02  0.51100000000E-03 0.  1.
         11    1    1    2    0    0 -0.88317288129E+01  0.90174509514E+01  0.92225920396E+01  0.15632340185E+02  0.51100000000E-03 0. -1.
<mgrwt>
<rscale>  0 0.27458057E+02</rscale>
<asrwt>0</asrwt>
<pdfrwt beam="1">  1        2 0.27442275E-02 0.27458057E+02</pdfrwt>
<pdfrwt beam="2">  1       -2 0.16256715E-02 0.27458057E+02</pdfrwt>
<totfact> 0.19735733E+06</totfact>
</mgrwt>
</event>
<event>
 4    1  0.1433582E+000  0.2029843E+02  0.7818608E-02  0.1739458E+00
         -2   -1    0    0    0  501 -0.00000000000E+00  0.00000000000E+00  0.10642548857E+01  0.10642580617E+01  0.26000000000E-02 0. -1.
          2   -1    0    0  501    0  0.00000000000E+00 -0.00000000000E+00 -0.96787363827E+02  0.96787363862E+02  0.26000000000E-02 0.  1.
        -11    1    1    2    0    0 -0.13796461392E+01  0.10044696493E+02 -0.45667070399E+02  0.46779062306E+02  0.51100000000E-03 0.  1.
         11    1    1    2    0    0  0.13796461392E+01 -0.10044696493E+02 -0.50056038542E+02  0.51072559618E+02  0.51100000000E-03 0. -1.
<mgrwt>
<rscale>  0 0.20298432E+02</rscale>
<asrwt>0</asrwt>
<pdfrwt beam="2">  1        2 0.14890357E-01 0.20298432E+02</pdfrwt>
<pdfrwt beam="1">  1       -2 0.16373184E-03 0.20298432E+02</pdfrwt>
<totfact> 0.50684696E+06</totfact>
</mgrwt>
</event>
<event>
 4    1  0.1433582E+000  0.2330508E+02  0.7818608E-02  0.1686612E+00
          2   -1    0    0  501    0  0.00000000000E+00  0.00000000000E+00  0.44038066563E+01  0.44038074239E+01  0.26000000000E-02 0.  1.
         -2   -1    0    0    0  501 -0.00000000000E+00 -0.00000000000E+00 -0.30832805432E+02  0.30832805541E+02  0.26000000000E-02 0. -1.
        -11    1    1    2    0    0 -0.55901380270E+01  0.10023222563E+02 -0.16263697670E+02  0.19905338376E+02  0.51100000000E-03 0. -1.
         11    1    1    2    0    0  0.55901380270E+01 -0.10023222563E+02 -0.10165301105E+02  0.15331274589E+02  0.51100000000E-03 0.  1.
<mgrwt>
<rscale>  0 0.23305084E+02</rscale>
<asrwt>0</asrwt>
<pdfrwt beam="1">  1        2 0.67750880E-03 0.23305084E+02</pdfrwt>
<pdfrwt beam="2">  1       -2 0.47435085E-02 0.23305084E+02</pdfrwt>
<totfact> 0.25664550E+06</totfact>
</mgrwt>
</event>
<event>
 4    1  0.1433582E+000  0.3757449E+02  0.7818608E-02  0.1526859E+00
         -2   -1    0    0    0  501 -0.00000000000E+00  0.00000000000E+00  0.45569383345E+01  0.45569390762E+01  0.26000000000E-02 0.  1.
          2   -1    0    0  501    0  0.00000000000E+00 -0.00000000000E+00 -0.77455648406E+02  0.77455648450E+02  0.26000000000E-02 0. -1.
        -11    1    1    2    0    0  0.36673370298E+01  0.17959845273E+02 -0.27461845262E+02  0.33017546071E+02  0.51100000000E-03 0.  1.
         11    1    1    2    0    0 -0.36673370298E+01 -0.17959845273E+02 -0.45436864810E+02  0.48995041455E+02  0.51100000000E-03 0. -1.
<mgrwt>
<rscale>  0 0.37574494E+02</rscale>
<asrwt>0</asrwt>
<pdfrwt beam="2">  1        2 0.11916253E-01 0.37574494E+02</pdfrwt>
<pdfrwt beam="1">  1       -2 0.70106755E-03 0.37574494E+02</pdfrwt>
<totfact> 0.11472683E+06</totfact>
</mgrwt>
</event>
<event>
 4    1  0.1433582E+000  0.3841412E+02  0.7818608E-02  0.1520217E+00
          2   -1    0    0  501    0  0.00000000000E+00  0.00000000000E+00  0.30048408166E+02  0.30048408278E+02  0.26000000000E-02 0. -1.
         -2   -1    0    0    0  501 -0.00000000000E+00 -0.00000000000E+00 -0.12277227039E+02  0.12277227314E+02  0.26000000000E-02 0.  1.
        -11    1    1    2    0    0 -0.83127218219E+01 -0.95391043830E+01  0.24807448609E+02  0.27847896927E+02  0.51100000000E-03 0. -1.
         11    1    1    2    0    0  0.83127218219E+01  0.95391043830E+01 -0.70362674822E+01  0.14477738665E+02  0.51100000000E-03 0.  1.
<mgrwt>
<rscale>  0 0.38414119E+02</rscale>
<asrwt>0</asrwt>
<pdfrwt beam="1">  1        2 0.46228321E-02 0.38414119E+02</pdfrwt>
<pdfrwt beam="2">  1       -2 0.18888042E-02 0.38414119E+02</pdfrwt>
<totfact> 0.92187310E+05</totfact>
</mgrwt>
</event>
<event>
 4    1  0.1433582E+000  0.2516752E+02  0.7818608E-02  0.1658607E+00
          2   -1    0    0  501    0  0.00000000000E+00  0.00000000000E+00  0.13514453446E+03  0.13514453448E+03  0.26000000000E-02 0. -1.
         -2   -1    0    0    0  501 -0.00000000000E+00 -0.00000000000E+00 -0.11717143911E+01  0.11717172758E+01  0.26000000000E-02 0.  1.
        -11    1    1    2    0    0 -0.87850516822E+01  0.90016958373E+01  0.69037006774E+02  0.70173470525E+02  0.51100000000E-03 0.  1.
         11    1    1    2    0    0  0.87850516822E+01 -0.90016958373E+01  0.64935813292E+02  0.66142781232E+02  0.51100000000E-03 0. -1.
<mgrwt>
<rscale>  0 0.25167518E+02</rscale>
<asrwt>0</asrwt>
<pdfrwt beam="1">  1        2 0.20791467E-01 0.25167518E+02</pdfrwt>
<pdfrwt beam="2">  1       -2 0.18026398E-03 0.25167518E+02</pdfrwt>
<totfact> 0.33928455E+06</totfact>
</mgrwt>
</event>
<event>
 4    1  0.1433582E+000  0.2695141E+02  0.7818608E-02  0.1634458E+00
         -2   -1    0    0    0  501 -0.00000000000E+00  0.00000000000E+00  0.41201793173E+02  0.41201793255E+02  0.26000000000E-02 0.  1.
          2   -1    0    0  501    0  0.00000000000E+00 -0.00000000000E+00 -0.44074442890E+01  0.44074450558E+01  0.26000000000E-02 0. -1.
        -11    1    1    2    0    0  0.62421709749E+01 -0.94740146497E+01  0.30702360934E+02  0.32731584429E+02  0.51100000000E-03 0.  1.
         11    1    1    2    0    0 -0.62421709749E+01  0.94740146497E+01  0.60919879509E+01  0.12877653883E+02  0.51100000000E-03 0. -1.
<mgrwt>
<rscale>  0 0.26951410E+02</rscale>
<asrwt>0</asrwt>
<pdfrwt beam="2">  1        2 0.67806840E-03 0.26951410E+02</pdfrwt>
<pdfrwt beam="1">  1       -2 0.63387376E-02 0.26951410E+02</pdfrwt>
<totfact> 0.17876642E+06</totfact>
</mgrwt>
</event>
<event>
 4    1  0.1433582E+000  0.9657337E+02  0.7818608E-02  0.1287671E+00
         -2   -1    0    0    0  501 -0.00000000000E+00  0.00000000000E+00  0.11780111469E+02  0.11780111756E+02  0.26000000000E-02 0. -1.
          2   -1    0    0  501    0  0.00000000000E+00 -0.00000000000E+00 -0.19792714486E+03  0.19792714487E+03  0.26000000000E-02 0.  1.
        -11    1    1    2    0    0  0.37929198790E+02  0.65113187992E+01 -0.15640421746E+03  0.16106924173E+03  0.51100000000E-03 0. -1.
         11    1    1    2    0    0 -0.37929198790E+02 -0.65113187992E+01 -0.29742815928E+02  0.48638014895E+02  0.51100000000E-03 0.  1.
<mgrwt>
<rscale>  0 0.96573368E+02</rscale>
<asrwt>0</asrwt>
<pdfrwt beam="2">  1        2 0.30450328E-01 0.96573368E+02</pdfrwt>
<pdfrwt beam="1">  1       -2 0.18123250E-02 0.96573368E+02</pdfrwt>
<totfact> 0.13190676E+05</totfact>
</mgrwt>
</event>
<event>
 4    1  0.1433582E+000  0.3212074E+02  0.7818608E-02  0.1575764E+00
         -2   -1    0    0    0  501 -0.00000000000E+00  0.00000000000E+00  0.33109194806E+02  0.33109194908E+02  0.26000000000E-02 0. -1.
          2   -1    0    0  501    0  0.00000000000E+00 -0.00000000000E+00 -0.77904504130E+01  0.77904508469E+01  0.26000000000E-02 0.  1.
        -11    1    1    2    0    0  0.15293010769E+02 -0.44271183331E+01  0.99703079464E+01  0.18785169574E+02  0.51100000000E-03 0.  1.
         11    1    1    2    0    0 -0.15293010769E+02  0.44271183331E+01  0.15348436446E+02  0.22114476180E+02  0.51100000000E-03 0. -1.
<mgrwt>
<rscale>  0 0.32120744E+02</rscale>
<asrwt>0</asrwt>
<pdfrwt beam="2">  1        2 0.11985309E-02 0.32120744E+02</pdfrwt>
<pdfrwt beam="1">  1       -2 0.50937223E-02 0.32120744E+02</pdfrwt>
<totfact> 0.12289070E+06</totfact>
</mgrwt>
</event>
<event>
 4    1  0.1433582E+000  0.3165074E+02  0.7818608E-02  0.1580527E+00
          2   -1    0    0  501    0  0.00000000000E+00  0.00000000000E+00  0.10103117908E+02  0.10103118242E+02  0.26000000000E-02 0.  1.
         -2   -1    0    0    0  501 -0.00000000000E+00 -0.00000000000E+00 -0.24788615891E+02  0.24788616027E+02  0.26000000000E-02 0. -1.
        -11    1    1    2    0    0 -0.12271454445E+02  0.19852770305E+01  0.34535792120E+01  0.12901826565E+02  0.51100000000E-03 0.  1.
         11    1    1    2    0    0  0.12271454445E+02 -0.19852770305E+01 -0.18139077196E+02  0.21989907704E+02  0.51100000000E-03 0. -1.
<mgrwt>
<rscale>  0 0.31650739E+02</rscale>
<asrwt>0</asrwt>
<pdfrwt beam="1">  1        2 0.15543259E-02 0.31650739E+02</pdfrwt>
<pdfrwt beam="2">  1       -2 0.38136332E-02 0.31650739E+02</pdfrwt>
<totfact> 0.13149066E+06</totfact>
</mgrwt>
</event>
<event>
 4    1  0.1433582E+000  0.3384247E+02  0.7818608E-02  0.1559127E+00
          2   -1    0    0  501    0  0.00000000000E+00  0.00000000000E+00  0.39568221777E+02  0.39568221862E+02  0.26000000000E-02 0. -1.
         -2   -1    0    0    0  501 -0.00000000000E+00 -0.00000000000E+00 -0.72363169314E+01  0.72363173985E+01  0.26000000000E-02 0.  1.
        -11    1    1    2    0    0 -0.31185243089E+01  0.13444174625E+02  0.29706562693E+02  0.32755929120E+02  0.51100000000E-03 0. -1.
         11    1    1    2    0    0  0.31185243089E+01 -0.13444174625E+02  0.26253421530E+01  0.14048610141E+02  0.51100000000E-03 0.  1.
<mgrwt>
<rscale>  0 0.33842471E+02</rscale>
<asrwt>0</asrwt>
<pdfrwt beam="1">  1        2 0.60874186E-02 0.33842471E+02</pdfrwt>
<pdfrwt beam="2">  1       -2 0.11132796E-02 0.33842471E+02</pdfrwt>
<totfact> 0.13112142E+06</totfact>
</mgrwt>
</event>
<event>
 4    1  0.1433582E+000  0.2606683E+02  0.7818608E-02  0.1646135E+00
         -2   -1    0    0    0  501 -0.00000000000E+00  0.00000000000E+00  0.29556191657E+02  0.29556191771E+02  0.26000000000E-02 0. -1.
          2   -1    0    0  501    0  0.00000000000E+00 -0.00000000000E+00 -0.57473542116E+01  0.57473547997E+01  0.26000000000E-02 0.  1.
        -11    1    1    2    0    0 -0.75673481577E+01  0.10474092204E+02  0.95986250865E+01  0.16096737851E+02  0.51100000000E-03 0.  1.
         11    1    1    2    0    0  0.75673481577E+01 -0.10474092204E+02  0.14210212359E+02  0.19206808720E+02  0.51100000000E-03 0. -1.
<mgrwt>
<rscale>  0 0.26066831E+02</rscale>
<asrwt>0</asrwt>
<pdfrwt beam="2">  1        2 0.88420838E-03 0.26066831E+02</pdfrwt>
<pdfrwt beam="1">  1       -2 0.45471065E-02 0.26066831E+02</pdfrwt>
<totfact> 0.20055741E+06</totfact>
</mgrwt>
</event>
<event>
 4    1  0.1433582E+000  0.2495493E+02  0.7818608E-02  0.1661650E+00
          2   -1    0    0  501    0  0.00000000000E+00  0.00000000000E+00  0.86091021251E+02  0.86091021290E+02  0.26000000000E-02 0. -1.
         -2   -1    0    0    0  501 -0.00000000000E+00 -0.00000000000E+00 -0.18084002355E+01  0.18084021045E+01  0.26000000000E-02 0.  1.
        -11    1    1    2    0    0 -0.10832036652E+02  0.61785525672E+01  0.40648671192E+02  0.42518490093E+02  0.51100000000E-03 0. -1.
         11    1    1    2    0    0  0.10832036652E+02 -0.61785525672E+01  0.43633949824E+02  0.45380933302E+02  0.51100000000E-03 0.  1.
<mgrwt>
<rscale>  0 0.24954928E+02</rscale>
<asrwt>0</asrwt>
<pdfrwt beam="1">  1        2 0.13244772E-01 0.24954928E+02</pdfrwt>
<pdfrwt beam="2">  1       -2 0.27821558E-03 0.24954928E+02</pdfrwt>
<totfact> 0.31000291E+06</totfact>
</mgrwt>
</event>
<event>
 4    1  0.1433582E+000  0.2833786E+02  0.7818608E-02  0.1617223E+00
          2   -1    0    0  501    0  0.00000000000E+00  0.00000000000E+00  0.10638727564E+02  0.10638727882E+02  0.26000000000E-02 0.  1.
         -2   -1    0    0    0  501 -0.00000000000E+00 -0.00000000000E+00 -0.18870541764E+02  0.18870541944E+02  0.26000000000E-02 0. -1.
        -11    1    1    2    0    0 -0.11182560703E+01 -0.13115282182E+02  0.13446573319E+01  0.13231372829E+02  0.51100000000E-03 0.  1.
         11    1    1    2    0    0  0.11182560703E+01  0.13115282182E+02 -0.95764715323E+01  0.16277896996E+02  0.51100000000E-03 0. -1.
<mgrwt>
<rscale>  0 0.28337859E+02</rscale>
<asrwt>0</asrwt>
<pdfrwt beam="1">  1        2 0.16367273E-02 0.28337859E+02</pdfrwt>
<pdfrwt beam="2">  1       -2 0.29031603E-02 0.28337859E+02</pdfrwt>
<totfact> 0.17390199E+06</totfact>
</mgrwt>
</event>
<event>
 4    1  0.1433582E+000  0.3077262E+02  0.7818608E-02  0.1589702E+00
          2   -1    0    0  501    0  0.00000000000E+00  0.00000000000E+00  0.11864738903E+03  0.11864738906E+03  0.26000000000E-02 0.  1.
         -2   -1    0    0    0  501 -0.00000000000E+00 -0.00000000000E+00 -0.19953112253E+01  0.19953129193E+01  0.26000000000E-02 0. -1.
        -11    1    1    2    0    0 -0.13395289492E+02  0.75522013484E+01  0.56292516153E+02  0.58355093187E+02  0.51100000000E-03 0.  1.
         11    1    1    2    0    0  0.13395289492E+02 -0.75522013484E+01  0.60359561649E+02  0.62287608787E+02  0.51100000000E-03 0. -1.
<mgrwt>
<rscale>  0 0.30772622E+02</rscale>
<asrwt>0</asrwt>
<pdfrwt beam="1">  1        2 0.18253451E-01 0.30772622E+02</pdfrwt>
<pdfrwt beam="2">  1       -2 0.30697098E-03 0.30772622E+02</pdfrwt>
<totfact> 0.20539175E+06</totfact>
</mgrwt>
</event>
<event>
 4    1  0.1433582E+000  0.2265516E+02  0.7818608E-02  0.1697162E+00
         -2   -1    0    0    0  501 -0.00000000000E+00  0.00000000000E+00  0.84894487665E+02  0.84894487705E+02  0.26000000000E-02 0. -1.
          2   -1    0    0  501    0  0.00000000000E+00 -0.00000000000E+00 -0.15114526274E+01  0.15114548637E+01  0.26000000000E-02 0.  1.
        -11    1    1    2    0    0  0.10310367474E+02 -0.41941129388E+00  0.23869856799E+02  0.26004800463E+02  0.51100000000E-03 0. -1.
         11    1    1    2    0    0 -0.10310367474E+02  0.41941129388E+00  0.59513178239E+02  0.60401142106E+02  0.51100000000E-03 0.  1.
<mgrwt>
<rscale>  0 0.22655162E+02</rscale>
<asrwt>0</asrwt>
<pdfrwt beam="2">  1        2 0.23253131E-03 0.22655162E+02</pdfrwt>
<pdfrwt beam="1">  1       -2 0.13060693E-01 0.22655162E+02</pdfrwt>
<totfact> 0.23448197E+06</totfact>
</mgrwt>
</event>
<event>
 4    1  0.1433582E+000  0.2577348E+02  0.7818608E-02  0.1650134E+00
         -2   -1    0    0    0  501 -0.00000000000E+00  0.00000000000E+00  0.43474095784E+01  0.43474103559E+01  0.26000000000E-02 0.  1.
          2   -1    0    0  501    0  0.00000000000E+00 -0.00000000000E+00 -0.38199315131E+02  0.38199315219E+02  0.26000000000E-02 0. -1.
        -11    1    1    2    0    0 -0.27449813993E+01 -0.11055821532E+02 -0.69797301473E+01  0.13359743479E+02  0.51100000000E-03 0.  1.
         11    1    1    2    0    0  0.27449813993E+01  0.11055821532E+02 -0.26872175405E+02  0.29186982096E+02  0.51100000000E-03 0. -1.
<mgrwt>
<rscale>  0 0.25773481E+02</rscale>
<asrwt>0</asrwt>
<pdfrwt beam="2">  1        2 0.58768176E-02 0.25773481E+02</pdfrwt>
<pdfrwt beam="1">  1       -2 0.66883233E-03 0.25773481E+02</pdfrwt>
<totfact> 0.24991493E+06</totfact>
</mgrwt>
</event>
<event>
 4    1  0.1433582E+000  0.3218238E+02  0.7818608E-02  0.1575147E+00
          2   -1    0    0  501    0  0.00000000000E+00  0.00000000000E+00  0.41530271895E+02  0.41530271977E+02  0.26000000000E-02 0.  1.
         -2   -1    0    0    0  501 -0.00000000000E+00 -0.00000000000E+00 -0.62346417343E+01  0.62346422764E+01  0.26000000000E-02 0. -1.
        -11    1    1    2    0    0  0.16568943892E+01  0.10854886150E+02  0.19022038338E+00  0.10982260077E+02  0.51100000000E-03 0. -1.
         11    1    1    2    0    0 -0.16568943892E+01 -0.10854886150E+02  0.35105409778E+02  0.36782654176E+02  0.51100000000E-03 0.  1.
<mgrwt>
<rscale>  0 0.32182379E+02</rscale>
<asrwt>0</asrwt>
<pdfrwt beam="1">  1        2 0.63892727E-02 0.32182379E+02</pdfrwt>
<pdfrwt beam="2">  1       -2 0.95917569E-03 0.32182379E+02</pdfrwt>
<totfact> 0.14921546E+06</totfact>
</mgrwt>
</event>
<event>
 4    1  0.1433582E+000  0.8095535E+02  0.7818608E-02  0.1326362E+00
         -2   -1    0    0    0  501 -0.00000000000E+00  0.00000000000E+00  0.64559977607E+02  0.64559977660E+02  0.26000000000E-02 0. -1.
          2   -1    0    0  501    0  0.00000000000E+00 -0.00000000000E+00 -0.25378605790E+02  0.25378605923E+02  0.26000000000E-02 0.  1.
        -11    1    1    2    0    0  0.22277598950E+02 -0.33610863894E+02  0.15669018979E+02  0.43260833819E+02  0.51100000000E-03 0.  1.
         11    1    1    2    0    0 -0.22277598950E+02  0.33610863894E+02  0.23512352838E+02  0.46677749763E+02  0.51100000000E-03 0. -1.
<mgrwt>
<rscale>  0 0.80955351E+02</rscale>
<asrwt>0</asrwt>
<pdfrwt beam="2">  1        2 0.39044009E-02 0.80955351E+02</pdfrwt>
<pdfrwt beam="1">  1       -2 0.99323043E-02 0.80955351E+02</pdfrwt>
<totfact> 0.12030178E+05</totfact>
</mgrwt>
</event>
<event>
 4    1  0.1433582E+000  0.2882733E+02  0.7818608E-02  0.1611425E+00
         -2   -1    0    0    0  501 -0.00000000000E+00  0.00000000000E+00  0.14477699177E+02  0.14477699410E+02  0.26000000000E-02 0. -1.
          2   -1    0    0  501    0  0.00000000000E+00 -0.00000000000E+00 -0.14349916134E+02  0.14349916370E+02  0.26000000000E-02 0.  1.
        -11    1    1    2    0    0  0.91240215097E+01 -0.92416752470E+01 -0.61889649333E+01  0.14386091098E+02  0.51100000000E-03 0.  1.
         11    1    1    2    0    0 -0.91240215097E+01  0.92416752470E+01  0.63167479759E+01  0.14441524682E+02  0.51100000000E-03 0. -1.
<mgrwt>
<rscale>  0 0.28827333E+02</rscale>
<asrwt>0</asrwt>
<pdfrwt beam="2">  1        2 0.22076794E-02 0.28827333E+02</pdfrwt>
<pdfrwt beam="1">  1       -2 0.22273384E-02 0.28827333E+02</pdfrwt>
<totfact> 0.17177907E+06</totfact>
</mgrwt>
</event>
<event>
 4    1  0.1433582E+000  0.4417091E+02  0.7818608E-02  0.1479585E+00
         -2   -1    0    0    0  501 -0.00000000000E+00  0.00000000000E+00  0.39320086505E+02  0.39320086591E+02  0.26000000000E-02 0. -1.
          2   -1    0    0  501    0  0.00000000000E+00 -0.00000000000E+00 -0.12405044205E+02  0.12405044478E+02  0.26000000000E-02 0.  1.
        -11    1    1    2    0    0  0.13745351452E+02 -0.11385522509E+01 -0.67417307558E+01  0.15351935436E+02  0.51100000000E-03 0.  1.
         11    1    1    2    0    0 -0.13745351452E+02  0.11385522509E+01  0.33656773055E+02  0.36373195633E+02  0.51100000000E-03 0. -1.
<mgrwt>
<rscale>  0 0.44170914E+02</rscale>
<asrwt>0</asrwt>
<pdfrwt beam="2">  1        2 0.19084684E-02 0.44170914E+02</pdfrwt>
<pdfrwt beam="1">  1       -2 0.60492440E-02 0.44170914E+02</pdfrwt>
<totfact> 0.56974059E+05</totfact>
</mgrwt>
</event>
<event>
 4    1  0.1433582E+000  0.7498437E+02  0.7818608E-02  0.1343919E+00
         -2   -1    0    0    0  501 -0.00000000000E+00  0.00000000000E+00  0.96808276078E+02  0.96808276112E+02  0.26000000000E-02 0.  1.
          2   -1    0    0  501    0  0.00000000000E+00 -0.00000000000E+00 -0.14520079234E+02  0.14520079467E+02  0.26000000000E-02 0. -1.
        -11    1    1    2    0    0  0.14380980968E+01  0.18438359813E+02 -0.72763538106E+01  0.19874268886E+02  0.51100000000E-03 0. -1.
         11    1    1    2    0    0 -0.14380980968E+01 -0.18438359813E+02  0.89564550654E+02  0.91454086693E+02  0.51100000000E-03 0.  1.
<mgrwt>
<rscale>  0 0.74984368E+02</rscale>
<asrwt>0</asrwt>
<pdfrwt beam="2">  1        2 0.22338583E-02 0.74984368E+02</pdfrwt>
<pdfrwt beam="1">  1       -2 0.14893581E-01 0.74984368E+02</pdfrwt>
<totfact> 0.13100438E+05</totfact>
</mgrwt>
</event>
<event>
 4    1  0.1433582E+000  0.2829631E+02  0.7818608E-02  0.1617722E+00
         -2   -1    0    0    0  501 -0.00000000000E+00  0.00000000000E+00  0.27288280045E+02  0.27288280169E+02  0.26000000000E-02 0.  1.
          2   -1    0    0  501    0  0.00000000000E+00 -0.00000000000E+00 -0.73353960616E+01  0.73353965224E+01  0.26000000000E-02 0. -1.
        -11    1    1    2    0    0  0.12032693058E+02 -0.40292462434E+01  0.17632552974E+02  0.21723891275E+02  0.51100000000E-03 0.  1.
         11    1    1    2    0    0 -0.12032693058E+02  0.40292462434E+01  0.23203310097E+01  0.12899785416E+02  0.51100000000E-03 0. -1.
<mgrwt>
<rscale>  0 0.28296314E+02</rscale>
<asrwt>0</asrwt>
<pdfrwt beam="2">  1        2 0.11285225E-02 0.28296314E+02</pdfrwt>
<pdfrwt beam="1">  1       -2 0.41981969E-02 0.28296314E+02</pdfrwt>
<totfact> 0.16799832E+06</totfact>
</mgrwt>
</event>
<event>
 4    1  0.1433582E+000  0.3317032E+02  0.7818608E-02  0.1565476E+00
          2   -1    0    0  501    0  0.00000000000E+00  0.00000000000E+00  0.30444321030E+02  0.30444321141E+02  0.26000000000E-02 0.  1.
         -2   -1    0    0    0  501 -0.00000000000E+00 -0.00000000000E+00 -0.90350990440E+01  0.90350994181E+01  0.26000000000E-02 0. -1.
        -11    1    1    2    0    0  0.11512114239E+02 -0.10415474527E+02  0.37588203916E+01  0.15973090336E+02  0.51100000000E-03 0. -1.
         11    1    1    2    0    0 -0.11512114239E+02  0.10415474527E+02  0.17650401594E+02  0.23506330223E+02  0.51100000000E-03 0.  1.
<mgrwt>
<rscale>  0 0.33170316E+02</rscale>
<asrwt>0</asrwt>
<pdfrwt beam="1">  1        2 0.46837417E-02 0.33170316E+02</pdfrwt>
<pdfrwt beam="2">  1       -2 0.13900153E-02 0.33170316E+02</pdfrwt>
<totfact> 0.13275829E+06</totfact>
</mgrwt>
</event>
<event>
 4    1  0.1433582E+000  0.3150947E+02  0.7818608E-02  0.1581979E+00
          2   -1    0    0  501    0  0.00000000000E+00  0.00000000000E+00  0.29610985769E+02  0.29610985883E+02  0.26000000000E-02 0. -1.
         -2   -1    0    0    0  501 -0.00000000000E+00 -0.00000000000E+00 -0.83824163199E+01  0.83824167231E+01  0.26000000000E-02 0.  1.
        -11    1    1    2    0    0  0.14264625071E+02  0.63748157394E+01  0.81746135913E+01  0.17633550742E+02  0.51100000000E-03 0.  1.
         11    1    1    2    0    0 -0.14264625071E+02 -0.63748157394E+01  0.13053955858E+02  0.20359851865E+02  0.51100000000E-03 0. -1.
<mgrwt>
<rscale>  0 0.31509467E+02</rscale>
<asrwt>0</asrwt>
<pdfrwt beam="1">  1        2 0.45555364E-02 0.31509467E+02</pdfrwt>
<pdfrwt beam="2">  1       -2 0.12896025E-02 0.31509467E+02</pdfrwt>
<totfact> 0.14989876E+06</totfact>
</mgrwt>
</event>
<event>
 4    1  0.1433582E+000  0.3776318E+02  0.7818608E-02  0.1525348E+00
          2   -1    0    0  501    0  0.00000000000E+00  0.00000000000E+00  0.11774062002E+03  0.11774062005E+03  0.26000000000E-02 0.  1.
         -2   -1    0    0    0  501 -0.00000000000E+00 -0.00000000000E+00 -0.30279638411E+01  0.30279649573E+01  0.26000000000E-02 0. -1.
        -11    1    1    2    0    0  0.27172110688E+00  0.15815094316E+02  0.90332466844E+02  0.91706846020E+02  0.51100000000E-03 0. -1.
         11    1    1    2    0    0 -0.27172110688E+00 -0.15815094316E+02  0.24380189334E+02  0.29061738985E+02  0.51100000000E-03 0.  1.
<mgrwt>
<rscale>  0 0.37763178E+02</rscale>
<asrwt>0</asrwt>
<pdfrwt beam="1">  1        2 0.18113945E-01 0.37763178E+02</pdfrwt>
<pdfrwt beam="2">  1       -2 0.46584059E-03 0.37763178E+02</pdfrwt>
<totfact> 0.12546552E+06</totfact>
</mgrwt>
</event>
<event>
 4    1  0.1433582E+000  0.2064132E+02  0.7818608E-02  0.1732867E+00
          2   -1    0    0  501    0  0.00000000000E+00  0.00000000000E+00  0.28204193837E+02  0.28204193957E+02  0.26000000000E-02 0. -1.
         -2   -1    0    0    0  501 -0.00000000000E+00 -0.00000000000E+00 -0.37766016623E+01  0.37766025573E+01  0.26000000000E-02 0.  1.
        -11    1    1    2    0    0 -0.92078246735E+01  0.45120889926E+01  0.14029283528E+02  0.17377105020E+02  0.51100000000E-03 0. -1.
         11    1    1    2    0    0  0.92078246735E+01 -0.45120889926E+01  0.10398308647E+02  0.14603691495E+02  0.51100000000E-03 0.  1.
<mgrwt>
<rscale>  0 0.20641320E+02</rscale>
<asrwt>0</asrwt>
<pdfrwt beam="1">  1        2 0.43391068E-02 0.20641320E+02</pdfrwt>
<pdfrwt beam="2">  1       -2 0.58101572E-03 0.20641320E+02</pdfrwt>
<totfact> 0.40129362E+06</totfact>
</mgrwt>
</event>
<event>
 4    1  0.1433582E+000  0.2655441E+02  0.7818608E-02  0.1639629E+00
          2   -1    0    0  501    0  0.00000000000E+00  0.00000000000E+00  0.74210497671E+01  0.74210502226E+01  0.26000000000E-02 0. -1.
         -2   -1    0    0    0  501 -0.00000000000E+00 -0.00000000000E+00 -0.23754618992E+02  0.23754619135E+02  0.26000000000E-02 0.  1.
        -11    1    1    2    0    0  0.10558938099E+02 -0.72907666212E+01 -0.41616796355E+01  0.13489478469E+02  0.51100000000E-03 0.  1.
         11    1    1    2    0    0 -0.10558938099E+02  0.72907666212E+01 -0.12171889590E+02  0.17686190889E+02  0.51100000000E-03 0. -1.
<mgrwt>
<rscale>  0 0.26554413E+02</rscale>
<asrwt>0</asrwt>
<pdfrwt beam="1">  1        2 0.11417000E-02 0.26554413E+02</pdfrwt>
<pdfrwt beam="2">  1       -2 0.36545568E-02 0.26554413E+02</pdfrwt>
<totfact> 0.19676929E+06</totfact>
</mgrwt>
</event>
<event>
 4    1  0.1433582E+000  0.2595196E+02  0.7818608E-02  0.1647693E+00
          2   -1    0    0  501    0  0.00000000000E+00  0.00000000000E+00  0.44641341698E+01  0.44641349270E+01  0.26000000000E-02 0.  1.
         -2   -1    0    0    0  501 -0.00000000000E+00 -0.00000000000E+00 -0.37717514281E+02  0.37717514370E+02  0.26000000000E-02 0. -1.
        -11    1    1    2    0    0  0.10423518189E+02  0.25532688260E+01 -0.47706848811E+01  0.11744290001E+02  0.51100000000E-03 0.  1.
         11    1    1    2    0    0 -0.10423518189E+02 -0.25532688260E+01 -0.28482695230E+02  0.30437359296E+02  0.51100000000E-03 0. -1.
<mgrwt>
<rscale>  0 0.25951960E+02</rscale>
<asrwt>0</asrwt>
<pdfrwt beam="1">  1        2 0.68678996E-03 0.25951960E+02</pdfrwt>
<pdfrwt beam="2">  1       -2 0.58026944E-02 0.25951960E+02</pdfrwt>
<totfact> 0.19696054E+06</totfact>
</mgrwt>
</event>
<event>
 4    1  0.1433582E+000  0.3525480E+02  0.7818608E-02  0.1546349E+00
          2   -1    0    0  501    0  0.00000000000E+00  0.00000000000E+00  0.30625284697E+02  0.30625284807E+02  0.26000000000E-02 0. -1.
         -2   -1    0    0    0  501 -0.00000000000E+00 -0.00000000000E+00 -0.10146035588E+02  0.10146035921E+02  0.26000000000E-02 0.  1.
        -11    1    1    2    0    0 -0.15865774635E+02  0.41226466553E+01  0.17734998518E+02  0.24150552642E+02  0.51100000000E-03 0.  1.
         11    1    1    2    0    0  0.15865774635E+02 -0.41226466553E+01  0.27442505911E+01  0.16620768086E+02  0.51100000000E-03 0. -1.
<mgrwt>
<rscale>  0 0.35254800E+02</rscale>
<asrwt>0</asrwt>
<pdfrwt beam="1">  1        2 0.47115822E-02 0.35254800E+02</pdfrwt>
<pdfrwt beam="2">  1       -2 0.15609286E-02 0.35254800E+02</pdfrwt>
<totfact> 0.11441294E+06</totfact>
</mgrwt>
</event>
<event>
 4    1  0.1433582E+000  0.2755517E+02  0.7818608E-02  0.1626800E+00
          2   -1    0    0  501    0  0.00000000000E+00  0.00000000000E+00  0.14165213812E+02  0.14165214051E+02  0.26000000000E-02 0. -1.
         -2   -1    0    0    0  501 -0.00000000000E+00 -0.00000000000E+00 -0.13400565455E+02  0.13400565707E+02  0.26000000000E-02 0.  1.
        -11    1    1    2    0    0 -0.34465177729E+01 -0.13225329963E+02 -0.13601970838E+01  0.13734554006E+02  0.51100000000E-03 0. -1.
         11    1    1    2    0    0  0.34465177729E+01  0.13225329963E+02  0.21248454413E+01  0.13831225752E+02  0.51100000000E-03 0.  1.
<mgrwt>
<rscale>  0 0.27555172E+02</rscale>
<asrwt>0</asrwt>
<pdfrwt beam="1">  1        2 0.21792637E-02 0.27555172E+02</pdfrwt>
<pdfrwt beam="2">  1       -2 0.20616255E-02 0.27555172E+02</pdfrwt>
<totfact> 0.19135882E+06</totfact>
</mgrwt>
</event>
<event>
 4    1  0.1433582E+000  0.2378013E+02  0.7818608E-02  0.1679168E+00
          2   -1    0    0  501    0  0.00000000000E+00  0.00000000000E+00  0.11787273417E+02  0.11787273704E+02  0.26000000000E-02 0. -1.
         -2   -1    0    0    0  501 -0.00000000000E+00 -0.00000000000E+00 -0.11993756275E+02  0.11993756557E+02  0.26000000000E-02 0.  1.
        -11    1    1    2    0    0 -0.42526495711E+01 -0.10393253008E+02  0.38044568385E+01  0.11856585873E+02  0.51100000000E-03 0. -1.
         11    1    1    2    0    0  0.42526495711E+01  0.10393253008E+02 -0.40109396960E+01  0.11924444388E+02  0.51100000000E-03 0.  1.
<mgrwt>
<rscale>  0 0.23780134E+02</rscale>
<asrwt>0</asrwt>
<pdfrwt beam="1">  1        2 0.18134267E-02 0.23780134E+02</pdfrwt>
<pdfrwt beam="2">  1       -2 0.18451933E-02 0.23780134E+02</pdfrwt>
<totfact> 0.26745563E+06</totfact>
</mgrwt>
</event>
<event>
 4    1  0.1433582E+000  0.2269208E+02  0.7818608E-02  0.1696551E+00
         -2   -1    0    0    0  501 -0.00000000000E+00  0.00000000000E+00  0.24476479558E+01  0.24476493367E+01  0.26000000000E-02 0. -1.
          2   -1    0    0  501    0  0.00000000000E+00 -0.00000000000E+00 -0.52594380198E+02  0.52594380262E+02  0.26000000000E-02 0.  1.
        -11    1    1    2    0    0 -0.11342478593E+02 -0.21901484704E+00 -0.24634213783E+02  0.27120919547E+02  0.51100000000E-03 0. -1.
         11    1    1    2    0    0  0.11342478593E+02  0.21901484704E+00 -0.25512518459E+02  0.27921110052E+02  0.51100000000E-03 0.  1.
<mgrwt>
<rscale>  0 0.22692075E+02</rscale>
<asrwt>0</asrwt>
<pdfrwt beam="2">  1        2 0.80914424E-02 0.22692075E+02</pdfrwt>
<pdfrwt beam="1">  1       -2 0.37656137E-03 0.22692075E+02</pdfrwt>
<totfact> 0.35130763E+06</totfact>
</mgrwt>
</event>
<event>
 4    1  0.1433582E+000  0.2559884E+02  0.7818608E-02  0.1652547E+00
          2   -1    0    0  501    0  0.00000000000E+00  0.00000000000E+00  0.95124067080E+01  0.95124070633E+01  0.26000000000E-02 0. -1.
         -2   -1    0    0    0  501 -0.00000000000E+00 -0.00000000000E+00 -0.17222256422E+02  0.17222256618E+02  0.26000000000E-02 0.  1.
        -11    1    1    2    0    0 -0.95763825189E+01 -0.77324682055E+01 -0.18816667581E+00  0.12309897386E+02  0.51100000000E-03 0. -1.
         11    1    1    2    0    0  0.95763825189E+01  0.77324682055E+01 -0.75216830384E+01  0.14424766296E+02  0.51100000000E-03 0.  1.
<mgrwt>
<rscale>  0 0.25598837E+02</rscale>
<asrwt>0</asrwt>
<pdfrwt beam="1">  1        2 0.14634472E-02 0.25598837E+02</pdfrwt>
<pdfrwt beam="2">  1       -2 0.26495780E-02 0.25598837E+02</pdfrwt>
<totfact> 0.22023529E+06</totfact>
</mgrwt>
</event>
<event>
 4    1  0.1433582E+000  0.1103528E+03  0.7818608E-02  0.1259918E+00
         -2   -1    0    0    0  501 -0.00000000000E+00  0.00000000000E+00  0.17619170430E+03  0.17619170432E+03  0.26000000000E-02 0.  1.
          2   -1    0    0  501    0  0.00000000000E+00 -0.00000000000E+00 -0.17279103607E+02  0.17279103802E+02  0.26000000000E-02 0. -1.
        -11    1    1    2    0    0 -0.24537553172E+02  0.25377206160E+02  0.15380409550E+03  0.15780302247E+03  0.51100000000E-03 0.  1.
         11    1    1    2    0    0  0.24537553172E+02 -0.25377206160E+02  0.51085052019E+01  0.35667785659E+02  0.51100000000E-03 0. -1.
<mgrwt>
<rscale>  0 0.11035279E+03</rscale>
<asrwt>0</asrwt>
<pdfrwt beam="2">  1        2 0.26583236E-02 0.11035279E+03</pdfrwt>
<pdfrwt beam="1">  1       -2 0.27106416E-01 0.11035279E+03</pdfrwt>
<totfact> 0.40392917E+04</totfact>
</mgrwt>
</event>
<event>
 4    1  0.1433582E+000  0.2297245E+02  0.7818608E-02  0.1691957E+00
         -2   -1    0    0    0  501 -0.00000000000E+00  0.00000000000E+00  0.46533130555E+02  0.46533130627E+02  0.26000000000E-02 0.  1.
          2   -1    0    0  501    0  0.00000000000E+00 -0.00000000000E+00 -0.28352564205E+01  0.28352576127E+01  0.26000000000E-02 0. -1.
        -11    1    1    2    0    0  0.85685009585E+01 -0.66272889639E+01  0.13639428387E+02  0.17417639756E+02  0.51100000000E-03 0. -1.
         11    1    1    2    0    0 -0.85685009585E+01  0.66272889639E+01  0.30058445747E+02  0.31950748484E+02  0.51100000000E-03 0.  1.
<mgrwt>
<rscale>  0 0.22972452E+02</rscale>
<asrwt>0</asrwt>
<pdfrwt beam="2">  1        2 0.43619341E-03 0.22972452E+02</pdfrwt>
<pdfrwt beam="1">  1       -2 0.71589430E-02 0.22972452E+02</pdfrwt>
<totfact> 0.25211474E+06</totfact>
</mgrwt>
</event>
<event>
 4    1  0.1433582E+000  0.2713460E+02  0.7818608E-02  0.1632108E+00
         -2   -1    0    0    0  501 -0.00000000000E+00  0.00000000000E+00  0.10481896018E+02  0.10481896341E+02  0.26000000000E-02 0.  1.
          2   -1    0    0  501    0  0.00000000000E+00 -0.00000000000E+00 -0.17560907717E+02  0.17560907910E+02  0.26000000000E-02 0. -1.
        -11    1    1    2    0    0 -0.11487433417E+02 -0.66098119054E+01 -0.65385071963E+01  0.14778457854E+02  0.51100000000E-03 0.  1.
         11    1    1    2    0    0  0.11487433417E+02  0.66098119054E+01 -0.54050450288E+00  0.13264346396E+02  0.51100000000E-03 0. -1.
<mgrwt>
<rscale>  0 0.27134599E+02</rscale>
<asrwt>0</asrwt>
<pdfrwt beam="2">  1        2 0.27016781E-02 0.27134599E+02</pdfrwt>
<pdfrwt beam="1">  1       -2 0.16125994E-02 0.27134599E+02</pdfrwt>
<totfact> 0.20271894E+06</totfact>
</mgrwt>
</event>
<event>
 4    1  0.1433582E+000  0.2278525E+02  0.7818608E-02  0.1695015E+00
         -2   -1    0    0    0  501 -0.00000000000E+00  0.00000000000E+00  0.20412078560E+01  0.20412095119E+01  0.26000000000E-02 0.  1.
          2   -1    0    0  501    0  0.00000000000E+00 -0.00000000000E+00 -0.63585782141E+02  0.63585782194E+02  0.26000000000E-02 0. -1.
        -11    1    1    2    0    0 -0.45290348844E+01  0.10319734801E+02 -0.35577000443E+02  0.37319325344E+02  0.51100000000E-03 0. -1.
         11    1    1    2    0    0  0.45290348844E+01 -0.10319734801E+02 -0.25967573841E+02  0.28307666361E+02  0.51100000000E-03 0.  1.
<mgrwt>
<rscale>  0 0.22785246E+02</rscale>
<asrwt>0</asrwt>
<pdfrwt beam="2">  1        2 0.97824266E-02 0.22785246E+02</pdfrwt>
<pdfrwt beam="1">  1       -2 0.31403216E-03 0.22785246E+02</pdfrwt>
<totfact> 0.35941715E+06</totfact>
</mgrwt>
</event>
<event>
 4    1  0.1433582E+000  0.2395541E+02  0.7818608E-02  0.1676475E+00
         -2   -1    0    0    0  501 -0.00000000000E+00  0.00000000000E+00  0.20101813110E+01  0.20101829924E+01  0.26000000000E-02 0. -1.
          2   -1    0    0  501    0  0.00000000000E+00 -0.00000000000E+00 -0.71369335688E+02  0.71369335735E+02  0.26000000000E-02 0.  1.
        -11    1    1    2    0    0 -0.10121710715E+02  0.50397158125E+01 -0.46784960270E+02  0.48131904917E+02  0.51100000000E-03 0.  1.
         11    1    1    2    0    0  0.10121710715E+02 -0.50397158125E+01 -0.22574194107E+02  0.25247613810E+02  0.51100000000E-03 0. -1.
<mgrwt>
<rscale>  0 0.23955406E+02</rscale>
<asrwt>0</asrwt>
<pdfrwt beam="2">  1        2 0.10979896E-01 0.23955406E+02</pdfrwt>
<pdfrwt beam="1">  1       -2 0.30925885E-03 0.23955406E+02</pdfrwt>
<totfact> 0.32762422E+06</totfact>
</mgrwt>
</event>
<event>
 4    1  0.1433582E+000  0.4789659E+02  0.7818608E-02  0.1457029E+00
         -2   -1    0    0    0  501 -0.00000000000E+00  0.00000000000E+00  0.54594197867E+02  0.54594197929E+02  0.26000000000E-02 0.  1.
          2   -1    0    0  501    0  0.00000000000E+00 -0.00000000000E+00 -0.10505158506E+02  0.10505158828E+02  0.26000000000E-02 0. -1.
        -11    1    1    2    0    0 -0.14596988522E+01  0.21339326786E+02  0.74044066930E+01  0.22634549414E+02  0.51100000000E-03 0. -1.
         11    1    1    2    0    0  0.14596988522E+01 -0.21339326786E+02  0.36684632668E+02  0.42464807343E+02  0.51100000000E-03 0.  1.
<mgrwt>
<rscale>  0 0.47896585E+02</rscale>
<asrwt>0</asrwt>
<pdfrwt beam="2">  1        2 0.16161783E-02 0.47896585E+02</pdfrwt>
<pdfrwt beam="1">  1       -2 0.83991074E-02 0.47896585E+02</pdfrwt>
<totfact> 0.44504304E+05</totfact>
</mgrwt>
</event>
<event>
 4    1  0.1433582E+000  0.3916627E+02  0.7818608E-02  0.1514438E+00
          2   -1    0    0  501    0  0.00000000000E+00  0.00000000000E+00  0.11273546237E+03  0.11273546240E+03  0.26000000000E-02 0.  1.
         -2   -1    0    0    0  501 -0.00000000000E+00 -0.00000000000E+00 -0.34017606013E+01  0.34017615949E+01  0.26000000000E-02 0. -1.
        -11    1    1    2    0    0  0.12463569234E+02 -0.14775968551E+02  0.63963378246E+02  0.66820532485E+02  0.51100000000E-03 0.  1.
         11    1    1    2    0    0 -0.12463569234E+02  0.14775968551E+02  0.45370323523E+02  0.49316691510E+02  0.51100000000E-03 0. -1.
<mgrwt>
<rscale>  0 0.39166267E+02</rscale>
<asrwt>0</asrwt>
<pdfrwt beam="1">  1        2 0.17343919E-01 0.39166267E+02</pdfrwt>
<pdfrwt beam="2">  1       -2 0.52334782E-03 0.39166267E+02</pdfrwt>
<totfact> 0.11346411E+06</totfact>
</mgrwt>
</event>
<event>
 4    1  0.1433582E+000  0.2850375E+02  0.7818608E-02  0.1615242E+00
         -2   -1    0    0    0  501 -0.00000000000E+00  0.00000000000E+00  0.53487444608E+01  0.53487450927E+01  0.26000000000E-02 0.  1.
          2   -1    0    0  501    0  0.00000000000E+00 -0.00000000000E+00 -0.37974502285E+02  0.37974502374E+02  0.26000000000E-02 0. -1.
        -11    1    1    2    0    0 -0.10244859899E+02 -0.96796242826E+01 -0.19524052412E+02  0.24079885869E+02  0.51100000000E-03 0. -1.
         11    1    1    2    0    0  0.10244859899E+02  0.96796242826E+01 -0.13101705411E+02  0.19243361597E+02  0.51100000000E-03 0.  1.
<mgrwt>
<rscale>  0 0.28503749E+02</rscale>
<asrwt>0</asrwt>
<pdfrwt beam="2">  1        2 0.58422310E-02 0.28503749E+02</pdfrwt>
<pdfrwt beam="1">  1       -2 0.82288384E-03 0.28503749E+02</pdfrwt>
<totfact> 0.19701100E+06</totfact>
</mgrwt>
</event>
<event>
 4    1  0.1433582E+000  0.2661832E+02  0.7818608E-02  0.1638789E+00
          2   -1    0    0  501    0  0.00000000000E+00  0.00000000000E+00  0.30388592860E+02  0.30388592972E+02  0.26000000000E-02 0.  1.
         -2   -1    0    0    0  501 -0.00000000000E+00 -0.00000000000E+00 -0.58289534538E+01  0.58289540337E+01  0.26000000000E-02 0. -1.
        -11    1    1    2    0    0  0.62559862026E+01  0.10826197367E+02  0.18483701472E+02  0.22315714938E+02  0.51100000000E-03 0.  1.
         11    1    1    2    0    0 -0.62559862026E+01 -0.10826197367E+02  0.60759379344E+01  0.13901832068E+02  0.51100000000E-03 0. -1.
<mgrwt>
<rscale>  0 0.26618317E+02</rscale>
<asrwt>0</asrwt>
<pdfrwt beam="1">  1        2 0.46751682E-02 0.26618317E+02</pdfrwt>
<pdfrwt beam="2">  1       -2 0.89676211E-03 0.26618317E+02</pdfrwt>
<totfact> 0.22504467E+06</totfact>
</mgrwt>
</event>
<event>
 4    1  0.1433582E+000  0.4732075E+02  0.7818608E-02  0.1460353E+00
          2   -1    0    0  501    0  0.00000000000E+00  0.00000000000E+00  0.28022291988E+02  0.28022292109E+02  0.26000000000E-02 0.  1.
         -2   -1    0    0    0  501 -0.00000000000E+00 -0.00000000000E+00 -0.19977429911E+02  0.19977430080E+02  0.26000000000E-02 0. -1.
        -11    1    1    2    0    0 -0.15915813158E+02  0.14813213728E+02 -0.54425292806E+01  0.22413512323E+02  0.51100000000E-03 0. -1.
         11    1    1    2    0    0  0.15915813158E+02 -0.14813213728E+02  0.13487391358E+02  0.25586209866E+02  0.51100000000E-03 0.  1.
<mgrwt>
<rscale>  0 0.47320752E+02</rscale>
<asrwt>0</asrwt>
<pdfrwt beam="1">  1        2 0.43111219E-02 0.47320752E+02</pdfrwt>
<pdfrwt beam="2">  1       -2 0.30734508E-02 0.47320752E+02</pdfrwt>
<totfact> 0.53615227E+05</totfact>
</mgrwt>
</event>
<event>
 4    1  0.1433582E+000  0.2820890E+02  0.7818608E-02  0.1618775E+00
          2   -1    0    0  501    0  0.00000000000E+00  0.00000000000E+00  0.18774800722E+02  0.18774800902E+02  0.26000000000E-02 0. -1.
         -2   -1    0    0    0  501 -0.00000000000E+00 -0.00000000000E+00 -0.10595876579E+02  0.10595876898E+02  0.26000000000E-02 0.  1.
        -11    1    1    2    0    0  0.72654240698E+01  0.11608721457E+02  0.57607205741E+00  0.13706956630E+02  0.51100000000E-03 0.  1.
         11    1    1    2    0    0 -0.72654240698E+01 -0.11608721457E+02  0.76028520862E+01  0.15663721170E+02  0.51100000000E-03 0. -1.
<mgrwt>
<rscale>  0 0.28208898E+02</rscale>
<asrwt>0</asrwt>
<pdfrwt beam="1">  1        2 0.28884309E-02 0.28208898E+02</pdfrwt>
<pdfrwt beam="2">  1       -2 0.16301349E-02 0.28208898E+02</pdfrwt>
<totfact> 0.18595108E+06</totfact>
</mgrwt>
</event>
<event>
 4    1  0.1433582E+000  0.4447842E+02  0.7818608E-02  0.1477624E+00
         -2   -1    0    0    0  501 -0.00000000000E+00  0.00000000000E+00  0.48000536619E+01  0.48000543661E+01  0.26000000000E-02 0.  1.
          2   -1    0    0  501    0  0.00000000000E+00 -0.00000000000E+00 -0.10303684919E+03  0.10303684922E+03  0.26000000000E-02 0. -1.
        -11    1    1    2    0    0 -0.20516568088E+02 -0.17099037019E+01 -0.69508394449E+02  0.72493242691E+02  0.51100000000E-03 0. -1.
         11    1    1    2    0    0  0.20516568088E+02  0.17099037019E+01 -0.28728401079E+02  0.35343660897E+02  0.51100000000E-03 0.  1.
<mgrwt>
<rscale>  0 0.44478419E+02</rscale>
<asrwt>0</asrwt>
<pdfrwt beam="2">  1        2 0.15851821E-01 0.44478419E+02</pdfrwt>
<pdfrwt beam="1">  1       -2 0.73846993E-03 0.44478419E+02</pdfrwt>
<totfact> 0.80963412E+05</totfact>
</mgrwt>
</event>
<event>
 4    1  0.1433582E+000  0.3671573E+02  0.7818608E-02  0.1533872E+00
         -2   -1    0    0    0  501 -0.00000000000E+00  0.00000000000E+00  0.21828601881E+02  0.21828602036E+02  0.26000000000E-02 0.  1.
          2   -1    0    0  501    0  0.00000000000E+00 -0.00000000000E+00 -0.15438975395E+02  0.15438975614E+02  0.26000000000E-02 0. -1.
        -11    1    1    2    0    0 -0.41476746642E+01 -0.13518144907E+02  0.15078376980E+02  0.20671257810E+02  0.51100000000E-03 0.  1.
         11    1    1    2    0    0  0.41476746642E+01  0.13518144907E+02 -0.86887504935E+01  0.16596319840E+02  0.51100000000E-03 0. -1.
<mgrwt>
<rscale>  0 0.36715733E+02</rscale>
<asrwt>0</asrwt>
<pdfrwt beam="2">  1        2 0.23752270E-02 0.36715733E+02</pdfrwt>
<pdfrwt beam="1">  1       -2 0.33582465E-02 0.36715733E+02</pdfrwt>
<totfact> 0.94928639E+05</totfact>
</mgrwt>
</event>
<event>
 4    1  0.1433582E+000  0.2432316E+02  0.7818608E-02  0.1670918E+00
         -2   -1    0    0    0  501 -0.00000000000E+00  0.00000000000E+00  0.71745896563E+01  0.71745901274E+01  0.26000000000E-02 0.  1.
          2   -1    0    0  501    0  0.00000000000E+00 -0.00000000000E+00 -0.20614973409E+02  0.20614973573E+02  0.26000000000E-02 0. -1.
        -11    1    1    2    0    0 -0.83462468039E+00 -0.11555375542E+02 -0.24943264848E+01  0.11850947943E+02  0.51100000000E-03 0. -1.
         11    1    1    2    0    0  0.83462468039E+00  0.11555375542E+02 -0.10946057268E+02  0.15938615757E+02  0.51100000000E-03 0.  1.
<mgrwt>
<rscale>  0 0.24323156E+02</rscale>
<asrwt>0</asrwt>
<pdfrwt beam="2">  1        2 0.31715344E-02 0.24323156E+02</pdfrwt>
<pdfrwt beam="1">  1       -2 0.11037831E-02 0.24323156E+02</pdfrwt>
<totfact> 0.26667706E+06</totfact>
</mgrwt>
</event>
<event>
 4    1  0.1433582E+000  0.2153894E+02  0.7818608E-02  0.1716350E+00
         -2   -1    0    0    0  501 -0.00000000000E+00  0.00000000000E+00  0.70138515672E+02  0.70138515720E+02  0.26000000000E-02 0.  1.
          2   -1    0    0  501    0  0.00000000000E+00 -0.00000000000E+00 -0.16536056009E+01  0.16536076449E+01  0.26000000000E-02 0. -1.
        -11    1    1    2    0    0  0.40196617131E+01  0.97375277061E+01  0.41698834990E+02  0.43008952160E+02  0.51100000000E-03 0.  1.
         11    1    1    2    0    0 -0.40196617131E+01 -0.97375277061E+01  0.26786075081E+02  0.28783171205E+02  0.51100000000E-03 0. -1.
<mgrwt>
<rscale>  0 0.21538943E+02</rscale>
<asrwt>0</asrwt>
<pdfrwt beam="2">  1        2 0.25440103E-03 0.21538943E+02</pdfrwt>
<pdfrwt beam="1">  1       -2 0.10790541E-01 0.21538943E+02</pdfrwt>
<totfact> 0.27247648E+06</totfact>
</mgrwt>
</event>
<event>
 4    1  0.1433582E+000  0.2491837E+02  0.7818608E-02  0.1662177E+00
          2   -1    0    0  501    0  0.00000000000E+00  0.00000000000E+00  0.11021670647E+02  0.11021670954E+02  0.26000000000E-02 0. -1.
         -2   -1    0    0    0  501 -0.00000000000E+00 -0.00000000000E+00 -0.14084187514E+02  0.14084187754E+02  0.26000000000E-02 0.  1.
        -11    1    1    2    0    0 -0.13081012599E+01  0.12061371036E+02 -0.43887010846E+01  0.12901492070E+02  0.51100000000E-03 0.  1.
         11    1    1    2    0    0  0.13081012599E+01 -0.12061371036E+02  0.13261842181E+01  0.12204366637E+02  0.51100000000E-03 0. -1.
<mgrwt>
<rscale>  0 0.24918369E+02</rscale>
<asrwt>0</asrwt>
<pdfrwt beam="1">  1        2 0.16956417E-02 0.24918369E+02</pdfrwt>
<pdfrwt beam="2">  1       -2 0.21667981E-02 0.24918369E+02</pdfrwt>
<totfact> 0.23803174E+06</totfact>
</mgrwt>
</event>
<event>
 4    1  0.1433582E+000  0.2283899E+02  0.7818608E-02  0.1694133E+00
          2   -1    0    0  501    0  0.00000000000E+00  0.00000000000E+00  0.57151288460E+02  0.57151288519E+02  0.26000000000E-02 0.  1.
         -2   -1    0    0    0  501 -0.00000000000E+00 -0.00000000000E+00 -0.22817483890E+01  0.22817498703E+01  0.26000000000E-02 0. -1.
        -11    1    1    2    0    0  0.10012791151E+02 -0.26185278946E+01  0.39993812114E+02  0.41311229499E+02  0.51100000000E-03 0. -1.
         11    1    1    2    0    0 -0.10012791151E+02  0.26185278946E+01  0.14875727956E+02  0.18121808891E+02  0.51100000000E-03 0.  1.
<mgrwt>
<rscale>  0 0.22838994E+02</rscale>
<asrwt>0</asrwt>
<pdfrwt beam="1">  1        2 0.87925056E-02 0.22838994E+02</pdfrwt>
<pdfrwt beam="2">  1       -2 0.35103835E-03 0.22838994E+02</pdfrwt>
<totfact> 0.35092904E+06</totfact>
</mgrwt>
</event>
<event>
 4    1  0.1433582E+000  0.3557666E+02  0.7818608E-02  0.1543539E+00
         -2   -1    0    0    0  501 -0.00000000000E+00  0.00000000000E+00  0.20197475619E+01  0.20197492354E+01  0.26000000000E-02 0. -1.
          2   -1    0    0  501    0  0.00000000000E+00 -0.00000000000E+00 -0.15666535983E+03  0.15666535985E+03  0.26000000000E-02 0.  1.
        -11    1    1    2    0    0  0.35601524461E+01  0.17427478757E+02 -0.78131985869E+02  0.80131135755E+02  0.51100000000E-03 0. -1.
         11    1    1    2    0    0 -0.35601524461E+01 -0.17427478757E+02 -0.76513626395E+02  0.78553973328E+02  0.51100000000E-03 0.  1.
<mgrwt>
<rscale>  0 0.35576656E+02</rscale>
<asrwt>0</asrwt>
<pdfrwt beam="2">  1        2 0.24102354E-01 0.35576656E+02</pdfrwt>
<pdfrwt beam="1">  1       -2 0.31073065E-03 0.35576656E+02</pdfrwt>
<totfact> 0.15713817E+06</totfact>
</mgrwt>
</event>
<event>
 4    1  0.1433582E+000  0.2477122E+02  0.7818608E-02  0.1664310E+00
         -2   -1    0    0    0  501 -0.00000000000E+00  0.00000000000E+00  0.18873403796E+01  0.18873421705E+01  0.26000000000E-02 0.  1.
          2   -1    0    0  501    0  0.00000000000E+00 -0.00000000000E+00 -0.81280101723E+02  0.81280101765E+02  0.26000000000E-02 0. -1.
        -11    1    1    2    0    0 -0.96122028351E+01  0.72910316630E+01 -0.49102982569E+02  0.50563390743E+02  0.51100000000E-03 0. -1.
         11    1    1    2    0    0  0.96122028351E+01 -0.72910316630E+01 -0.30289778775E+02  0.32604053192E+02  0.51100000000E-03 0.  1.
<mgrwt>
<rscale>  0 0.24771217E+02</rscale>
<asrwt>0</asrwt>
<pdfrwt beam="2">  1        2 0.12504628E-01 0.24771217E+02</pdfrwt>
<pdfrwt beam="1">  1       -2 0.29036026E-03 0.24771217E+02</pdfrwt>
<totfact> 0.31147201E+06</totfact>
</mgrwt>
</event>
<event>
 4    1  0.1433582E+000  0.1530679E+03  0.7818608E-02  0.1196753E+00
         -2   -1    0    0    0  501 -0.00000000000E+00  0.00000000000E+00  0.22323725615E+02  0.22323725767E+02  0.26000000000E-02 0. -1.
          2   -1    0    0  501    0  0.00000000000E+00 -0.00000000000E+00 -0.26238653209E+03  0.26238653210E+03  0.26000000000E-02 0.  1.
        -11    1    1    2    0    0  0.61188794349E+02 -0.10558613341E+02 -0.36809174279E+02  0.72183572791E+02  0.51100000000E-03 0. -1.
         11    1    1    2    0    0 -0.61188794349E+02  0.10558613341E+02 -0.20325363219E+03  0.21252668508E+03  0.51100000000E-03 0.  1.
<mgrwt>
<rscale>  0 0.15306789E+03</rscale>
<asrwt>0</asrwt>
<pdfrwt beam="2">  1        2 0.40367157E-01 0.15306789E+03</pdfrwt>
<pdfrwt beam="1">  1       -2 0.34344195E-02 0.15306789E+03</pdfrwt>
<totfact> 0.40866143E+04</totfact>
</mgrwt>
</event>
<event>
 4    1  0.1433582E+000  0.2636821E+02  0.7818608E-02  0.1642093E+00
          2   -1    0    0  501    0  0.00000000000E+00  0.00000000000E+00  0.67598108785E+01  0.67598113785E+01  0.26000000000E-02 0.  1.
         -2   -1    0    0    0  501 -0.00000000000E+00 -0.00000000000E+00 -0.25713832199E+02  0.25713832330E+02  0.26000000000E-02 0. -1.
        -11    1    1    2    0    0  0.42834655913E+01  0.12326292966E+02 -0.71614840951E+01  0.14885309216E+02  0.51100000000E-03 0.  1.
         11    1    1    2    0    0 -0.42834655913E+01 -0.12326292966E+02 -0.11792537225E+02  0.17588334493E+02  0.51100000000E-03 0. -1.
<mgrwt>
<rscale>  0 0.26368212E+02</rscale>
<asrwt>0</asrwt>
<pdfrwt beam="1">  1        2 0.10399710E-02 0.26368212E+02</pdfrwt>
<pdfrwt beam="2">  1       -2 0.39559742E-02 0.26368212E+02</pdfrwt>
<totfact> 0.19831401E+06</totfact>
</mgrwt>
</event>
<event>
 4    1  0.1433582E+000  0.2213251E+02  0.7818608E-02  0.1705970E+00
          2   -1    0    0  501    0  0.00000000000E+00  0.00000000000E+00  0.97065394603E+02  0.97065394638E+02  0.26000000000E-02 0. -1.
         -2   -1    0    0    0  501 -0.00000000000E+00 -0.00000000000E+00 -0.12616429304E+01  0.12616456094E+01  0.26000000000E-02 0.  1.
        -11    1    1    2    0    0 -0.58926906485E+01  0.89679738391E+01  0.35887278870E+02  0.37457244197E+02  0.51100000000E-03 0. -1.
         11    1    1    2    0    0  0.58926906485E+01 -0.89679738391E+01  0.59916472802E+02  0.60869796050E+02  0.51100000000E-03 0.  1.
<mgrwt>
<rscale>  0 0.22132510E+02</rscale>
<asrwt>0</asrwt>
<pdfrwt beam="1">  1        2 0.14933141E-01 0.22132510E+02</pdfrwt>
<pdfrwt beam="2">  1       -2 0.19409908E-03 0.22132510E+02</pdfrwt>
<totfact> 0.41817689E+06</totfact>
</mgrwt>
</event>
<event>
 4    1  0.1433582E+000  0.2924448E+02  0.7818608E-02  0.1606593E+00
          2   -1    0    0  501    0  0.00000000000E+00  0.00000000000E+00  0.73344490860E+02  0.73344490906E+02  0.26000000000E-02 0. -1.
         -2   -1    0    0    0  501 -0.00000000000E+00 -0.00000000000E+00 -0.29151447534E+01  0.29151459129E+01  0.26000000000E-02 0.  1.
        -11    1    1    2    0    0  0.76425296023E+01 -0.11944216260E+02  0.44521238637E+02  0.46724867585E+02  0.51100000000E-03 0. -1.
         11    1    1    2    0    0 -0.76425296023E+01  0.11944216260E+02  0.25908107470E+02  0.29534769234E+02  0.51100000000E-03 0.  1.
<mgrwt>
<rscale>  0 0.29244477E+02</rscale>
<asrwt>0</asrwt>
<pdfrwt beam="1">  1        2 0.11283767E-01 0.29244477E+02</pdfrwt>
<pdfrwt beam="2">  1       -2 0.44848394E-03 0.29244477E+02</pdfrwt>
<totfact> 0.20718227E+06</totfact>
</mgrwt>
</event>
<event>
 4    1  0.1433582E+000  0.2896602E+02  0.7818608E-02  0.1609807E+00
         -2   -1    0    0    0  501 -0.00000000000E+00  0.00000000000E+00  0.20553158755E+01  0.20553175200E+01  0.26000000000E-02 0. -1.
          2   -1    0    0  501    0  0.00000000000E+00 -0.00000000000E+00 -0.10205608671E+03  0.10205608674E+03  0.26000000000E-02 0.  1.
        -11    1    1    2    0    0  0.87277815468E+01  0.93875392344E+01 -0.25767097793E+02  0.28779218067E+02  0.51100000000E-03 0. -1.
         11    1    1    2    0    0 -0.87277815468E+01 -0.93875392344E+01 -0.74233673040E+02  0.75332186195E+02  0.51100000000E-03 0.  1.
<mgrwt>
<rscale>  0 0.28966020E+02</rscale>
<asrwt>0</asrwt>
<pdfrwt beam="2">  1        2 0.15700933E-01 0.28966020E+02</pdfrwt>
<pdfrwt beam="1">  1       -2 0.31620265E-03 0.28966020E+02</pdfrwt>
<totfact> 0.22803785E+06</totfact>
</mgrwt>
</event>
<event>
 4    1  0.1433582E+000  0.3010262E+02  0.7818608E-02  0.1596957E+00
         -2   -1    0    0    0  501 -0.00000000000E+00  0.00000000000E+00  0.88843131304E+01  0.88843135109E+01  0.26000000000E-02 0. -1.
          2   -1    0    0  501    0  0.00000000000E+00 -0.00000000000E+00 -0.25499093614E+02  0.25499093746E+02  0.26000000000E-02 0.  1.
        -11    1    1    2    0    0  0.14650824599E+02 -0.34197048371E+01 -0.88193461777E+01  0.17439091429E+02  0.51100000000E-03 0. -1.
         11    1    1    2    0    0 -0.14650824599E+02  0.34197048371E+01 -0.77954343055E+01  0.16944315828E+02  0.51100000000E-03 0.  1.
<mgrwt>
<rscale>  0 0.30102621E+02</rscale>
<asrwt>0</asrwt>
<pdfrwt beam="2">  1        2 0.39229375E-02 0.30102621E+02</pdfrwt>
<pdfrwt beam="1">  1       -2 0.13668175E-02 0.30102621E+02</pdfrwt>
<totfact> 0.16441062E+06</totfact>
</mgrwt>
</event>
<event>
 4    1  0.1433582E+000  0.2748031E+02  0.7818608E-02  0.1627736E+00
         -2   -1    0    0    0  501 -0.00000000000E+00  0.00000000000E+00  0.34806716913E+01  0.34806726623E+01  0.26000000000E-02 0. -1.
          2   -1    0    0  501    0  0.00000000000E+00 -0.00000000000E+00 -0.54240061209E+02  0.54240061271E+02  0.26000000000E-02 0.  1.
        -11    1    1    2    0    0 -0.87002861690E+01 -0.84315155667E+01 -0.38993142929E+02  0.40831980480E+02  0.51100000000E-03 0. -1.
         11    1    1    2    0    0  0.87002861690E+01  0.84315155667E+01 -0.11766246589E+02  0.16888753454E+02  0.51100000000E-03 0.  1.
<mgrwt>
<rscale>  0 0.27480311E+02</rscale>
<asrwt>0</asrwt>
<pdfrwt beam="2">  1        2 0.83446243E-02 0.27480311E+02</pdfrwt>
<pdfrwt beam="1">  1       -2 0.53548807E-03 0.27480311E+02</pdfrwt>
<totfact> 0.22678417E+06</totfact>
</mgrwt>
</event>
<event>
 4    1  0.1433582E+000  0.3178295E+02  0.7818608E-02  0.1579177E+00
         -2   -1    0    0    0  501 -0.00000000000E+00  0.00000000000E+00  0.84840434146E+01  0.84840438130E+01  0.26000000000E-02 0.  1.
          2   -1    0    0  501    0  0.00000000000E+00 -0.00000000000E+00 -0.29766345694E+02  0.29766345808E+02  0.26000000000E-02 0. -1.
        -11    1    1    2    0    0  0.12085869546E+02  0.34556602518E+01  0.10598906335E+01  0.12614800786E+02  0.51100000000E-03 0.  1.
         11    1    1    2    0    0 -0.12085869546E+02 -0.34556602518E+01 -0.22342192913E+02  0.25635588834E+02  0.51100000000E-03 0. -1.
<mgrwt>
<rscale>  0 0.31782950E+02</rscale>
<asrwt>0</asrwt>
<pdfrwt beam="2">  1        2 0.45794378E-02 0.31782950E+02</pdfrwt>
<pdfrwt beam="1">  1       -2 0.13052375E-02 0.31782950E+02</pdfrwt>
<totfact> 0.14688591E+06</totfact>
</mgrwt>
</event>
<event>
 4    1  0.1433582E+000  0.2252048E+02  0.7818608E-02  0.1699403E+00
          2   -1    0    0  501    0  0.00000000000E+00  0.00000000000E+00  0.69489648989E+02  0.69489649038E+02  0.26000000000E-02 0. -1.
         -2   -1    0    0    0  501 -0.00000000000E+00 -0.00000000000E+00 -0.18246304405E+01  0.18246322929E+01  0.26000000000E-02 0.  1.
        -11    1    1    2    0    0  0.11014546322E+02  0.23249097549E+00  0.26461160137E+02  0.28662994938E+02  0.51100000000E-03 0.  1.
         11    1    1    2    0    0 -0.11014546322E+02 -0.23249097549E+00  0.41203858411E+02  0.42651286393E+02  0.51100000000E-03 0. -1.
<mgrwt>
<rscale>  0 0.22520479E+02</rscale>
<asrwt>0</asrwt>
<pdfrwt beam="1">  1        2 0.10690718E-01 0.22520479E+02</pdfrwt>
<pdfrwt beam="2">  1       -2 0.28071246E-03 0.22520479E+02</pdfrwt>
<totfact> 0.37515409E+06</totfact>
</mgrwt>
</event>
<event>
 4    1  0.1433582E+000  0.3067087E+02  0.7818608E-02  0.1590789E+00
         -2   -1    0    0    0  501 -0.00000000000E+00  0.00000000000E+00  0.40271489437E+01  0.40271497830E+01  0.26000000000E-02 0. -1.
          2   -1    0    0  501    0  0.00000000000E+00 -0.00000000000E+00 -0.58397509170E+02  0.58397509227E+02  0.26000000000E-02 0.  1.
        -11    1    1    2    0    0  0.15140451837E+02  0.24376287097E+01 -0.27212451655E+02  0.31236082355E+02  0.51100000000E-03 0. -1.
         11    1    1    2    0    0 -0.15140451837E+02 -0.24376287097E+01 -0.27157908571E+02  0.31188576655E+02  0.51100000000E-03 0.  1.
<mgrwt>
<rscale>  0 0.30670865E+02</rscale>
<asrwt>0</asrwt>
<pdfrwt beam="2">  1        2 0.89842316E-02 0.30670865E+02</pdfrwt>
<pdfrwt beam="1">  1       -2 0.61956149E-03 0.30670865E+02</pdfrwt>
<totfact> 0.17714111E+06</totfact>
</mgrwt>
</event>
<event>
 4    1  0.1433582E+000  0.3140524E+02  0.7818608E-02  0.1583056E+00
          2   -1    0    0  501    0  0.00000000000E+00  0.00000000000E+00  0.33152369835E+02  0.33152369937E+02  0.26000000000E-02 0.  1.
         -2   -1    0    0    0  501 -0.00000000000E+00 -0.00000000000E+00 -0.74375469763E+01  0.74375474307E+01  0.26000000000E-02 0. -1.
        -11    1    1    2    0    0 -0.75726634448E+01 -0.12794124268E+02  0.19388791547E+02  0.24432766633E+02  0.51100000000E-03 0.  1.
         11    1    1    2    0    0  0.75726634448E+01  0.12794124268E+02  0.63260313110E+01  0.16157150734E+02  0.51100000000E-03 0. -1.
<mgrwt>
<rscale>  0 0.31405243E+02</rscale>
<asrwt>0</asrwt>
<pdfrwt beam="1">  1        2 0.51003647E-02 0.31405243E+02</pdfrwt>
<pdfrwt beam="2">  1       -2 0.11442380E-02 0.31405243E+02</pdfrwt>
<totfact> 0.15333452E+06</totfact>
</mgrwt>
</event>
<event>
 4    1  0.1433582E+000  0.5202922E+02  0.7818608E-02  0.1434694E+00
         -2   -1    0    0    0  501 -0.00000000000E+00  0.00000000000E+00  0.16459308020E+02  0.16459308226E+02  0.26000000000E-02 0.  1.
          2   -1    0    0  501    0  0.00000000000E+00 -0.00000000000E+00 -0.41117153034E+02  0.41117153116E+02  0.26000000000E-02 0. -1.
        -11    1    1    2    0    0  0.67257734135E+01 -0.14409110480E+02  0.10455083850E+02  0.19030692878E+02  0.51100000000E-03 0.  1.
         11    1    1    2    0    0 -0.67257734135E+01  0.14409110480E+02 -0.35112928863E+02  0.38545768464E+02  0.51100000000E-03 0. -1.
<mgrwt>
<rscale>  0 0.52029219E+02</rscale>
<asrwt>0</asrwt>
<pdfrwt beam="2">  1        2 0.63257159E-02 0.52029219E+02</pdfrwt>
<pdfrwt beam="1">  1       -2 0.25322013E-02 0.52029219E+02</pdfrwt>
<totfact> 0.44641926E+05</totfact>
</mgrwt>
</event>
<event>
 4    1  0.1433582E+000  0.4303440E+02  0.7818608E-02  0.1486999E+00
          2   -1    0    0  501    0  0.00000000000E+00  0.00000000000E+00  0.45088761998E+02  0.45088762073E+02  0.26000000000E-02 0.  1.
         -2   -1    0    0    0  501 -0.00000000000E+00 -0.00000000000E+00 -0.10268408832E+02  0.10268409161E+02  0.26000000000E-02 0. -1.
        -11    1    1    2    0    0  0.65654310038E+01  0.17769216742E+02  0.30537214682E+02  0.35935656787E+02  0.51100000000E-03 0.  1.
         11    1    1    2    0    0 -0.65654310038E+01 -0.17769216742E+02  0.42831384838E+01  0.19421514447E+02  0.51100000000E-03 0. -1.
<mgrwt>
<rscale>  0 0.43034398E+02</rscale>
<asrwt>0</asrwt>
<pdfrwt beam="1">  1        2 0.69367328E-02 0.43034398E+02</pdfrwt>
<pdfrwt beam="2">  1       -2 0.15797552E-02 0.43034398E+02</pdfrwt>
<totfact> 0.73794973E+05</totfact>
</mgrwt>
</event>
<event>
 4    1  0.1433582E+000  0.2703146E+02  0.7818608E-02  0.1633428E+00
          2   -1    0    0  501    0  0.00000000000E+00  0.00000000000E+00  0.41764636675E+01  0.41764644768E+01  0.26000000000E-02 0.  1.
         -2   -1    0    0    0  501 -0.00000000000E+00 -0.00000000000E+00 -0.43739146507E+02  0.43739146584E+02  0.26000000000E-02 0. -1.
        -11    1    1    2    0    0 -0.86126767531E+00  0.10017662063E+02 -0.37710807957E+01  0.10738546729E+02  0.51100000000E-03 0.  1.
         11    1    1    2    0    0  0.86126767531E+00 -0.10017662063E+02 -0.35791602044E+02  0.37177064332E+02  0.51100000000E-03 0. -1.
<mgrwt>
<rscale>  0 0.27031461E+02</rscale>
<asrwt>0</asrwt>
<pdfrwt beam="1">  1        2 0.64253297E-03 0.27031461E+02</pdfrwt>
<pdfrwt beam="2">  1       -2 0.67290992E-02 0.27031461E+02</pdfrwt>
<totfact> 0.17616129E+06</totfact>
</mgrwt>
</event>
<event>
 4    1  0.1433582E+000  0.2939928E+02  0.7818608E-02  0.1604825E+00
          2   -1    0    0  501    0  0.00000000000E+00  0.00000000000E+00  0.62399501882E+02  0.62399501936E+02  0.26000000000E-02 0.  1.
         -2   -1    0    0    0  501 -0.00000000000E+00 -0.00000000000E+00 -0.34628378744E+01  0.34628388505E+01  0.26000000000E-02 0. -1.
        -11    1    1    2    0    0  0.10749780043E+02 -0.36409693276E+01  0.50395981202E+02  0.51658197318E+02  0.51100000000E-03 0.  1.
         11    1    1    2    0    0 -0.10749780043E+02  0.36409693276E+01  0.85406828059E+01  0.14204143468E+02  0.51100000000E-03 0. -1.
<mgrwt>
<rscale>  0 0.29399278E+02</rscale>
<asrwt>0</asrwt>
<pdfrwt beam="1">  1        2 0.95999226E-02 0.29399278E+02</pdfrwt>
<pdfrwt beam="2">  1       -2 0.53274441E-03 0.29399278E+02</pdfrwt>
<totfact> 0.19829458E+06</totfact>
</mgrwt>
</event>
<event>
 4    1  0.1433582E+000  0.2245616E+02  0.7818608E-02  0.1700480E+00
         -2   -1    0    0    0  501 -0.00000000000E+00  0.00000000000E+00  0.11338278147E+01  0.11338307958E+01  0.26000000000E-02 0. -1.
          2   -1    0    0  501    0  0.00000000000E+00 -0.00000000000E+00 -0.11118940850E+03  0.11118940853E+03  0.26000000000E-02 0.  1.
        -11    1    1    2    0    0 -0.68841623329E+01  0.87407031021E+01 -0.62577547193E+02  0.63558956841E+02  0.51100000000E-03 0. -1.
         11    1    1    2    0    0  0.68841623329E+01 -0.87407031021E+01 -0.47478033488E+02  0.48764282481E+02  0.51100000000E-03 0.  1.
<mgrwt>
<rscale>  0 0.22456163E+02</rscale>
<asrwt>0</asrwt>
<pdfrwt beam="2">  1        2 0.17106055E-01 0.22456163E+02</pdfrwt>
<pdfrwt beam="1">  1       -2 0.17443537E-03 0.22456163E+02</pdfrwt>
<totfact> 0.41787537E+06</totfact>
</mgrwt>
</event>
<event>
 4    1  0.1433582E+000  0.3079654E+02  0.7818608E-02  0.1589447E+00
          2   -1    0    0  501    0  0.00000000000E+00  0.00000000000E+00  0.41641485994E+01  0.41641494111E+01  0.26000000000E-02 0.  1.
         -2   -1    0    0    0  501 -0.00000000000E+00 -0.00000000000E+00 -0.56940011739E+02  0.56940011798E+02  0.26000000000E-02 0. -1.
        -11    1    1    2    0    0 -0.12943543159E+02  0.29825250409E+01 -0.10932643411E+02  0.17203297862E+02  0.51100000000E-03 0.  1.
         11    1    1    2    0    0  0.12943543159E+02 -0.29825250409E+01 -0.41843219729E+02  0.43900863347E+02  0.51100000000E-03 0. -1.
<mgrwt>
<rscale>  0 0.30796539E+02</rscale>
<asrwt>0</asrwt>
<pdfrwt beam="1">  1        2 0.64063835E-03 0.30796539E+02</pdfrwt>
<pdfrwt beam="2">  1       -2 0.87600013E-02 0.30796539E+02</pdfrwt>
<totfact> 0.12555009E+06</totfact>
</mgrwt>
</event>
<event>
 4    1  0.1433582E+000  0.3921674E+02  0.7818608E-02  0.1514056E+00
          2   -1    0    0  501    0  0.00000000000E+00  0.00000000000E+00  0.41575170225E+01  0.41575178355E+01  0.26000000000E-02 0. -1.
         -2   -1    0    0    0  501 -0.00000000000E+00 -0.00000000000E+00 -0.92480241980E+02  0.92480242016E+02  0.26000000000E-02 0.  1.
        -11    1    1    2    0    0 -0.19950115208E+01  0.13391886936E+02 -0.92109661819E+01  0.16375732196E+02  0.51100000000E-03 0. -1.
         11    1    1    2    0    0  0.19950115208E+01 -0.13391886936E+02 -0.79111758775E+02  0.80262027656E+02  0.51100000000E-03 0.  1.
<mgrwt>
<rscale>  0 0.39216742E+02</rscale>
<asrwt>0</asrwt>
<pdfrwt beam="1">  1        2 0.63961814E-03 0.39216742E+02</pdfrwt>
<pdfrwt beam="2">  1       -2 0.14227728E-01 0.39216742E+02</pdfrwt>
<totfact> 0.64666311E+05</totfact>
</mgrwt>
</event>
<event>
 4    1  0.1433582E+000  0.3725084E+02  0.7818608E-02  0.1529475E+00
         -2   -1    0    0    0  501 -0.00000000000E+00  0.00000000000E+00  0.48059677175E+01  0.48059684208E+01  0.26000000000E-02 0.  1.
          2   -1    0    0  501    0  0.00000000000E+00 -0.00000000000E+00 -0.72182374407E+02  0.72182374454E+02  0.26000000000E-02 0. -1.
        -11    1    1    2    0    0 -0.12297098514E+02  0.83786255273E+01 -0.56840118493E+02  0.58755587548E+02  0.51100000000E-03 0. -1.
         11    1    1    2    0    0  0.12297098514E+02 -0.83786255273E+01 -0.10536288197E+02  0.18232755327E+02  0.51100000000E-03 0.  1.
<mgrwt>
<rscale>  0 0.37250836E+02</rscale>
<asrwt>0</asrwt>
<pdfrwt beam="2">  1        2 0.11104980E-01 0.37250836E+02</pdfrwt>
<pdfrwt beam="1">  1       -2 0.73937976E-03 0.37250836E+02</pdfrwt>
<totfact> 0.11542665E+06</totfact>
</mgrwt>
</event>
<event>
 4    1  0.1433582E+000  0.2264476E+02  0.7818608E-02  0.1697334E+00
          2   -1    0    0  501    0  0.00000000000E+00  0.00000000000E+00  0.34569412264E+01  0.34569422042E+01  0.26000000000E-02 0. -1.
         -2   -1    0    0    0  501 -0.00000000000E+00 -0.00000000000E+00 -0.37083723268E+02  0.37083723359E+02  0.26000000000E-02 0.  1.
        -11    1    1    2    0    0 -0.10651936155E+02  0.76611418096E+00 -0.23546782117E+02  0.25855398336E+02  0.51100000000E-03 0.  1.
         11    1    1    2    0    0  0.10651936155E+02 -0.76611418096E+00 -0.10079999925E+02  0.14685267227E+02  0.51100000000E-03 0. -1.
<mgrwt>
<rscale>  0 0.22644759E+02</rscale>
<asrwt>0</asrwt>
<pdfrwt beam="1">  1        2 0.53183722E-03 0.22644759E+02</pdfrwt>
<pdfrwt beam="2">  1       -2 0.57051880E-02 0.22644759E+02</pdfrwt>
<totfact> 0.26796874E+06</totfact>
</mgrwt>
</event>
<event>
 4    1  0.1433582E+000  0.2610605E+02  0.7818608E-02  0.1645605E+00
          2   -1    0    0  501    0  0.00000000000E+00  0.00000000000E+00  0.32515272464E+02  0.32515272568E+02  0.26000000000E-02 0. -1.
         -2   -1    0    0    0  501 -0.00000000000E+00 -0.00000000000E+00 -0.52400416802E+01  0.52400423253E+01  0.26000000000E-02 0.  1.
        -11    1    1    2    0    0  0.95139484592E+01 -0.88938283524E+01  0.12371856301E+02  0.17963246551E+02  0.51100000000E-03 0.  1.
         11    1    1    2    0    0 -0.95139484592E+01  0.88938283524E+01  0.14903374483E+02  0.19792068343E+02  0.51100000000E-03 0. -1.
<mgrwt>
<rscale>  0 0.26106045E+02</rscale>
<asrwt>0</asrwt>
<pdfrwt beam="1">  1        2 0.50023497E-02 0.26106045E+02</pdfrwt>
<pdfrwt beam="2">  1       -2 0.80616031E-03 0.26106045E+02</pdfrwt>
<totfact> 0.23752054E+06</totfact>
</mgrwt>
</event>
<event>
 4    1  0.1433582E+000  0.2568722E+02  0.7818608E-02  0.1651323E+00
         -2   -1    0    0    0  501 -0.00000000000E+00  0.00000000000E+00  0.23554126931E+01  0.23554141281E+01  0.26000000000E-02 0. -1.
          2   -1    0    0  501    0  0.00000000000E+00 -0.00000000000E+00 -0.70033672899E+02  0.70033672947E+02  0.26000000000E-02 0.  1.
        -11    1    1    2    0    0 -0.12353081970E+02 -0.34013139534E+01 -0.36344995585E+02  0.38537336119E+02  0.51100000000E-03 0. -1.
         11    1    1    2    0    0  0.12353081970E+02  0.34013139534E+01 -0.31333264621E+02  0.33851750957E+02  0.51100000000E-03 0.  1.
<mgrwt>
<rscale>  0 0.25687215E+02</rscale>
<asrwt>0</asrwt>
<pdfrwt beam="2">  1        2 0.10774410E-01 0.25687215E+02</pdfrwt>
<pdfrwt beam="1">  1       -2 0.36237135E-03 0.25687215E+02</pdfrwt>
<totfact> 0.27798115E+06</totfact>
</mgrwt>
</event>
<event>
 4    1  0.1433582E+000  0.2758289E+02  0.7818608E-02  0.1626454E+00
         -2   -1    0    0    0  501 -0.00000000000E+00  0.00000000000E+00  0.40484610368E+01  0.40484618717E+01  0.26000000000E-02 0.  1.
          2   -1    0    0  501    0  0.00000000000E+00 -0.00000000000E+00 -0.46981774581E+02  0.46981774653E+02  0.26000000000E-02 0. -1.
        -11    1    1    2    0    0 -0.50109480938E+01  0.12516556642E+02 -0.26838268798E+02  0.30034421308E+02  0.51100000000E-03 0.  1.
         11    1    1    2    0    0  0.50109480938E+01 -0.12516556642E+02 -0.16095044746E+02  0.20995815217E+02  0.51100000000E-03 0. -1.
<mgrwt>
<rscale>  0 0.27582887E+02</rscale>
<asrwt>0</asrwt>
<pdfrwt beam="2">  1        2 0.72279650E-02 0.27582887E+02</pdfrwt>
<pdfrwt beam="1">  1       -2 0.62284026E-03 0.27582887E+02</pdfrwt>
<totfact> 0.21964463E+06</totfact>
</mgrwt>
</event>
<event>
 4    1  0.1433582E+000  0.2888153E+02  0.7818608E-02  0.1610791E+00
         -2   -1    0    0    0  501 -0.00000000000E+00  0.00000000000E+00  0.23105133287E+02  0.23105133433E+02  0.26000000000E-02 0. -1.
          2   -1    0    0  501    0  0.00000000000E+00 -0.00000000000E+00 -0.90255134303E+01  0.90255138048E+01  0.26000000000E-02 0.  1.
        -11    1    1    2    0    0 -0.13706446203E+01 -0.13189562852E+02  0.67884356343E+00  0.13277954050E+02  0.51100000000E-03 0.  1.
         11    1    1    2    0    0  0.13706446203E+01  0.13189562852E+02  0.13400776293E+02  0.18852693188E+02  0.51100000000E-03 0. -1.
<mgrwt>
<rscale>  0 0.28881530E+02</rscale>
<asrwt>0</asrwt>
<pdfrwt beam="2">  1        2 0.13885406E-02 0.28881530E+02</pdfrwt>
<pdfrwt beam="1">  1       -2 0.35546359E-02 0.28881530E+02</pdfrwt>
<totfact> 0.16322777E+06</totfact>
</mgrwt>
</event>
<event>
 4    1  0.1433582E+000  0.6057242E+02  0.7818608E-02  0.1395445E+00
          2   -1    0    0  501    0  0.00000000000E+00  0.00000000000E+00  0.23308706002E+02  0.23308706147E+02  0.26000000000E-02 0.  1.
         -2   -1    0    0    0  501 -0.00000000000E+00 -0.00000000000E+00 -0.39352445602E+02  0.39352445688E+02  0.26000000000E-02 0. -1.
        -11    1    1    2    0    0  0.73684867218E+01  0.17365653143E+02  0.16488922369E+02  0.25054841185E+02  0.51100000000E-03 0.  1.
         11    1    1    2    0    0 -0.73684867218E+01 -0.17365653143E+02 -0.32532661969E+02  0.37606310650E+02  0.51100000000E-03 0. -1.
<mgrwt>
<rscale>  0 0.60572423E+02</rscale>
<asrwt>0</asrwt>
<pdfrwt beam="1">  1        2 0.35859548E-02 0.60572423E+02</pdfrwt>
<pdfrwt beam="2">  1       -2 0.60542224E-02 0.60572423E+02</pdfrwt>
<totfact> 0.26882538E+05</totfact>
</mgrwt>
</event>
<event>
 4    1  0.1433582E+000  0.2361544E+02  0.7818608E-02  0.1681724E+00
          2   -1    0    0  501    0  0.00000000000E+00  0.00000000000E+00  0.24478132562E+02  0.24478132701E+02  0.26000000000E-02 0. -1.
         -2   -1    0    0    0  501 -0.00000000000E+00 -0.00000000000E+00 -0.56957894205E+01  0.56957900139E+01  0.26000000000E-02 0.  1.
        -11    1    1    2    0    0 -0.91847404781E+01  0.67791579781E+01  0.55355348208E+01  0.12686945517E+02  0.51100000000E-03 0.  1.
         11    1    1    2    0    0  0.91847404781E+01 -0.67791579781E+01  0.13246808321E+02  0.17486977197E+02  0.51100000000E-03 0. -1.
<mgrwt>
<rscale>  0 0.23615444E+02</rscale>
<asrwt>0</asrwt>
<pdfrwt beam="1">  1        2 0.37658667E-02 0.23615444E+02</pdfrwt>
<pdfrwt beam="2">  1       -2 0.87627533E-03 0.23615444E+02</pdfrwt>
<totfact> 0.29058343E+06</totfact>
</mgrwt>
</event>
<event>
 4    1  0.1433582E+000  0.2099543E+02  0.7818608E-02  0.1726228E+00
          2   -1    0    0  501    0  0.00000000000E+00  0.00000000000E+00  0.75138928484E+01  0.75138932982E+01  0.26000000000E-02 0.  1.
         -2   -1    0    0    0  501 -0.00000000000E+00 -0.00000000000E+00 -0.14666428583E+02  0.14666428813E+02  0.26000000000E-02 0. -1.
        -11    1    1    2    0    0 -0.13076192554E+00 -0.10486951681E+02 -0.30936189791E+01  0.10934520240E+02  0.51100000000E-03 0.  1.
         11    1    1    2    0    0  0.13076192554E+00  0.10486951681E+02 -0.40589167553E+01  0.11245801871E+02  0.51100000000E-03 0. -1.
<mgrwt>
<rscale>  0 0.20995426E+02</rscale>
<asrwt>0</asrwt>
<pdfrwt beam="1">  1        2 0.11559836E-02 0.20995426E+02</pdfrwt>
<pdfrwt beam="2">  1       -2 0.22563737E-02 0.20995426E+02</pdfrwt>
<totfact> 0.34528918E+06</totfact>
</mgrwt>
</event>
<event>
 4    1  0.1433582E+000  0.5387474E+02  0.7818608E-02  0.1425496E+00
          2   -1    0    0  501    0  0.00000000000E+00  0.00000000000E+00  0.23571116245E+02  0.23571116388E+02  0.26000000000E-02 0. -1.
         -2   -1    0    0    0  501 -0.00000000000E+00 -0.00000000000E+00 -0.30784368491E+02  0.30784368600E+02  0.26000000000E-02 0.  1.
        -11    1    1    2    0    0  0.27811965353E+01  0.99902752953E+01  0.21476460228E+02  0.23849088008E+02  0.51100000000E-03 0. -1.
         11    1    1    2    0    0 -0.27811965353E+01 -0.99902752953E+01 -0.28689712474E+02  0.30506396980E+02  0.51100000000E-03 0.  1.
<mgrwt>
<rscale>  0 0.53874741E+02</rscale>
<asrwt>0</asrwt>
<pdfrwt beam="1">  1        2 0.36263256E-02 0.53874741E+02</pdfrwt>
<pdfrwt beam="2">  1       -2 0.47360567E-02 0.53874741E+02</pdfrwt>
<totfact> 0.37033083E+05</totfact>
</mgrwt>
</event>
<event>
 4    1  0.1433582E+000  0.4253105E+02  0.7818608E-02  0.1490371E+00
         -2   -1    0    0    0  501 -0.00000000000E+00  0.00000000000E+00  0.65281455149E+02  0.65281455201E+02  0.26000000000E-02 0.  1.
          2   -1    0    0  501    0  0.00000000000E+00 -0.00000000000E+00 -0.69272727108E+01  0.69272731987E+01  0.26000000000E-02 0. -1.
        -11    1    1    2    0    0  0.31253822722E+01  0.18518487076E+02  0.12239993102E+02  0.22416953614E+02  0.51100000000E-03 0. -1.
         11    1    1    2    0    0 -0.31253822722E+01 -0.18518487076E+02  0.46114189336E+02  0.49791774786E+02  0.51100000000E-03 0.  1.
<mgrwt>
<rscale>  0 0.42531046E+02</rscale>
<asrwt>0</asrwt>
<pdfrwt beam="2">  1        2 0.10657343E-02 0.42531046E+02</pdfrwt>
<pdfrwt beam="1">  1       -2 0.10043301E-01 0.42531046E+02</pdfrwt>
<totfact> 0.57282648E+05</totfact>
</mgrwt>
</event>
<event>
 4    1  0.1433582E+000  0.2745506E+02  0.7818608E-02  0.1628053E+00
          2   -1    0    0  501    0  0.00000000000E+00  0.00000000000E+00  0.38186325890E+01  0.38186334741E+01  0.26000000000E-02 0. -1.
         -2   -1    0    0    0  501 -0.00000000000E+00 -0.00000000000E+00 -0.49348842093E+02  0.49348842162E+02  0.26000000000E-02 0.  1.
        -11    1    1    2    0    0  0.93586000488E+01 -0.99998439537E+01 -0.20964188867E+02  0.25041515311E+02  0.51100000000E-03 0. -1.
         11    1    1    2    0    0 -0.93586000488E+01  0.99998439537E+01 -0.24566020638E+02  0.28125960325E+02  0.51100000000E-03 0.  1.
<mgrwt>
<rscale>  0 0.27455063E+02</rscale>
<asrwt>0</asrwt>
<pdfrwt beam="1">  1        2 0.58748204E-03 0.27455063E+02</pdfrwt>
<pdfrwt beam="2">  1       -2 0.75921292E-02 0.27455063E+02</pdfrwt>
<totfact> 0.16716782E+06</totfact>
</mgrwt>
</event>
<event>
 4    1  0.1433582E+000  0.3734648E+02  0.7818608E-02  0.1528699E+00
         -2   -1    0    0    0  501 -0.00000000000E+00  0.00000000000E+00  0.10047248398E+02  0.10047248735E+02  0.26000000000E-02 0. -1.
          2   -1    0    0  501    0  0.00000000000E+00 -0.00000000000E+00 -0.34705010128E+02  0.34705010225E+02  0.26000000000E-02 0.  1.
        -11    1    1    2    0    0 -0.78721484429E+01 -0.95754879957E+01 -0.29063471583E+02  0.31596614885E+02  0.51100000000E-03 0.  1.
         11    1    1    2    0    0  0.78721484429E+01  0.95754879957E+01  0.44057098535E+01  0.13155644075E+02  0.51100000000E-03 0. -1.
<mgrwt>
<rscale>  0 0.37346479E+02</rscale>
<asrwt>0</asrwt>
<pdfrwt beam="2">  1        2 0.53392323E-02 0.37346479E+02</pdfrwt>
<pdfrwt beam="1">  1       -2 0.15457306E-02 0.37346479E+02</pdfrwt>
<totfact> 0.10094238E+06</totfact>
</mgrwt>
</event>
<event>
 4    1  0.1433582E+000  0.2350910E+02  0.7818608E-02  0.1683388E+00
         -2   -1    0    0    0  501 -0.00000000000E+00  0.00000000000E+00  0.27002056633E+01  0.27002069151E+01  0.26000000000E-02 0.  1.
          2   -1    0    0  501    0  0.00000000000E+00 -0.00000000000E+00 -0.51169943101E+02  0.51169943167E+02  0.26000000000E-02 0. -1.
        -11    1    1    2    0    0 -0.10085936663E+02 -0.34639239954E+00 -0.10424512210E+02  0.14509188852E+02  0.51100000000E-03 0.  1.
         11    1    1    2    0    0  0.10085936663E+02  0.34639239954E+00 -0.38045225228E+02  0.39360961230E+02  0.51100000000E-03 0. -1.
<mgrwt>
<rscale>  0 0.23509097E+02</rscale>
<asrwt>0</asrwt>
<pdfrwt beam="2">  1        2 0.78722983E-02 0.23509097E+02</pdfrwt>
<pdfrwt beam="1">  1       -2 0.41541639E-03 0.23509097E+02</pdfrwt>
<totfact> 0.32264416E+06</totfact>
</mgrwt>
</event>
<event>
 4    1  0.1433582E+000  0.3113350E+02  0.7818608E-02  0.1585887E+00
          2   -1    0    0  501    0  0.00000000000E+00  0.00000000000E+00  0.33548049047E+01  0.33548059122E+01  0.26000000000E-02 0.  1.
         -2   -1    0    0    0  501 -0.00000000000E+00 -0.00000000000E+00 -0.72231800871E+02  0.72231800918E+02  0.26000000000E-02 0. -1.
        -11    1    1    2    0    0  0.13653799099E+02  0.44453233631E+01 -0.49033026335E+02  0.51092316462E+02  0.51100000000E-03 0. -1.
         11    1    1    2    0    0 -0.13653799099E+02 -0.44453233631E+01 -0.19843969631E+02  0.24494290367E+02  0.51100000000E-03 0.  1.
<mgrwt>
<rscale>  0 0.31133496E+02</rscale>
<asrwt>0</asrwt>
<pdfrwt beam="1">  1        2 0.51612397E-03 0.31133496E+02</pdfrwt>
<pdfrwt beam="2">  1       -2 0.11112584E-01 0.31133496E+02</pdfrwt>
<totfact> 0.11738191E+06</totfact>
</mgrwt>
</event>
<event>
 4    1  0.1433582E+000  0.1008844E+03  0.7818608E-02  0.1278447E+00
         -2   -1    0    0    0  501 -0.00000000000E+00  0.00000000000E+00  0.10488265223E+02  0.10488265546E+02  0.26000000000E-02 0.  1.
          2   -1    0    0  501    0  0.00000000000E+00 -0.00000000000E+00 -0.24259620162E+03  0.24259620163E+03  0.26000000000E-02 0. -1.
        -11    1    1    2    0    0 -0.82188096200E+01 -0.49370648089E+02 -0.13180140013E+03  0.14098446297E+03  0.51100000000E-03 0.  1.
         11    1    1    2    0    0  0.82188096200E+01  0.49370648089E+02 -0.10030653627E+03  0.11210000420E+03  0.51100000000E-03 0. -1.
<mgrwt>
<rscale>  0 0.10088436E+03</rscale>
<asrwt>0</asrwt>
<pdfrwt beam="2">  1        2 0.37322488E-01 0.10088436E+03</pdfrwt>
<pdfrwt beam="1">  1       -2 0.16135795E-02 0.10088436E+03</pdfrwt>
<totfact> 0.12636087E+05</totfact>
</mgrwt>
</event>
<event>
 4    1  0.1433582E+000  0.2794246E+02  0.7818608E-02  0.1622013E+00
          2   -1    0    0  501    0  0.00000000000E+00  0.00000000000E+00  0.90654647841E+01  0.90654651569E+01  0.26000000000E-02 0.  1.
         -2   -1    0    0    0  501 -0.00000000000E+00 -0.00000000000E+00 -0.21531747762E+02  0.21531747919E+02  0.26000000000E-02 0. -1.
        -11    1    1    2    0    0  0.44002690947E+00 -0.13635532369E+02 -0.29346513329E+01  0.13954696176E+02  0.51100000000E-03 0.  1.
         11    1    1    2    0    0 -0.44002690947E+00  0.13635532369E+02 -0.95316316447E+01  0.16642516899E+02  0.51100000000E-03 0. -1.
<mgrwt>
<rscale>  0 0.27942463E+02</rscale>
<asrwt>0</asrwt>
<pdfrwt beam="1">  1        2 0.13946869E-02 0.27942463E+02</pdfrwt>
<pdfrwt beam="2">  1       -2 0.33125766E-02 0.27942463E+02</pdfrwt>
<totfact> 0.17715760E+06</totfact>
</mgrwt>
</event>
<event>
 4    1  0.1433582E+000  0.9596743E+02  0.7818608E-02  0.1289012E+00
          2   -1    0    0  501    0  0.00000000000E+00  0.00000000000E+00  0.25845143327E+03  0.25845143328E+03  0.26000000000E-02 0. -1.
         -2   -1    0    0    0  501 -0.00000000000E+00 -0.00000000000E+00 -0.89085863275E+01  0.89085867069E+01  0.26000000000E-02 0.  1.
        -11    1    1    2    0    0  0.44769262769E+02 -0.89429586338E+01  0.83621062088E+02  0.95271955071E+02  0.51100000000E-03 0.  1.
         11    1    1    2    0    0 -0.44769262769E+02  0.89429586338E+01  0.16592178486E+03  0.17208806492E+03  0.51100000000E-03 0. -1.
<mgrwt>
<rscale>  0 0.95967431E+02</rscale>
<asrwt>0</asrwt>
<pdfrwt beam="1">  1        2 0.39761759E-01 0.95967431E+02</pdfrwt>
<pdfrwt beam="2">  1       -2 0.13705518E-02 0.95967431E+02</pdfrwt>
<totfact> 0.14810803E+05</totfact>
</mgrwt>
</event>
<event>
 4    1  0.1433582E+000  0.2692604E+02  0.7818608E-02  0.1634785E+00
         -2   -1    0    0    0  501 -0.00000000000E+00  0.00000000000E+00  0.15832059901E+02  0.15832060115E+02  0.26000000000E-02 0. -1.
          2   -1    0    0  501    0  0.00000000000E+00 -0.00000000000E+00 -0.11448475985E+02  0.11448476280E+02  0.26000000000E-02 0.  1.
        -11    1    1    2    0    0 -0.93817679179E+01 -0.95892800953E+01  0.10450327259E+01  0.13456000731E+02  0.51100000000E-03 0.  1.
         11    1    1    2    0    0  0.93817679179E+01  0.95892800953E+01  0.33385511906E+01  0.13824535664E+02  0.51100000000E-03 0. -1.
<mgrwt>
<rscale>  0 0.26926044E+02</rscale>
<asrwt>0</asrwt>
<pdfrwt beam="2">  1        2 0.17613040E-02 0.26926044E+02</pdfrwt>
<pdfrwt beam="1">  1       -2 0.24357016E-02 0.26926044E+02</pdfrwt>
<totfact> 0.19830034E+06</totfact>
</mgrwt>
</event>
<event>
 4    1  0.1433582E+000  0.3270290E+02  0.7818608E-02  0.1570000E+00
          2   -1    0    0  501    0  0.00000000000E+00  0.00000000000E+00  0.50247454170E+02  0.50247454237E+02  0.26000000000E-02 0. -1.
         -2   -1    0    0    0  501 -0.00000000000E+00 -0.00000000000E+00 -0.53210639052E+01  0.53210645404E+01  0.26000000000E-02 0.  1.
        -11    1    1    2    0    0 -0.15835478442E+02 -0.27346704673E+01  0.17329177814E+02  0.23633476342E+02  0.51100000000E-03 0.  1.
         11    1    1    2    0    0  0.15835478442E+02  0.27346704673E+01  0.27597212450E+02  0.31935042435E+02  0.51100000000E-03 0. -1.
<mgrwt>
<rscale>  0 0.32702901E+02</rscale>
<asrwt>0</asrwt>
<pdfrwt beam="1">  1        2 0.77303774E-02 0.32702901E+02</pdfrwt>
<pdfrwt beam="2">  1       -2 0.81862529E-03 0.32702901E+02</pdfrwt>
<totfact> 0.14795150E+06</totfact>
</mgrwt>
</event>
<event>
 4    1  0.1433582E+000  0.3074477E+02  0.7818608E-02  0.1589999E+00
         -2   -1    0    0    0  501 -0.00000000000E+00  0.00000000000E+00  0.61198004040E+01  0.61198009563E+01  0.26000000000E-02 0. -1.
          2   -1    0    0  501    0  0.00000000000E+00 -0.00000000000E+00 -0.38614049130E+02  0.38614049218E+02  0.26000000000E-02 0.  1.
        -11    1    1    2    0    0  0.14287002422E+00  0.12907912571E+02 -0.41019000170E+01  0.13544748163E+02  0.51100000000E-03 0. -1.
         11    1    1    2    0    0 -0.14287002422E+00 -0.12907912571E+02 -0.28392348709E+02  0.31189102011E+02  0.51100000000E-03 0.  1.
<mgrwt>
<rscale>  0 0.30744774E+02</rscale>
<asrwt>0</asrwt>
<pdfrwt beam="2">  1        2 0.59406228E-02 0.30744774E+02</pdfrwt>
<pdfrwt beam="1">  1       -2 0.94150783E-03 0.30744774E+02</pdfrwt>
<totfact> 0.16482111E+06</totfact>
</mgrwt>
</event>
<event>
 4    1  0.1433582E+000  0.2369316E+02  0.7818608E-02  0.1680514E+00
          2   -1    0    0  501    0  0.00000000000E+00  0.00000000000E+00  0.40612495756E+01  0.40612504079E+01  0.26000000000E-02 0.  1.
         -2   -1    0    0    0  501 -0.00000000000E+00 -0.00000000000E+00 -0.34556220611E+02  0.34556220709E+02  0.26000000000E-02 0. -1.
        -11    1    1    2    0    0 -0.88494582976E+01 -0.77590923881E+01 -0.13045596059E+02  0.17569974492E+02  0.51100000000E-03 0. -1.
         11    1    1    2    0    0  0.88494582976E+01  0.77590923881E+01 -0.17449374977E+02  0.21047496625E+02  0.51100000000E-03 0.  1.
<mgrwt>
<rscale>  0 0.23693160E+02</rscale>
<asrwt>0</asrwt>
<pdfrwt beam="1">  1        2 0.62480772E-03 0.23693160E+02</pdfrwt>
<pdfrwt beam="2">  1       -2 0.53163415E-02 0.23693160E+02</pdfrwt>
<totfact> 0.24426031E+06</totfact>
</mgrwt>
</event>
<event>
 4    1  0.1433582E+000  0.3389536E+02  0.7818608E-02  0.1558635E+00
          2   -1    0    0  501    0  0.00000000000E+00  0.00000000000E+00  0.15536206259E+02  0.15536206476E+02  0.26000000000E-02 0. -1.
         -2   -1    0    0    0  501 -0.00000000000E+00 -0.00000000000E+00 -0.18487389030E+02  0.18487389213E+02  0.26000000000E-02 0.  1.
        -11    1    1    2    0    0  0.16945834824E+02 -0.72591661366E-01 -0.12352942815E+01  0.16990954643E+02  0.51100000000E-03 0.  1.
         11    1    1    2    0    0 -0.16945834824E+02  0.72591661366E-01 -0.17158884902E+01  0.17032641046E+02  0.51100000000E-03 0. -1.
<mgrwt>
<rscale>  0 0.33895362E+02</rscale>
<asrwt>0</asrwt>
<pdfrwt beam="1">  1        2 0.23901856E-02 0.33895362E+02</pdfrwt>
<pdfrwt beam="2">  1       -2 0.28442137E-02 0.33895362E+02</pdfrwt>
<totfact> 0.11619227E+06</totfact>
</mgrwt>
</event>
<event>
 4    1  0.1433582E+000  0.2045619E+02  0.7818608E-02  0.1736405E+00
         -2   -1    0    0    0  501 -0.00000000000E+00  0.00000000000E+00  0.14766281405E+01  0.14766304295E+01  0.26000000000E-02 0.  1.
          2   -1    0    0  501    0  0.00000000000E+00 -0.00000000000E+00 -0.70846434584E+02  0.70846434631E+02  0.26000000000E-02 0. -1.
        -11    1    1    2    0    0  0.91533389155E+01  0.45025447416E+01 -0.37324489462E+02  0.38693333229E+02  0.51100000000E-03 0.  1.
         11    1    1    2    0    0 -0.91533389155E+01 -0.45025447416E+01 -0.32045316981E+02  0.33629731832E+02  0.51100000000E-03 0. -1.
<mgrwt>
<rscale>  0 0.20456190E+02</rscale>
<asrwt>0</asrwt>
<pdfrwt beam="2">  1        2 0.10899449E-01 0.20456190E+02</pdfrwt>
<pdfrwt beam="1">  1       -2 0.22717379E-03 0.20456190E+02</pdfrwt>
<totfact> 0.46728238E+06</totfact>
</mgrwt>
</event>
<event>
 4    1  0.1433582E+000  0.2084694E+02  0.7818608E-02  0.1728992E+00
         -2   -1    0    0    0  501 -0.00000000000E+00  0.00000000000E+00  0.28964994784E+02  0.28964994900E+02  0.26000000000E-02 0.  1.
          2   -1    0    0  501    0  0.00000000000E+00 -0.00000000000E+00 -0.37510355149E+01  0.37510364160E+01  0.26000000000E-02 0. -1.
        -11    1    1    2    0    0 -0.10187009658E+02 -0.21908726847E+01  0.13032881384E+02  0.16686254413E+02  0.51100000000E-03 0. -1.
         11    1    1    2    0    0  0.10187009658E+02  0.21908726847E+01  0.12181077885E+02  0.16029776904E+02  0.51100000000E-03 0.  1.
<mgrwt>
<rscale>  0 0.20846941E+02</rscale>
<asrwt>0</asrwt>
<pdfrwt beam="2">  1        2 0.57708247E-03 0.20846941E+02</pdfrwt>
<pdfrwt beam="1">  1       -2 0.44561531E-02 0.20846941E+02</pdfrwt>
<totfact> 0.33052532E+06</totfact>
</mgrwt>
</event>
<event>
 4    1  0.1433582E+000  0.2373634E+02  0.7818608E-02  0.1679845E+00
          2   -1    0    0  501    0  0.00000000000E+00  0.00000000000E+00  0.50225464765E+02  0.50225464832E+02  0.26000000000E-02 0.  1.
         -2   -1    0    0    0  501 -0.00000000000E+00 -0.00000000000E+00 -0.28044219304E+01  0.28044231356E+01  0.26000000000E-02 0. -1.
        -11    1    1    2    0    0  0.10364534645E+02 -0.20533573121E+01  0.11635182022E+02  0.15716784519E+02  0.51100000000E-03 0. -1.
         11    1    1    2    0    0 -0.10364534645E+02  0.20533573121E+01  0.35785860813E+02  0.37313103449E+02  0.51100000000E-03 0.  1.
<mgrwt>
<rscale>  0 0.23736337E+02</rscale>
<asrwt>0</asrwt>
<pdfrwt beam="1">  1        2 0.77269947E-02 0.23736337E+02</pdfrwt>
<pdfrwt beam="2">  1       -2 0.43144963E-03 0.23736337E+02</pdfrwt>
<totfact> 0.31468604E+06</totfact>
</mgrwt>
</event>
<event>
 4    1  0.1433582E+000  0.2399620E+02  0.7818608E-02  0.1675853E+00
          2   -1    0    0  501    0  0.00000000000E+00  0.00000000000E+00  0.17205088256E+02  0.17205088452E+02  0.26000000000E-02 0.  1.
         -2   -1    0    0    0  501 -0.00000000000E+00 -0.00000000000E+00 -0.83669652258E+01  0.83669656298E+01  0.26000000000E-02 0. -1.
        -11    1    1    2    0    0  0.97025997235E+01 -0.54343911309E+01  0.92182900746E+01  0.14444719468E+02  0.51100000000E-03 0. -1.
         11    1    1    2    0    0 -0.97025997235E+01  0.54343911309E+01 -0.38016704480E+00  0.11127334613E+02  0.51100000000E-03 0.  1.
<mgrwt>
<rscale>  0 0.23996198E+02</rscale>
<asrwt>0</asrwt>
<pdfrwt beam="1">  1        2 0.26469366E-02 0.23996198E+02</pdfrwt>
<pdfrwt beam="2">  1       -2 0.12872255E-02 0.23996198E+02</pdfrwt>
<totfact> 0.27060122E+06</totfact>
</mgrwt>
</event>
<event>
 4    1  0.1433582E+000  0.3643234E+02  0.7818608E-02  0.1536237E+00
          2   -1    0    0  501    0  0.00000000000E+00  0.00000000000E+00  0.12680955370E+03  0.12680955373E+03  0.26000000000E-02 0. -1.
         -2   -1    0    0    0  501 -0.00000000000E+00 -0.00000000000E+00 -0.26167489114E+01  0.26167502030E+01  0.26000000000E-02 0.  1.
        -11    1    1    2    0    0 -0.41566554127E+01  0.15176971151E+02  0.29496305655E+02  0.33431277048E+02  0.51100000000E-03 0.  1.
         11    1    1    2    0    0  0.41566554127E+01 -0.15176971151E+02  0.94696499136E+02  0.95995026884E+02  0.51100000000E-03 0. -1.
<mgrwt>
<rscale>  0 0.36432340E+02</rscale>
<asrwt>0</asrwt>
<pdfrwt beam="1">  1        2 0.19509154E-01 0.36432340E+02</pdfrwt>
<pdfrwt beam="2">  1       -2 0.40257702E-03 0.36432340E+02</pdfrwt>
<totfact> 0.13966228E+06</totfact>
</mgrwt>
</event>
<event>
 4    1  0.1433582E+000  0.3128693E+02  0.7818608E-02  0.1584284E+00
          2   -1    0    0  501    0  0.00000000000E+00  0.00000000000E+00  0.27287885169E+02  0.27287885293E+02  0.26000000000E-02 0.  1.
         -2   -1    0    0    0  501 -0.00000000000E+00 -0.00000000000E+00 -0.89680072439E+01  0.89680076208E+01  0.26000000000E-02 0. -1.
        -11    1    1    2    0    0  0.12476088445E+01 -0.12509424028E+02 -0.16286457138E+01  0.12676541502E+02  0.51100000000E-03 0. -1.
         11    1    1    2    0    0 -0.12476088445E+01  0.12509424028E+02  0.19948523639E+02  0.23579351412E+02  0.51100000000E-03 0.  1.
<mgrwt>
<rscale>  0 0.31286928E+02</rscale>
<asrwt>0</asrwt>
<pdfrwt beam="1">  1        2 0.41981361E-02 0.31286928E+02</pdfrwt>
<pdfrwt beam="2">  1       -2 0.13796935E-02 0.31286928E+02</pdfrwt>
<totfact> 0.15096075E+06</totfact>
</mgrwt>
</event>
<event>
 4    1  0.1433582E+000  0.2607636E+02  0.7818608E-02  0.1646006E+00
          2   -1    0    0  501    0  0.00000000000E+00  0.00000000000E+00  0.45901110683E+02  0.45901110757E+02  0.26000000000E-02 0. -1.
         -2   -1    0    0    0  501 -0.00000000000E+00 -0.00000000000E+00 -0.37034858474E+01  0.37034867601E+01  0.26000000000E-02 0.  1.
        -11    1    1    2    0    0  0.58364124329E+01  0.11585226629E+02  0.23588515403E+02  0.26920238582E+02  0.51100000000E-03 0.  1.
         11    1    1    2    0    0 -0.58364124329E+01 -0.11585226629E+02  0.18609109433E+02  0.22684358935E+02  0.51100000000E-03 0. -1.
<mgrwt>
<rscale>  0 0.26076360E+02</rscale>
<asrwt>0</asrwt>
<pdfrwt beam="1">  1        2 0.70617098E-02 0.26076360E+02</pdfrwt>
<pdfrwt beam="2">  1       -2 0.56976710E-03 0.26076360E+02</pdfrwt>
<totfact> 0.24965748E+06</totfact>
</mgrwt>
</event>
<event>
 4    1  0.1433582E+000  0.2278622E+02  0.7818608E-02  0.1694999E+00
         -2   -1    0    0    0  501 -0.00000000000E+00  0.00000000000E+00  0.76976470415E+02  0.76976470459E+02  0.26000000000E-02 0.  1.
          2   -1    0    0  501    0  0.00000000000E+00 -0.00000000000E+00 -0.16862662854E+01  0.16862682899E+01  0.26000000000E-02 0. -1.
        -11    1    1    2    0    0  0.99374110594E+01  0.37917888995E+01  0.23548802956E+02  0.25839425740E+02  0.51100000000E-03 0. -1.
         11    1    1    2    0    0 -0.99374110594E+01 -0.37917888995E+01  0.51741401173E+02  0.52823313009E+02  0.51100000000E-03 0.  1.
<mgrwt>
<rscale>  0 0.22786216E+02</rscale>
<asrwt>0</asrwt>
<pdfrwt beam="2">  1        2 0.25942579E-03 0.22786216E+02</pdfrwt>
<pdfrwt beam="1">  1       -2 0.11842532E-01 0.22786216E+02</pdfrwt>
<totfact> 0.23620285E+06</totfact>
</mgrwt>
</event>
<event>
 4    1  0.1433582E+000  0.3291260E+02  0.7818608E-02  0.1567959E+00
         -2   -1    0    0    0  501 -0.00000000000E+00  0.00000000000E+00  0.40317347142E+01  0.40317355525E+01  0.26000000000E-02 0.  1.
          2   -1    0    0  501    0  0.00000000000E+00 -0.00000000000E+00 -0.67169531183E+02  0.67169531233E+02  0.26000000000E-02 0. -1.
        -11    1    1    2    0    0 -0.62441639040E+01 -0.11257905992E+02 -0.93928046999E+01  0.15935959669E+02  0.51100000000E-03 0.  1.
         11    1    1    2    0    0  0.62441639040E+01  0.11257905992E+02 -0.53744991769E+02  0.55265307117E+02  0.51100000000E-03 0. -1.
<mgrwt>
<rscale>  0 0.32912597E+02</rscale>
<asrwt>0</asrwt>
<pdfrwt beam="2">  1        2 0.10333773E-01 0.32912597E+02</pdfrwt>
<pdfrwt beam="1">  1       -2 0.62026700E-03 0.32912597E+02</pdfrwt>
<totfact> 0.15359692E+06</totfact>
</mgrwt>
</event>
<event>
 4    1  0.1433582E+000  0.2381635E+02  0.7818608E-02  0.1678609E+00
         -2   -1    0    0    0  501 -0.00000000000E+00  0.00000000000E+00  0.37415773453E+01  0.37415782487E+01  0.26000000000E-02 0.  1.
          2   -1    0    0  501    0  0.00000000000E+00 -0.00000000000E+00 -0.37899672381E+02  0.37899672470E+02  0.26000000000E-02 0. -1.
        -11    1    1    2    0    0 -0.58684862644E+01  0.93240402101E+01 -0.24981439808E+02  0.27302915449E+02  0.51100000000E-03 0. -1.
         11    1    1    2    0    0  0.58684862644E+01 -0.93240402101E+01 -0.91766552268E+01  0.14338335269E+02  0.51100000000E-03 0.  1.
<mgrwt>
<rscale>  0 0.23816345E+02</rscale>
<asrwt>0</asrwt>
<pdfrwt beam="2">  1        2 0.58307186E-02 0.23816345E+02</pdfrwt>
<pdfrwt beam="1">  1       -2 0.57562739E-03 0.23816345E+02</pdfrwt>
<totfact> 0.29987210E+06</totfact>
</mgrwt>
</event>
<event>
 4    1  0.1433582E+000  0.2375520E+02  0.7818608E-02  0.1679553E+00
          2   -1    0    0  501    0  0.00000000000E+00  0.00000000000E+00  0.15988050882E+02  0.15988051093E+02  0.26000000000E-02 0.  1.
         -2   -1    0    0    0  501 -0.00000000000E+00 -0.00000000000E+00 -0.88239230843E+01  0.88239234673E+01  0.26000000000E-02 0. -1.
        -11    1    1    2    0    0  0.45754382568E+01 -0.10175013338E+02 -0.67500948674E+00  0.11176813935E+02  0.51100000000E-03 0. -1.
         11    1    1    2    0    0 -0.45754382568E+01  0.10175013338E+02  0.78391372841E+01  0.13635160626E+02  0.51100000000E-03 0.  1.
<mgrwt>
<rscale>  0 0.23755196E+02</rscale>
<asrwt>0</asrwt>
<pdfrwt beam="1">  1        2 0.24597001E-02 0.23755196E+02</pdfrwt>
<pdfrwt beam="2">  1       -2 0.13575267E-02 0.23755196E+02</pdfrwt>
<totfact> 0.27524077E+06</totfact>
</mgrwt>
</event>
<event>
 4    1  0.1433582E+000  0.2185739E+02  0.7818608E-02  0.1710730E+00
         -2   -1    0    0    0  501 -0.00000000000E+00  0.00000000000E+00  0.27731302649E+01  0.27731314837E+01  0.26000000000E-02 0. -1.
          2   -1    0    0  501    0  0.00000000000E+00 -0.00000000000E+00 -0.43069142160E+02  0.43069142238E+02  0.26000000000E-02 0.  1.
        -11    1    1    2    0    0  0.88892940508E+01  0.49993143976E+01 -0.11911143227E+02  0.15680817147E+02  0.51100000000E-03 0. -1.
         11    1    1    2    0    0 -0.88892940508E+01 -0.49993143976E+01 -0.28384868667E+02  0.30161456575E+02  0.51100000000E-03 0.  1.
<mgrwt>
<rscale>  0 0.21857390E+02</rscale>
<asrwt>0</asrwt>
<pdfrwt beam="2">  1        2 0.66260215E-02 0.21857390E+02</pdfrwt>
<pdfrwt beam="1">  1       -2 0.42663556E-03 0.21857390E+02</pdfrwt>
<totfact> 0.37127215E+06</totfact>
</mgrwt>
</event>
<event>
 4    1  0.1433582E+000  0.2270420E+02  0.7818608E-02  0.1696350E+00
          2   -1    0    0  501    0  0.00000000000E+00  0.00000000000E+00  0.50078956280E+01  0.50078963029E+01  0.26000000000E-02 0. -1.
         -2   -1    0    0    0  501 -0.00000000000E+00 -0.00000000000E+00 -0.25733400496E+02  0.25733400627E+02  0.26000000000E-02 0.  1.
        -11    1    1    2    0    0 -0.99126535602E+01  0.54128991944E+01 -0.11912477019E+02  0.16415458790E+02  0.51100000000E-03 0. -1.
         11    1    1    2    0    0  0.99126535602E+01 -0.54128991944E+01 -0.88130278489E+01  0.14325838140E+02  0.51100000000E-03 0.  1.
<mgrwt>
<rscale>  0 0.22704202E+02</rscale>
<asrwt>0</asrwt>
<pdfrwt beam="1">  1        2 0.77044556E-03 0.22704202E+02</pdfrwt>
<pdfrwt beam="2">  1       -2 0.39589847E-02 0.22704202E+02</pdfrwt>
<totfact> 0.27703574E+06</totfact>
</mgrwt>
</event>
<event>
 4    1  0.1433582E+000  0.5990551E+02  0.7818608E-02  0.1398229E+00
          2   -1    0    0  501    0  0.00000000000E+00  0.00000000000E+00  0.69593604823E+02  0.69593604871E+02  0.26000000000E-02 0. -1.
         -2   -1    0    0    0  501 -0.00000000000E+00 -0.00000000000E+00 -0.12891522553E+02  0.12891522815E+02  0.26000000000E-02 0.  1.
        -11    1    1    2    0    0  0.29822176806E+01 -0.29777861538E+02  0.30066884460E+02  0.42422072103E+02  0.51100000000E-03 0. -1.
         11    1    1    2    0    0 -0.29822176806E+01  0.29777861538E+02  0.26635197809E+02  0.40063055584E+02  0.51100000000E-03 0.  1.
<mgrwt>
<rscale>  0 0.59905510E+02</rscale>
<asrwt>0</asrwt>
<pdfrwt beam="1">  1        2 0.10706708E-01 0.59905510E+02</pdfrwt>
<pdfrwt beam="2">  1       -2 0.19833113E-02 0.59905510E+02</pdfrwt>
<totfact> 0.34398745E+05</totfact>
</mgrwt>
</event>
<event>
 4    1  0.1433582E+000  0.2641642E+02  0.7818608E-02  0.1641453E+00
         -2   -1    0    0    0  501 -0.00000000000E+00  0.00000000000E+00  0.36247591595E+02  0.36247591689E+02  0.26000000000E-02 0.  1.
          2   -1    0    0  501    0  0.00000000000E+00 -0.00000000000E+00 -0.48129200232E+01  0.48129207255E+01  0.26000000000E-02 0. -1.
        -11    1    1    2    0    0  0.67067925192E+01  0.89010042747E+01  0.46991747752E+01  0.12095089368E+02  0.51100000000E-03 0. -1.
         11    1    1    2    0    0 -0.67067925192E+01 -0.89010042747E+01  0.26735496797E+02  0.28965423046E+02  0.51100000000E-03 0.  1.
<mgrwt>
<rscale>  0 0.26416417E+02</rscale>
<asrwt>0</asrwt>
<pdfrwt beam="2">  1        2 0.74044932E-03 0.26416417E+02</pdfrwt>
<pdfrwt beam="1">  1       -2 0.55765524E-02 0.26416417E+02</pdfrwt>
<totfact> 0.19011999E+06</totfact>
</mgrwt>
</event>
<event>
 4    1  0.1433582E+000  0.6030661E+02  0.7818608E-02  0.1396550E+00
          2   -1    0    0  501    0  0.00000000000E+00  0.00000000000E+00  0.15335517659E+02  0.15335517879E+02  0.26000000000E-02 0. -1.
         -2   -1    0    0    0  501 -0.00000000000E+00 -0.00000000000E+00 -0.59288630453E+02  0.59288630510E+02  0.26000000000E-02 0.  1.
        -11    1    1    2    0    0 -0.14729369074E+02  0.22630198054E+02 -0.53683950534E+01  0.27529980802E+02  0.51100000000E-03 0. -1.
         11    1    1    2    0    0  0.14729369074E+02 -0.22630198054E+02 -0.38584717741E+02  0.47094167587E+02  0.51100000000E-03 0.  1.
<mgrwt>
<rscale>  0 0.60306612E+02</rscale>
<asrwt>0</asrwt>
<pdfrwt beam="1">  1        2 0.23593105E-02 0.60306612E+02</pdfrwt>
<pdfrwt beam="2">  1       -2 0.91213277E-02 0.60306612E+02</pdfrwt>
<totfact> 0.25110517E+05</totfact>
</mgrwt>
</event>
<event>
 4    1  0.1433582E+000  0.2817886E+02  0.7818608E-02  0.1619138E+00
          2   -1    0    0  501    0  0.00000000000E+00  0.00000000000E+00  0.63712563734E+01  0.63712569039E+01  0.26000000000E-02 0.  1.
         -2   -1    0    0    0  501 -0.00000000000E+00 -0.00000000000E+00 -0.31157441754E+02  0.31157441863E+02  0.26000000000E-02 0. -1.
        -11    1    1    2    0    0  0.11407327778E+02 -0.79087187423E+01 -0.91754434572E+01  0.16639222400E+02  0.51100000000E-03 0.  1.
         11    1    1    2    0    0 -0.11407327778E+02  0.79087187423E+01 -0.15610741924E+02  0.20889476366E+02  0.51100000000E-03 0. -1.
<mgrwt>
<rscale>  0 0.28178862E+02</rscale>
<asrwt>0</asrwt>
<pdfrwt beam="1">  1        2 0.98019335E-03 0.28178862E+02</pdfrwt>
<pdfrwt beam="2">  1       -2 0.47934526E-02 0.28178862E+02</pdfrwt>
<totfact> 0.16711478E+06</totfact>
</mgrwt>
</event>
<event>
 4    1  0.1433582E+000  0.3094969E+02  0.7818608E-02  0.1587822E+00
          2   -1    0    0  501    0  0.00000000000E+00  0.00000000000E+00  0.69680031386E+01  0.69680036236E+01  0.26000000000E-02 0.  1.
         -2   -1    0    0    0  501 -0.00000000000E+00 -0.00000000000E+00 -0.34367214927E+02  0.34367215025E+02  0.26000000000E-02 0. -1.
        -11    1    1    2    0    0 -0.86510909724E+01 -0.10834760656E+02 -0.45203566585E+01  0.14583107970E+02  0.51100000000E-03 0.  1.
         11    1    1    2    0    0  0.86510909724E+01  0.10834760656E+02 -0.22878855129E+02  0.26752110679E+02  0.51100000000E-03 0. -1.
<mgrwt>
<rscale>  0 0.30949693E+02</rscale>
<asrwt>0</asrwt>
<pdfrwt beam="1">  1        2 0.10720005E-02 0.30949693E+02</pdfrwt>
<pdfrwt beam="2">  1       -2 0.52872638E-02 0.30949693E+02</pdfrwt>
<totfact> 0.13326399E+06</totfact>
</mgrwt>
</event>
<event>
 4    1  0.1433582E+000  0.2522817E+02  0.7818608E-02  0.1657746E+00
          2   -1    0    0  501    0  0.00000000000E+00  0.00000000000E+00  0.90897364273E+01  0.90897367991E+01  0.26000000000E-02 0.  1.
         -2   -1    0    0    0  501 -0.00000000000E+00 -0.00000000000E+00 -0.17504917227E+02  0.17504917421E+02  0.26000000000E-02 0. -1.
        -11    1    1    2    0    0  0.15805395811E+01 -0.12049547620E+02 -0.64435805972E+00  0.12169835693E+02  0.51100000000E-03 0.  1.
         11    1    1    2    0    0 -0.15805395811E+01  0.12049547620E+02 -0.77708227405E+01  0.14424818527E+02  0.51100000000E-03 0. -1.
<mgrwt>
<rscale>  0 0.25228166E+02</rscale>
<asrwt>0</asrwt>
<pdfrwt beam="1">  1        2 0.13984210E-02 0.25228166E+02</pdfrwt>
<pdfrwt beam="2">  1       -2 0.26930642E-02 0.25228166E+02</pdfrwt>
<totfact> 0.22717169E+06</totfact>
</mgrwt>
</event>
<event>
 4    1  0.1433582E+000  0.2391891E+02  0.7818608E-02  0.1677034E+00
          2   -1    0    0  501    0  0.00000000000E+00  0.00000000000E+00  0.10772042429E+02  0.10772042743E+02  0.26000000000E-02 0. -1.
         -2   -1    0    0    0  501 -0.00000000000E+00 -0.00000000000E+00 -0.13277759141E+02  0.13277759396E+02  0.26000000000E-02 0.  1.
        -11    1    1    2    0    0 -0.49820494370E+01  0.91588491784E+01  0.46378066269E+01  0.11411160565E+02  0.51100000000E-03 0. -1.
         11    1    1    2    0    0  0.49820494370E+01 -0.91588491784E+01 -0.71435233392E+01  0.12638641573E+02  0.51100000000E-03 0.  1.
<mgrwt>
<rscale>  0 0.23918912E+02</rscale>
<asrwt>0</asrwt>
<pdfrwt beam="1">  1        2 0.16572373E-02 0.23918912E+02</pdfrwt>
<pdfrwt beam="2">  1       -2 0.20427322E-02 0.23918912E+02</pdfrwt>
<totfact> 0.26180937E+06</totfact>
</mgrwt>
</event>
<event>
 4    1  0.1433582E+000  0.2100542E+02  0.7818608E-02  0.1726043E+00
          2   -1    0    0  501    0  0.00000000000E+00  0.00000000000E+00  0.96010558104E+02  0.96010558139E+02  0.26000000000E-02 0. -1.
         -2   -1    0    0    0  501 -0.00000000000E+00 -0.00000000000E+00 -0.11489021717E+01  0.11489051136E+01  0.26000000000E-02 0.  1.
        -11    1    1    2    0    0  0.68152509777E+01 -0.78015029372E+01  0.39424941571E+02  0.40763183292E+02  0.51100000000E-03 0.  1.
         11    1    1    2    0    0 -0.68152509777E+01  0.78015029372E+01  0.55436714362E+02  0.56396279961E+02  0.51100000000E-03 0. -1.
<mgrwt>
<rscale>  0 0.21005417E+02</rscale>
<asrwt>0</asrwt>
<pdfrwt beam="1">  1        2 0.14770859E-01 0.21005417E+02</pdfrwt>
<pdfrwt beam="2">  1       -2 0.17675437E-03 0.21005417E+02</pdfrwt>
<totfact> 0.46889818E+06</totfact>
</mgrwt>
</event>
<event>
 4    1  0.1433582E+000  0.2379822E+02  0.7818608E-02  0.1678889E+00
         -2   -1    0    0    0  501 -0.00000000000E+00  0.00000000000E+00  0.18746296850E+01  0.18746314880E+01  0.26000000000E-02 0. -1.
          2   -1    0    0  501    0  0.00000000000E+00 -0.00000000000E+00 -0.75528920372E+02  0.75528920417E+02  0.26000000000E-02 0.  1.
        -11    1    1    2    0    0 -0.17958739114E+01 -0.10859240386E+02 -0.51532070686E+02  0.52694426407E+02  0.51100000000E-03 0.  1.
         11    1    1    2    0    0  0.17958739114E+01  0.10859240386E+02 -0.22122220001E+02  0.24709125498E+02  0.51100000000E-03 0. -1.
<mgrwt>
<rscale>  0 0.23798221E+02</rscale>
<asrwt>0</asrwt>
<pdfrwt beam="2">  1        2 0.11619832E-01 0.23798221E+02</pdfrwt>
<pdfrwt beam="1">  1       -2 0.28840477E-03 0.23798221E+02</pdfrwt>
<totfact> 0.33631388E+06</totfact>
</mgrwt>
</event>
<event>
 4    1  0.1433582E+000  0.2608039E+02  0.7818608E-02  0.1645952E+00
         -2   -1    0    0    0  501 -0.00000000000E+00  0.00000000000E+00  0.59472086867E+01  0.59472092551E+01  0.26000000000E-02 0.  1.
          2   -1    0    0  501    0  0.00000000000E+00 -0.00000000000E+00 -0.28592675789E+02  0.28592675907E+02  0.26000000000E-02 0. -1.
        -11    1    1    2    0    0 -0.28405631837E+01  0.12706266575E+02 -0.12285620675E+02  0.17901242557E+02  0.51100000000E-03 0. -1.
         11    1    1    2    0    0  0.28405631837E+01 -0.12706266575E+02 -0.10359846427E+02  0.16638642605E+02  0.51100000000E-03 0.  1.
<mgrwt>
<rscale>  0 0.26080385E+02</rscale>
<asrwt>0</asrwt>
<pdfrwt beam="2">  1        2 0.43988732E-02 0.26080385E+02</pdfrwt>
<pdfrwt beam="1">  1       -2 0.91495525E-03 0.26080385E+02</pdfrwt>
<totfact> 0.23443248E+06</totfact>
</mgrwt>
</event>
<event>
 4    1  0.1433582E+000  0.4065434E+02  0.7818608E-02  0.1503451E+00
         -2   -1    0    0    0  501 -0.00000000000E+00  0.00000000000E+00  0.42245895170E+02  0.42245895251E+02  0.26000000000E-02 0.  1.
          2   -1    0    0  501    0  0.00000000000E+00 -0.00000000000E+00 -0.97806851125E+01  0.97806854581E+01  0.26000000000E-02 0. -1.
        -11    1    1    2    0    0 -0.15197852105E+02  0.11515843721E+02  0.72194119071E+01  0.20388949796E+02  0.51100000000E-03 0. -1.
         11    1    1    2    0    0  0.15197852105E+02 -0.11515843721E+02  0.25245798151E+02  0.31637630913E+02  0.51100000000E-03 0.  1.
<mgrwt>
<rscale>  0 0.40654338E+02</rscale>
<asrwt>0</asrwt>
<pdfrwt beam="2">  1        2 0.15047208E-02 0.40654338E+02</pdfrwt>
<pdfrwt beam="1">  1       -2 0.64993687E-02 0.40654338E+02</pdfrwt>
<totfact> 0.68578324E+05</totfact>
</mgrwt>
</event>
<event>
 4    1  0.1433582E+000  0.4564204E+02  0.7818608E-02  0.1470373E+00
          2   -1    0    0  501    0  0.00000000000E+00  0.00000000000E+00  0.68421665645E+02  0.68421665695E+02  0.26000000000E-02 0. -1.
         -2   -1    0    0    0  501 -0.00000000000E+00 -0.00000000000E+00 -0.76116076630E+01  0.76116081071E+01  0.26000000000E-02 0.  1.
        -11    1    1    2    0    0  0.12878256352E+02 -0.15404942840E+02  0.48473063102E+02  0.52467128731E+02  0.51100000000E-03 0. -1.
         11    1    1    2    0    0 -0.12878256352E+02  0.15404942840E+02  0.12336994881E+02  0.23566145071E+02  0.51100000000E-03 0.  1.
<mgrwt>
<rscale>  0 0.45642037E+02</rscale>
<asrwt>0</asrwt>
<pdfrwt beam="1">  1        2 0.10526410E-01 0.45642037E+02</pdfrwt>
<pdfrwt beam="2">  1       -2 0.11710166E-02 0.45642037E+02</pdfrwt>
<totfact> 0.68913665E+05</totfact>
</mgrwt>
</event>
<event>
 4    1  0.1433582E+000  0.2140570E+02  0.7818608E-02  0.1718737E+00
          2   -1    0    0  501    0  0.00000000000E+00  0.00000000000E+00  0.72166524554E+02  0.72166524601E+02  0.26000000000E-02 0. -1.
         -2   -1    0    0    0  501 -0.00000000000E+00 -0.00000000000E+00 -0.15873144428E+01  0.15873165722E+01  0.26000000000E-02 0.  1.
        -11    1    1    2    0    0 -0.81718055425E+01  0.68375642869E+01  0.31809191342E+02  0.33546316419E+02  0.51100000000E-03 0. -1.
         11    1    1    2    0    0  0.81718055425E+01 -0.68375642869E+01  0.38770018769E+02  0.40207524754E+02  0.51100000000E-03 0.  1.
<mgrwt>
<rscale>  0 0.21405705E+02</rscale>
<asrwt>0</asrwt>
<pdfrwt beam="1">  1        2 0.11102540E-01 0.21405705E+02</pdfrwt>
<pdfrwt beam="2">  1       -2 0.24420245E-03 0.21405705E+02</pdfrwt>
<totfact> 0.42368240E+06</totfact>
</mgrwt>
</event>
<event>
 4    1  0.1433582E+000  0.3262445E+02  0.7818608E-02  0.1570768E+00
          2   -1    0    0  501    0  0.00000000000E+00  0.00000000000E+00  0.50643329720E+02  0.50643329787E+02  0.26000000000E-02 0. -1.
         -2   -1    0    0    0  501 -0.00000000000E+00 -0.00000000000E+00 -0.52541696727E+01  0.52541703160E+01  0.26000000000E-02 0.  1.
        -11    1    1    2    0    0 -0.56322127073E+01 -0.13966017864E+02  0.33437947875E+02  0.36672439697E+02  0.51100000000E-03 0.  1.
         11    1    1    2    0    0  0.56322127073E+01  0.13966017864E+02  0.11951212172E+02  0.19225060406E+02  0.51100000000E-03 0. -1.
<mgrwt>
<rscale>  0 0.32624449E+02</rscale>
<asrwt>0</asrwt>
<pdfrwt beam="1">  1        2 0.77912821E-02 0.32624449E+02</pdfrwt>
<pdfrwt beam="2">  1       -2 0.80833379E-03 0.32624449E+02</pdfrwt>
<totfact> 0.14900769E+06</totfact>
</mgrwt>
</event>
<event>
 4    1  0.1433582E+000  0.2657156E+02  0.7818608E-02  0.1639404E+00
          2   -1    0    0  501    0  0.00000000000E+00  0.00000000000E+00  0.31409665189E+02  0.31409665297E+02  0.26000000000E-02 0.  1.
         -2   -1    0    0    0  501 -0.00000000000E+00 -0.00000000000E+00 -0.56196683283E+01  0.56196689298E+01  0.26000000000E-02 0. -1.
        -11    1    1    2    0    0  0.11571272519E+01  0.10045680367E+02  0.24903765005E+02  0.26878469994E+02  0.51100000000E-03 0.  1.
         11    1    1    2    0    0 -0.11571272519E+01 -0.10045680367E+02  0.88623185583E+00  0.10150864233E+02  0.51100000000E-03 0. -1.
<mgrwt>
<rscale>  0 0.26571557E+02</rscale>
<asrwt>0</asrwt>
<pdfrwt beam="1">  1        2 0.48322562E-02 0.26571557E+02</pdfrwt>
<pdfrwt beam="2">  1       -2 0.86456441E-03 0.26571557E+02</pdfrwt>
<totfact> 0.22688624E+06</totfact>
</mgrwt>
</event>
<event>
 4    1  0.1433582E+000  0.4508509E+02  0.7818608E-02  0.1473811E+00
         -2   -1    0    0    0  501 -0.00000000000E+00  0.00000000000E+00  0.83256343090E+01  0.83256347149E+01  0.26000000000E-02 0.  1.
          2   -1    0    0  501    0  0.00000000000E+00 -0.00000000000E+00 -0.61036345959E+02  0.61036346015E+02  0.26000000000E-02 0. -1.
        -11    1    1    2    0    0  0.93305750457E+01  0.87392093381E+01  0.22093609695E+01  0.12973615020E+02  0.51100000000E-03 0.  1.
         11    1    1    2    0    0 -0.93305750457E+01 -0.87392093381E+01 -0.54920072620E+02  0.56388365709E+02  0.51100000000E-03 0. -1.
<mgrwt>
<rscale>  0 0.45085089E+02</rscale>
<asrwt>0</asrwt>
<pdfrwt beam="2">  1        2 0.93902068E-02 0.45085089E+02</pdfrwt>
<pdfrwt beam="1">  1       -2 0.12808669E-02 0.45085089E+02</pdfrwt>
<totfact> 0.69417296E+05</totfact>
</mgrwt>
</event>
<event>
 4    1  0.1433582E+000  0.2141649E+02  0.7818608E-02  0.1718543E+00
         -2   -1    0    0    0  501 -0.00000000000E+00  0.00000000000E+00  0.33128467056E+02  0.33128467158E+02  0.26000000000E-02 0. -1.
          2   -1    0    0  501    0  0.00000000000E+00 -0.00000000000E+00 -0.34612691033E+01  0.34612700798E+01  0.26000000000E-02 0.  1.
        -11    1    1    2    0    0  0.95340638354E+01 -0.42984868011E+01  0.18763556601E+02  0.21481303931E+02  0.51100000000E-03 0. -1.
         11    1    1    2    0    0 -0.95340638354E+01  0.42984868011E+01  0.10903641352E+02  0.15108433307E+02  0.51100000000E-03 0.  1.
<mgrwt>
<rscale>  0 0.21416495E+02</rscale>
<asrwt>0</asrwt>
<pdfrwt beam="2">  1        2 0.53250300E-03 0.21416495E+02</pdfrwt>
<pdfrwt beam="1">  1       -2 0.50966876E-02 0.21416495E+02</pdfrwt>
<totfact> 0.30711596E+06</totfact>
</mgrwt>
</event>
<event>
 4    1  0.1433582E+000  0.2643956E+02  0.7818608E-02  0.1641146E+00
         -2   -1    0    0    0  501 -0.00000000000E+00  0.00000000000E+00  0.24217859603E+02  0.24217859743E+02  0.26000000000E-02 0. -1.
          2   -1    0    0  501    0  0.00000000000E+00 -0.00000000000E+00 -0.72162699586E+01  0.72162704269E+01  0.26000000000E-02 0.  1.
        -11    1    1    2    0    0  0.61699374281E+01  0.11098383193E+02  0.41291819210E+01  0.13352617008E+02  0.51100000000E-03 0. -1.
         11    1    1    2    0    0 -0.61699374281E+01 -0.11098383193E+02  0.12872407724E+02  0.18081513162E+02  0.51100000000E-03 0.  1.
<mgrwt>
<rscale>  0 0.26439563E+02</rscale>
<asrwt>0</asrwt>
<pdfrwt beam="2">  1        2 0.11101954E-02 0.26439563E+02</pdfrwt>
<pdfrwt beam="1">  1       -2 0.37258246E-02 0.26439563E+02</pdfrwt>
<totfact> 0.19831428E+06</totfact>
</mgrwt>
</event>
<event>
 4    1  0.1433582E+000  0.3140622E+02  0.7818608E-02  0.1583045E+00
          2   -1    0    0  501    0  0.00000000000E+00  0.00000000000E+00  0.48097894069E+02  0.48097894139E+02  0.26000000000E-02 0. -1.
         -2   -1    0    0    0  501 -0.00000000000E+00 -0.00000000000E+00 -0.51267865543E+01  0.51267872136E+01  0.26000000000E-02 0.  1.
        -11    1    1    2    0    0  0.10625806631E+02 -0.45602408531E+01  0.34796973955E+01  0.12075258068E+02  0.51100000000E-03 0.  1.
         11    1    1    2    0    0 -0.10625806631E+02  0.45602408531E+01  0.39491410119E+02  0.41149423285E+02  0.51100000000E-03 0. -1.
<mgrwt>
<rscale>  0 0.31406220E+02</rscale>
<asrwt>0</asrwt>
<pdfrwt beam="1">  1        2 0.73996761E-02 0.31406220E+02</pdfrwt>
<pdfrwt beam="2">  1       -2 0.78873645E-03 0.31406220E+02</pdfrwt>
<totfact> 0.16192032E+06</totfact>
</mgrwt>
</event>
<event>
 4    1  0.1433582E+000  0.3565116E+02  0.7818608E-02  0.1542893E+00
          2   -1    0    0  501    0  0.00000000000E+00  0.00000000000E+00  0.30007486878E+02  0.30007486991E+02  0.26000000000E-02 0.  1.
         -2   -1    0    0    0  501 -0.00000000000E+00 -0.00000000000E+00 -0.10589066931E+02  0.10589067250E+02  0.26000000000E-02 0. -1.
        -11    1    1    2    0    0  0.26126644023E+01  0.16495390425E+02  0.16804734850E+02  0.23692256840E+02  0.51100000000E-03 0. -1.
         11    1    1    2    0    0 -0.26126644023E+01 -0.16495390425E+02  0.26136850974E+01  0.16904297401E+02  0.51100000000E-03 0.  1.
<mgrwt>
<rscale>  0 0.35651160E+02</rscale>
<asrwt>0</asrwt>
<pdfrwt beam="1">  1        2 0.46165364E-02 0.35651160E+02</pdfrwt>
<pdfrwt beam="2">  1       -2 0.16290873E-02 0.35651160E+02</pdfrwt>
<totfact> 0.11099511E+06</totfact>
</mgrwt>
</event>
<event>
 4    1  0.1433582E+000  0.3625820E+02  0.7818608E-02  0.1537703E+00
         -2   -1    0    0    0  501 -0.00000000000E+00  0.00000000000E+00  0.14822564081E+02  0.14822564309E+02  0.26000000000E-02 0.  1.
          2   -1    0    0  501    0  0.00000000000E+00 -0.00000000000E+00 -0.22173233441E+02  0.22173233593E+02  0.26000000000E-02 0. -1.
        -11    1    1    2    0    0  0.14552867198E+02 -0.84771873033E+01 -0.10521185152E+02  0.19858096221E+02  0.51100000000E-03 0. -1.
         11    1    1    2    0    0 -0.14552867198E+02  0.84771873033E+01  0.31705157920E+01  0.17137701681E+02  0.51100000000E-03 0.  1.
<mgrwt>
<rscale>  0 0.36258195E+02</rscale>
<asrwt>0</asrwt>
<pdfrwt beam="2">  1        2 0.34112667E-02 0.36258195E+02</pdfrwt>
<pdfrwt beam="1">  1       -2 0.22803945E-02 0.36258195E+02</pdfrwt>
<totfact> 0.10237898E+06</totfact>
</mgrwt>
</event>
<event>
 4    1  0.1433582E+000  0.2534123E+02  0.7818608E-02  0.1656148E+00
          2   -1    0    0  501    0  0.00000000000E+00  0.00000000000E+00  0.48508645046E+02  0.48508645115E+02  0.26000000000E-02 0. -1.
         -2   -1    0    0    0  501 -0.00000000000E+00 -0.00000000000E+00 -0.33096056553E+01  0.33096066765E+01  0.26000000000E-02 0.  1.
        -11    1    1    2    0    0 -0.69031489748E+01  0.85957199015E+01  0.98288637343E+01  0.14769780938E+02  0.51100000000E-03 0. -1.
         11    1    1    2    0    0  0.69031489748E+01 -0.85957199015E+01  0.35370175656E+02  0.37048470854E+02  0.51100000000E-03 0.  1.
<mgrwt>
<rscale>  0 0.25341232E+02</rscale>
<asrwt>0</asrwt>
<pdfrwt beam="1">  1        2 0.74628681E-02 0.25341232E+02</pdfrwt>
<pdfrwt beam="2">  1       -2 0.50917022E-03 0.25341232E+02</pdfrwt>
<totfact> 0.26911336E+06</totfact>
</mgrwt>
</event>
<event>
 4    1  0.1433582E+000  0.3014065E+02  0.7818608E-02  0.1596539E+00
         -2   -1    0    0    0  501 -0.00000000000E+00  0.00000000000E+00  0.83253927783E+02  0.83253927824E+02  0.26000000000E-02 0. -1.
          2   -1    0    0  501    0  0.00000000000E+00 -0.00000000000E+00 -0.27279745977E+01  0.27279758368E+01  0.26000000000E-02 0.  1.
        -11    1    1    2    0    0 -0.11639575058E+01 -0.11571826699E+02  0.67603096080E+02  0.68596213964E+02  0.51100000000E-03 0. -1.
         11    1    1    2    0    0  0.11639575058E+01  0.11571826699E+02  0.12922857105E+02  0.17385689697E+02  0.51100000000E-03 0.  1.
<mgrwt>
<rscale>  0 0.30140647E+02</rscale>
<asrwt>0</asrwt>
<pdfrwt beam="2">  1        2 0.41968848E-03 0.30140647E+02</pdfrwt>
<pdfrwt beam="1">  1       -2 0.12808297E-01 0.30140647E+02</pdfrwt>
<totfact> 0.12300089E+06</totfact>
</mgrwt>
</event>
<event>
 4    1  0.1433582E+000  0.2170854E+02  0.7818608E-02  0.1713342E+00
         -2   -1    0    0    0  501 -0.00000000000E+00  0.00000000000E+00  0.96857998256E+01  0.96858001746E+01  0.26000000000E-02 0.  1.
          2   -1    0    0  501    0  0.00000000000E+00 -0.00000000000E+00 -0.12163698498E+02  0.12163698775E+02  0.26000000000E-02 0. -1.
        -11    1    1    2    0    0 -0.81057134333E+01  0.70815158753E+01 -0.26497277613E+01  0.11084742434E+02  0.51100000000E-03 0. -1.
         11    1    1    2    0    0  0.81057134333E+01 -0.70815158753E+01  0.17182908936E+00  0.10764756516E+02  0.51100000000E-03 0.  1.
<mgrwt>
<rscale>  0 0.21708538E+02</rscale>
<asrwt>0</asrwt>
<pdfrwt beam="2">  1        2 0.18713383E-02 0.21708538E+02</pdfrwt>
<pdfrwt beam="1">  1       -2 0.14901231E-02 0.21708538E+02</pdfrwt>
<totfact> 0.33170632E+06</totfact>
</mgrwt>
</event>
<event>
 4    1  0.1433582E+000  0.2377988E+02  0.7818608E-02  0.1679172E+00
          2   -1    0    0  501    0  0.00000000000E+00  0.00000000000E+00  0.38703461351E+02  0.38703461438E+02  0.26000000000E-02 0. -1.
         -2   -1    0    0    0  501 -0.00000000000E+00 -0.00000000000E+00 -0.36526622898E+01  0.36526632152E+01  0.26000000000E-02 0.  1.
        -11    1    1    2    0    0  0.95279508883E+01 -0.55630257249E+01  0.25419358479E+02  0.27710519467E+02  0.51100000000E-03 0. -1.
         11    1    1    2    0    0 -0.95279508883E+01  0.55630257249E+01  0.96314405815E+01  0.14645605187E+02  0.51100000000E-03 0.  1.
<mgrwt>
<rscale>  0 0.23779882E+02</rscale>
<asrwt>0</asrwt>
<pdfrwt beam="1">  1        2 0.59543786E-02 0.23779882E+02</pdfrwt>
<pdfrwt beam="2">  1       -2 0.56194814E-03 0.23779882E+02</pdfrwt>
<totfact> 0.30177143E+06</totfact>
</mgrwt>
</event>
<event>
 4    1  0.1433582E+000  0.2195449E+02  0.7818608E-02  0.1709040E+00
         -2   -1    0    0    0  501 -0.00000000000E+00  0.00000000000E+00  0.73035158450E+01  0.73035163078E+01  0.26000000000E-02 0. -1.
          2   -1    0    0  501    0  0.00000000000E+00 -0.00000000000E+00 -0.16498888503E+02  0.16498888708E+02  0.26000000000E-02 0.  1.
        -11    1    1    2    0    0 -0.10951447164E+02 -0.74727452893E+00 -0.45051368076E+01  0.11865448670E+02  0.51100000000E-03 0. -1.
         11    1    1    2    0    0  0.10951447164E+02  0.74727452893E+00 -0.46902358504E+01  0.11936956346E+02  0.51100000000E-03 0.  1.
<mgrwt>
<rscale>  0 0.21954489E+02</rscale>
<asrwt>0</asrwt>
<pdfrwt beam="2">  1        2 0.25382906E-02 0.21954489E+02</pdfrwt>
<pdfrwt beam="1">  1       -2 0.11236179E-02 0.21954489E+02</pdfrwt>
<totfact> 0.33137220E+06</totfact>
</mgrwt>
</event>
<event>
 4    1  0.1433582E+000  0.2567926E+02  0.7818608E-02  0.1651433E+00
         -2   -1    0    0    0  501 -0.00000000000E+00  0.00000000000E+00  0.52300647903E+02  0.52300647967E+02  0.26000000000E-02 0.  1.
          2   -1    0    0  501    0  0.00000000000E+00 -0.00000000000E+00 -0.31520836772E+01  0.31520847495E+01  0.26000000000E-02 0. -1.
        -11    1    1    2    0    0  0.81604103008E+01 -0.98162143299E+01  0.27555313952E+02  0.30368498272E+02  0.51100000000E-03 0.  1.
         11    1    1    2    0    0 -0.81604103008E+01  0.98162143299E+01  0.21593250273E+02  0.25084234445E+02  0.51100000000E-03 0. -1.
<mgrwt>
<rscale>  0 0.25679256E+02</rscale>
<asrwt>0</asrwt>
<pdfrwt beam="2">  1        2 0.48493606E-03 0.25679256E+02</pdfrwt>
<pdfrwt beam="1">  1       -2 0.80462533E-02 0.25679256E+02</pdfrwt>
<totfact> 0.19297578E+06</totfact>
</mgrwt>
</event>
<event>
 4    1  0.1433582E+000  0.4484779E+02  0.7818608E-02  0.1475294E+00
          2   -1    0    0  501    0  0.00000000000E+00  0.00000000000E+00  0.34899489731E+02  0.34899489828E+02  0.26000000000E-02 0. -1.
         -2   -1    0    0    0  501 -0.00000000000E+00 -0.00000000000E+00 -0.14407980550E+02  0.14407980785E+02  0.26000000000E-02 0.  1.
        -11    1    1    2    0    0  0.32063240262E+01 -0.22177676176E+02  0.11166494162E+02  0.25036382056E+02  0.51100000000E-03 0.  1.
         11    1    1    2    0    0 -0.32063240262E+01  0.22177676176E+02  0.93250150195E+01  0.24271088556E+02  0.51100000000E-03 0. -1.
<mgrwt>
<rscale>  0 0.44847795E+02</rscale>
<asrwt>0</asrwt>
<pdfrwt beam="1">  1        2 0.53691522E-02 0.44847795E+02</pdfrwt>
<pdfrwt beam="2">  1       -2 0.22166124E-02 0.44847795E+02</pdfrwt>
<totfact> 0.63707098E+05</totfact>
</mgrwt>
</event>
<event>
 4    1  0.1433582E+000  0.2151502E+02  0.7818608E-02  0.1716777E+00
         -2   -1    0    0    0  501 -0.00000000000E+00  0.00000000000E+00  0.33486758322E+01  0.33486768415E+01  0.26000000000E-02 0. -1.
          2   -1    0    0  501    0  0.00000000000E+00 -0.00000000000E+00 -0.34558141142E+02  0.34558141240E+02  0.26000000000E-02 0.  1.
        -11    1    1    2    0    0  0.92758763089E+01  0.51745700906E+01 -0.12601274709E+02  0.16480600155E+02  0.51100000000E-03 0.  1.
         11    1    1    2    0    0 -0.92758763089E+01 -0.51745700906E+01 -0.18608190601E+02  0.21426217927E+02  0.51100000000E-03 0. -1.
<mgrwt>
<rscale>  0 0.21515021E+02</rscale>
<asrwt>0</asrwt>
<pdfrwt beam="2">  1        2 0.53166369E-02 0.21515021E+02</pdfrwt>
<pdfrwt beam="1">  1       -2 0.51518101E-03 0.21515021E+02</pdfrwt>
<totfact> 0.37390376E+06</totfact>
</mgrwt>
</event>
<event>
 4    1  0.1433582E+000  0.7650013E+02  0.7818608E-02  0.1339288E+00
          2   -1    0    0  501    0  0.00000000000E+00  0.00000000000E+00  0.49943030686E+02  0.49943030754E+02  0.26000000000E-02 0. -1.
         -2   -1    0    0    0  501 -0.00000000000E+00 -0.00000000000E+00 -0.29294726904E+02  0.29294727019E+02  0.26000000000E-02 0.  1.
        -11    1    1    2    0    0  0.10340267127E+02 -0.50125242027E+01 -0.27464591437E+02  0.29771635934E+02  0.51100000000E-03 0.  1.
         11    1    1    2    0    0 -0.10340267127E+02  0.50125242027E+01  0.48112895219E+02  0.49466121839E+02  0.51100000000E-03 0. -1.
<mgrwt>
<rscale>  0 0.76500129E+02</rscale>
<asrwt>0</asrwt>
<pdfrwt beam="1">  1        2 0.76835432E-02 0.76500129E+02</pdfrwt>
<pdfrwt beam="2">  1       -2 0.45068811E-02 0.76500129E+02</pdfrwt>
<totfact> 0.16529716E+05</totfact>
</mgrwt>
</event>
<event>
 4    1  0.1433582E+000  0.9491342E+02  0.7818608E-02  0.1291371E+00
          2   -1    0    0  501    0  0.00000000000E+00  0.00000000000E+00  0.29034955427E+02  0.29034955543E+02  0.26000000000E-02 0. -1.
         -2   -1    0    0    0  501 -0.00000000000E+00 -0.00000000000E+00 -0.77566473376E+02  0.77566473420E+02  0.26000000000E-02 0.  1.
        -11    1    1    2    0    0 -0.34322249607E+02 -0.23132228434E+02 -0.50341627895E+02  0.65172051600E+02  0.51100000000E-03 0.  1.
         11    1    1    2    0    0  0.34322249607E+02  0.23132228434E+02  0.18101099454E+01  0.41429377363E+02  0.51100000000E-03 0. -1.
<mgrwt>
<rscale>  0 0.94913415E+02</rscale>
<asrwt>0</asrwt>
<pdfrwt beam="1">  1        2 0.44669163E-02 0.94913415E+02</pdfrwt>
<pdfrwt beam="2">  1       -2 0.11933303E-01 0.94913415E+02</pdfrwt>
<totfact> 0.77756693E+04</totfact>
</mgrwt>
</event>
<event>
 4    1  0.1433582E+000  0.2807237E+02  0.7818608E-02  0.1620429E+00
         -2   -1    0    0    0  501 -0.00000000000E+00  0.00000000000E+00  0.18440451928E+01  0.18440470257E+01  0.26000000000E-02 0. -1.
          2   -1    0    0  501    0  0.00000000000E+00 -0.00000000000E+00 -0.10683817909E+03  0.10683817912E+03  0.26000000000E-02 0.  1.
        -11    1    1    2    0    0  0.13716792156E+02 -0.17571759199E+01 -0.61801950383E+02  0.63330238636E+02  0.51100000000E-03 0. -1.
         11    1    1    2    0    0 -0.13716792156E+02  0.17571759199E+01 -0.43192183511E+02  0.45351987508E+02  0.51100000000E-03 0.  1.
<mgrwt>
<rscale>  0 0.28072373E+02</rscale>
<asrwt>0</asrwt>
<pdfrwt beam="2">  1        2 0.16436638E-01 0.28072373E+02</pdfrwt>
<pdfrwt beam="1">  1       -2 0.28369949E-03 0.28072373E+02</pdfrwt>
<totfact> 0.24813189E+06</totfact>
</mgrwt>
</event>
<event>
 4    1  0.1433582E+000  0.3808529E+02  0.7818608E-02  0.1522794E+00
          2   -1    0    0  501    0  0.00000000000E+00  0.00000000000E+00  0.24951983415E+02  0.24951983550E+02  0.26000000000E-02 0.  1.
         -2   -1    0    0    0  501 -0.00000000000E+00 -0.00000000000E+00 -0.14532808668E+02  0.14532808901E+02  0.26000000000E-02 0. -1.
        -11    1    1    2    0    0 -0.13546696124E+01  0.18827333185E+02  0.78156806832E+01  0.20430087357E+02  0.51100000000E-03 0.  1.
         11    1    1    2    0    0  0.13546696124E+01 -0.18827333185E+02  0.26034940630E+01  0.19054705094E+02  0.51100000000E-03 0. -1.
<mgrwt>
<rscale>  0 0.38085294E+02</rscale>
<asrwt>0</asrwt>
<pdfrwt beam="1">  1        2 0.38387666E-02 0.38085294E+02</pdfrwt>
<pdfrwt beam="2">  1       -2 0.22358168E-02 0.38085294E+02</pdfrwt>
<totfact> 0.91867934E+05</totfact>
</mgrwt>
</event>
<event>
 4    1  0.1433582E+000  0.2127692E+02  0.7818608E-02  0.1721066E+00
          2   -1    0    0  501    0  0.00000000000E+00  0.00000000000E+00  0.71179639390E+01  0.71179644138E+01  0.26000000000E-02 0. -1.
         -2   -1    0    0    0  501 -0.00000000000E+00 -0.00000000000E+00 -0.15900163640E+02  0.15900163853E+02  0.26000000000E-02 0.  1.
        -11    1    1    2    0    0 -0.49892728866E+01  0.93953882017E+01 -0.42795308199E+01  0.11466496749E+02  0.51100000000E-03 0. -1.
         11    1    1    2    0    0  0.49892728866E+01 -0.93953882017E+01 -0.45026688811E+01  0.11551631517E+02  0.51100000000E-03 0.  1.
<mgrwt>
<rscale>  0 0.21276917E+02</rscale>
<asrwt>0</asrwt>
<pdfrwt beam="1">  1        2 0.10950714E-02 0.21276917E+02</pdfrwt>
<pdfrwt beam="2">  1       -2 0.24461791E-02 0.21276917E+02</pdfrwt>
<totfact> 0.33328856E+06</totfact>
</mgrwt>
</event>
<event>
 4    1  0.1433582E+000  0.2122616E+02  0.7818608E-02  0.1721989E+00
          2   -1    0    0  501    0  0.00000000000E+00  0.00000000000E+00  0.11557707351E+02  0.11557707643E+02  0.26000000000E-02 0. -1.
         -2   -1    0    0    0  501 -0.00000000000E+00 -0.00000000000E+00 -0.97456534678E+01  0.97456538147E+01  0.26000000000E-02 0.  1.
        -11    1    1    2    0    0  0.41252991810E+01 -0.91702297063E+01  0.43134031156E+01  0.10941510540E+02  0.51100000000E-03 0. -1.
         11    1    1    2    0    0 -0.41252991810E+01  0.91702297063E+01 -0.25013492326E+01  0.10361850918E+02  0.51100000000E-03 0.  1.
<mgrwt>
<rscale>  0 0.21226155E+02</rscale>
<asrwt>0</asrwt>
<pdfrwt beam="1">  1        2 0.17781089E-02 0.21226155E+02</pdfrwt>
<pdfrwt beam="2">  1       -2 0.14993314E-02 0.21226155E+02</pdfrwt>
<totfact> 0.34798640E+06</totfact>
</mgrwt>
</event>
<event>
 4    1  0.1433582E+000  0.3331815E+02  0.7818608E-02  0.1564064E+00
         -2   -1    0    0    0  501 -0.00000000000E+00  0.00000000000E+00  0.72760434269E+01  0.72760438915E+01  0.26000000000E-02 0. -1.
          2   -1    0    0  501    0  0.00000000000E+00 -0.00000000000E+00 -0.38142258300E+02  0.38142258389E+02  0.26000000000E-02 0.  1.
        -11    1    1    2    0    0 -0.23472091730E+01 -0.16376835484E+02 -0.12770696753E+02  0.20899780553E+02  0.51100000000E-03 0.  1.
         11    1    1    2    0    0  0.23472091730E+01  0.16376835484E+02 -0.18095518120E+02  0.24518521727E+02  0.51100000000E-03 0. -1.
<mgrwt>
<rscale>  0 0.33318148E+02</rscale>
<asrwt>0</asrwt>
<pdfrwt beam="2">  1        2 0.58680397E-02 0.33318148E+02</pdfrwt>
<pdfrwt beam="1">  1       -2 0.11193914E-02 0.33318148E+02</pdfrwt>
<totfact> 0.13546726E+06</totfact>
</mgrwt>
</event>
<event>
 4    1  0.1433582E+000  0.4979615E+02  0.7818608E-02  0.1446444E+00
         -2   -1    0    0    0  501 -0.00000000000E+00  0.00000000000E+00  0.53432129173E+02  0.53432129236E+02  0.26000000000E-02 0. -1.
          2   -1    0    0  501    0  0.00000000000E+00 -0.00000000000E+00 -0.11601899262E+02  0.11601899553E+02  0.26000000000E-02 0.  1.
        -11    1    1    2    0    0 -0.11435793404E+02 -0.22090710825E+02  0.22307904189E+02  0.33412863767E+02  0.51100000000E-03 0.  1.
         11    1    1    2    0    0  0.11435793404E+02  0.22090710825E+02  0.19522325722E+02  0.31621165023E+02  0.51100000000E-03 0. -1.
<mgrwt>
<rscale>  0 0.49796152E+02</rscale>
<asrwt>0</asrwt>
<pdfrwt beam="2">  1        2 0.17849076E-02 0.49796152E+02</pdfrwt>
<pdfrwt beam="1">  1       -2 0.82203275E-02 0.49796152E+02</pdfrwt>
<totfact> 0.40691189E+05</totfact>
</mgrwt>
</event>
<event>
 4    1  0.1433582E+000  0.2214359E+02  0.7818608E-02  0.1705781E+00
         -2   -1    0    0    0  501 -0.00000000000E+00  0.00000000000E+00  0.31768505215E+02  0.31768505321E+02  0.26000000000E-02 0. -1.
          2   -1    0    0  501    0  0.00000000000E+00 -0.00000000000E+00 -0.38586824347E+01  0.38586833106E+01  0.26000000000E-02 0.  1.
        -11    1    1    2    0    0  0.10776015159E+02 -0.52492385079E+00  0.99530907594E+01  0.14678626083E+02  0.51100000000E-03 0.  1.
         11    1    1    2    0    0 -0.10776015159E+02  0.52492385079E+00  0.17956732021E+02  0.20948562549E+02  0.51100000000E-03 0. -1.
<mgrwt>
<rscale>  0 0.22143585E+02</rscale>
<asrwt>0</asrwt>
<pdfrwt beam="2">  1        2 0.59364352E-03 0.22143585E+02</pdfrwt>
<pdfrwt beam="1">  1       -2 0.48874625E-02 0.22143585E+02</pdfrwt>
<totfact> 0.28657462E+06</totfact>
</mgrwt>
</event>
<event>
 4    1  0.1433582E+000  0.2801637E+02  0.7818608E-02  0.1621110E+00
         -2   -1    0    0    0  501 -0.00000000000E+00  0.00000000000E+00  0.88546015465E+01  0.88546019282E+01  0.26000000000E-02 0. -1.
          2   -1    0    0  501    0  0.00000000000E+00 -0.00000000000E+00 -0.22161266815E+02  0.22161266968E+02  0.26000000000E-02 0.  1.
        -11    1    1    2    0    0 -0.77266606189E+01  0.10498921999E+02 -0.97586661761E+00  0.13072144559E+02  0.51100000000E-03 0.  1.
         11    1    1    2    0    0  0.77266606189E+01 -0.10498921999E+02 -0.12330798651E+02  0.17943724337E+02  0.51100000000E-03 0. -1.
<mgrwt>
<rscale>  0 0.28016366E+02</rscale>
<asrwt>0</asrwt>
<pdfrwt beam="2">  1        2 0.34094257E-02 0.28016366E+02</pdfrwt>
<pdfrwt beam="1">  1       -2 0.13622464E-02 0.28016366E+02</pdfrwt>
<totfact> 0.19232422E+06</totfact>
</mgrwt>
</event>
<event>
 4    1  0.1433582E+000  0.2214539E+02  0.7818608E-02  0.1705750E+00
          2   -1    0    0  501    0  0.00000000000E+00  0.00000000000E+00  0.53957142892E+02  0.53957142955E+02  0.26000000000E-02 0.  1.
         -2   -1    0    0    0  501 -0.00000000000E+00 -0.00000000000E+00 -0.22722577584E+01  0.22722592459E+01  0.26000000000E-02 0. -1.
        -11    1    1    2    0    0  0.10899671020E+02  0.14470850221E+01  0.22524373167E+02  0.25064801420E+02  0.51100000000E-03 0.  1.
         11    1    1    2    0    0 -0.10899671020E+02 -0.14470850221E+01  0.29160511967E+02  0.31164600781E+02  0.51100000000E-03 0. -1.
<mgrwt>
<rscale>  0 0.22145391E+02</rscale>
<asrwt>0</asrwt>
<pdfrwt beam="1">  1        2 0.83010987E-02 0.22145391E+02</pdfrwt>
<pdfrwt beam="2">  1       -2 0.34957825E-03 0.22145391E+02</pdfrwt>
<totfact> 0.37284238E+06</totfact>
</mgrwt>
</event>
<event>
 4    1  0.1433582E+000  0.2308516E+02  0.7818608E-02  0.1690133E+00
          2   -1    0    0  501    0  0.00000000000E+00  0.00000000000E+00  0.56047382418E+02  0.56047382478E+02  0.26000000000E-02 0.  1.
         -2   -1    0    0    0  501 -0.00000000000E+00 -0.00000000000E+00 -0.23771156722E+01  0.23771170941E+01  0.26000000000E-02 0. -1.
        -11    1    1    2    0    0  0.11016793380E+02 -0.29154912035E+01  0.22195137328E+02  0.24949828588E+02  0.51100000000E-03 0. -1.
         11    1    1    2    0    0 -0.11016793380E+02  0.29154912035E+01  0.31475129418E+02  0.33474670984E+02  0.51100000000E-03 0.  1.
<mgrwt>
<rscale>  0 0.23085160E+02</rscale>
<asrwt>0</asrwt>
<pdfrwt beam="1">  1        2 0.86226748E-02 0.23085160E+02</pdfrwt>
<pdfrwt beam="2">  1       -2 0.36571020E-03 0.23085160E+02</pdfrwt>
<totfact> 0.34134620E+06</totfact>
</mgrwt>
</event>
<event>
 4    1  0.1433582E+000  0.2164126E+02  0.7818608E-02  0.1714531E+00
          2   -1    0    0  501    0  0.00000000000E+00  0.00000000000E+00  0.52669748298E+02  0.52669748362E+02  0.26000000000E-02 0.  1.
         -2   -1    0    0    0  501 -0.00000000000E+00 -0.00000000000E+00 -0.22230223628E+01  0.22230238832E+01  0.26000000000E-02 0. -1.
        -11    1    1    2    0    0 -0.26061791812E+01 -0.10385603408E+02  0.21266815235E+02  0.23810299422E+02  0.51100000000E-03 0. -1.
         11    1    1    2    0    0  0.26061791812E+01  0.10385603408E+02  0.29179910700E+02  0.31082472823E+02  0.51100000000E-03 0.  1.
<mgrwt>
<rscale>  0 0.21641264E+02</rscale>
<asrwt>0</asrwt>
<pdfrwt beam="1">  1        2 0.81030392E-02 0.21641264E+02</pdfrwt>
<pdfrwt beam="2">  1       -2 0.34200352E-03 0.21641264E+02</pdfrwt>
<totfact> 0.39126936E+06</totfact>
</mgrwt>
</event>
<event>
 4    1  0.1433582E+000  0.2567311E+02  0.7818608E-02  0.1651518E+00
         -2   -1    0    0    0  501 -0.00000000000E+00  0.00000000000E+00  0.79208845270E+01  0.79208849537E+01  0.26000000000E-02 0.  1.
          2   -1    0    0  501    0  0.00000000000E+00 -0.00000000000E+00 -0.20802872194E+02  0.20802872356E+02  0.26000000000E-02 0. -1.
        -11    1    1    2    0    0 -0.88367373008E+01  0.60798787369E+01  0.14484631333E+01  0.10823626808E+02  0.51100000000E-03 0.  1.
         11    1    1    2    0    0  0.88367373008E+01 -0.60798787369E+01 -0.14330450800E+02  0.17900130502E+02  0.51100000000E-03 0. -1.
<mgrwt>
<rscale>  0 0.25673111E+02</rscale>
<asrwt>0</asrwt>
<pdfrwt beam="2">  1        2 0.32004419E-02 0.25673111E+02</pdfrwt>
<pdfrwt beam="1">  1       -2 0.12185977E-02 0.25673111E+02</pdfrwt>
<totfact> 0.23510936E+06</totfact>
</mgrwt>
</event>
<event>
 4    1  0.1433582E+000  0.6771767E+02  0.7818608E-02  0.1368031E+00
          2   -1    0    0  501    0  0.00000000000E+00  0.00000000000E+00  0.15998314738E+03  0.15998314740E+03  0.26000000000E-02 0.  1.
         -2   -1    0    0    0  501 -0.00000000000E+00 -0.00000000000E+00 -0.71658842036E+01  0.71658846753E+01  0.26000000000E-02 0. -1.
        -11    1    1    2    0    0  0.23841927945E+02 -0.18882741203E+02  0.11313817066E+03  0.11715477414E+03  0.51100000000E-03 0.  1.
         11    1    1    2    0    0 -0.23841927945E+02  0.18882741203E+02  0.39679092523E+02  0.49994257942E+02  0.51100000000E-03 0. -1.
<mgrwt>
<rscale>  0 0.67717671E+02</rscale>
<asrwt>0</asrwt>
<pdfrwt beam="1">  1        2 0.24612790E-01 0.67717671E+02</pdfrwt>
<pdfrwt beam="2">  1       -2 0.11024438E-02 0.67717671E+02</pdfrwt>
<totfact> 0.31509317E+05</totfact>
</mgrwt>
</event>
<event>
 4    1  0.1433582E+000  0.2834377E+02  0.7818608E-02  0.1617152E+00
          2   -1    0    0  501    0  0.00000000000E+00  0.00000000000E+00  0.33986685956E+01  0.33986695901E+01  0.26000000000E-02 0.  1.
         -2   -1    0    0    0  501 -0.00000000000E+00 -0.00000000000E+00 -0.59094423323E+02  0.59094423380E+02  0.26000000000E-02 0. -1.
        -11    1    1    2    0    0  0.11289726468E+02 -0.49554573832E+01 -0.43254534052E+02  0.44977429872E+02  0.51100000000E-03 0. -1.
         11    1    1    2    0    0 -0.11289726468E+02  0.49554573832E+01 -0.12441220676E+02  0.17515663098E+02  0.51100000000E-03 0.  1.
<mgrwt>
<rscale>  0 0.28343775E+02</rscale>
<asrwt>0</asrwt>
<pdfrwt beam="1">  1        2 0.52287221E-03 0.28343775E+02</pdfrwt>
<pdfrwt beam="2">  1       -2 0.90914491E-02 0.28343775E+02</pdfrwt>
<totfact> 0.15112433E+06</totfact>
</mgrwt>
</event>
<event>
 4    1  0.1433582E+000  0.2780981E+02  0.7818608E-02  0.1623642E+00
         -2   -1    0    0    0  501 -0.00000000000E+00  0.00000000000E+00  0.21885802344E+01  0.21885817787E+01  0.26000000000E-02 0. -1.
          2   -1    0    0  501    0  0.00000000000E+00 -0.00000000000E+00 -0.88343274863E+02  0.88343274901E+02  0.26000000000E-02 0.  1.
        -11    1    1    2    0    0  0.13139666518E+02  0.21051080275E+01 -0.56205946612E+02  0.57759767579E+02  0.51100000000E-03 0. -1.
         11    1    1    2    0    0 -0.13139666518E+02 -0.21051080275E+01 -0.29948748017E+02  0.32772089101E+02  0.51100000000E-03 0.  1.
<mgrwt>
<rscale>  0 0.27809812E+02</rscale>
<asrwt>0</asrwt>
<pdfrwt beam="2">  1        2 0.13591270E-01 0.27809812E+02</pdfrwt>
<pdfrwt beam="1">  1       -2 0.33670484E-03 0.27809812E+02</pdfrwt>
<totfact> 0.24257035E+06</totfact>
</mgrwt>
</event>
<event>
 4    1  0.1433582E+000  0.2610987E+02  0.7818608E-02  0.1645554E+00
         -2   -1    0    0    0  501 -0.00000000000E+00  0.00000000000E+00  0.35071529350E+02  0.35071529446E+02  0.26000000000E-02 0.  1.
          2   -1    0    0  501    0  0.00000000000E+00 -0.00000000000E+00 -0.48595341278E+01  0.48595348234E+01  0.26000000000E-02 0. -1.
        -11    1    1    2    0    0  0.85336710869E+00  0.13020899780E+02  0.14495707739E+02  0.19503784495E+02  0.51100000000E-03 0. -1.
         11    1    1    2    0    0 -0.85336710869E+00 -0.13020899780E+02  0.15716287483E+02  0.20427279775E+02  0.51100000000E-03 0.  1.
<mgrwt>
<rscale>  0 0.26109869E+02</rscale>
<asrwt>0</asrwt>
<pdfrwt beam="2">  1        2 0.74762068E-03 0.26109869E+02</pdfrwt>
<pdfrwt beam="1">  1       -2 0.53956200E-02 0.26109869E+02</pdfrwt>
<totfact> 0.19598261E+06</totfact>
</mgrwt>
</event>
<event>
 4    1  0.1433582E+000  0.2391548E+02  0.7818608E-02  0.1677086E+00
          2   -1    0    0  501    0  0.00000000000E+00  0.00000000000E+00  0.10441511663E+02  0.10441511986E+02  0.26000000000E-02 0. -1.
         -2   -1    0    0    0  501 -0.00000000000E+00 -0.00000000000E+00 -0.13694137278E+02  0.13694137525E+02  0.26000000000E-02 0.  1.
        -11    1    1    2    0    0  0.38207096273E+01 -0.11049520573E+02  0.90632732743E+00  0.11726515102E+02  0.51100000000E-03 0. -1.
         11    1    1    2    0    0 -0.38207096273E+01  0.11049520573E+02 -0.41589529425E+01  0.12409134409E+02  0.51100000000E-03 0.  1.
<mgrwt>
<rscale>  0 0.23915476E+02</rscale>
<asrwt>0</asrwt>
<pdfrwt beam="1">  1        2 0.16063865E-02 0.23915476E+02</pdfrwt>
<pdfrwt beam="2">  1       -2 0.21067904E-02 0.23915476E+02</pdfrwt>
<totfact> 0.26120738E+06</totfact>
</mgrwt>
</event>
<event>
 4    1  0.1433582E+000  0.4616154E+02  0.7818608E-02  0.1467218E+00
         -2   -1    0    0    0  501 -0.00000000000E+00  0.00000000000E+00  0.44594062427E+01  0.44594070007E+01  0.26000000000E-02 0.  1.
          2   -1    0    0  501    0  0.00000000000E+00 -0.00000000000E+00 -0.11946026393E+03  0.11946026396E+03  0.26000000000E-02 0. -1.
        -11    1    1    2    0    0 -0.12934193212E+02 -0.19109051332E+02 -0.56098579910E+02  0.60658881172E+02  0.51100000000E-03 0. -1.
         11    1    1    2    0    0  0.12934193212E+02  0.19109051332E+02 -0.58902277775E+02  0.63260789785E+02  0.51100000000E-03 0.  1.
<mgrwt>
<rscale>  0 0.46161538E+02</rscale>
<asrwt>0</asrwt>
<pdfrwt beam="2">  1        2 0.18378500E-01 0.46161538E+02</pdfrwt>
<pdfrwt beam="1">  1       -2 0.68606265E-03 0.46161538E+02</pdfrwt>
<totfact> 0.76772089E+05</totfact>
</mgrwt>
</event>
<event>
 4    1  0.1433582E+000  0.4150427E+02  0.7818608E-02  0.1497425E+00
          2   -1    0    0  501    0  0.00000000000E+00  0.00000000000E+00  0.11646321696E+02  0.11646321986E+02  0.26000000000E-02 0. -1.
         -2   -1    0    0    0  501 -0.00000000000E+00 -0.00000000000E+00 -0.36977430032E+02  0.36977430123E+02  0.26000000000E-02 0.  1.
        -11    1    1    2    0    0  0.89305618455E+01 -0.14908937066E+02  0.62091204066E+00  0.17390137186E+02  0.51100000000E-03 0. -1.
         11    1    1    2    0    0 -0.89305618455E+01  0.14908937066E+02 -0.25952020376E+02  0.31233614923E+02  0.51100000000E-03 0.  1.
<mgrwt>
<rscale>  0 0.41504267E+02</rscale>
<asrwt>0</asrwt>
<pdfrwt beam="1">  1        2 0.17917418E-02 0.41504267E+02</pdfrwt>
<pdfrwt beam="2">  1       -2 0.56888354E-02 0.41504267E+02</pdfrwt>
<totfact> 0.66601704E+05</totfact>
</mgrwt>
</event>
<event>
 4    1  0.1433582E+000  0.3671804E+02  0.7818608E-02  0.1533853E+00
         -2   -1    0    0    0  501 -0.00000000000E+00  0.00000000000E+00  0.43216371241E+02  0.43216371320E+02  0.26000000000E-02 0. -1.
          2   -1    0    0  501    0  0.00000000000E+00 -0.00000000000E+00 -0.77992119363E+01  0.77992123696E+01  0.26000000000E-02 0.  1.
        -11    1    1    2    0    0 -0.32954034018E+01 -0.14424541591E+02  0.26078776126E+01  0.15024250717E+02  0.51100000000E-03 0.  1.
         11    1    1    2    0    0  0.32954034018E+01  0.14424541591E+02  0.32809281692E+02  0.35991332972E+02  0.51100000000E-03 0. -1.
<mgrwt>
<rscale>  0 0.36718042E+02</rscale>
<asrwt>0</asrwt>
<pdfrwt beam="2">  1        2 0.11998788E-02 0.36718042E+02</pdfrwt>
<pdfrwt beam="1">  1       -2 0.66486725E-02 0.36718042E+02</pdfrwt>
<totfact> 0.86873394E+05</totfact>
</mgrwt>
</event>
<event>
 4    1  0.1433582E+000  0.2518341E+02  0.7818608E-02  0.1658381E+00
          2   -1    0    0  501    0  0.00000000000E+00  0.00000000000E+00  0.18727401491E+02  0.18727401671E+02  0.26000000000E-02 0. -1.
         -2   -1    0    0    0  501 -0.00000000000E+00 -0.00000000000E+00 -0.84662572964E+01  0.84662576957E+01  0.26000000000E-02 0.  1.
        -11    1    1    2    0    0 -0.86074166172E+01  0.65665532208E+01 -0.18126037873E+01  0.10976920095E+02  0.51100000000E-03 0.  1.
         11    1    1    2    0    0  0.86074166172E+01 -0.65665532208E+01  0.12073747982E+02  0.16216739272E+02  0.51100000000E-03 0. -1.
<mgrwt>
<rscale>  0 0.25183408E+02</rscale>
<asrwt>0</asrwt>
<pdfrwt beam="1">  1        2 0.28811387E-02 0.25183408E+02</pdfrwt>
<pdfrwt beam="2">  1       -2 0.13025012E-02 0.25183408E+02</pdfrwt>
<totfact> 0.24351726E+06</totfact>
</mgrwt>
</event>
<event>
 4    1  0.1433582E+000  0.2444609E+02  0.7818608E-02  0.1669088E+00
          2   -1    0    0  501    0  0.00000000000E+00  0.00000000000E+00  0.31434231741E+01  0.31434242494E+01  0.26000000000E-02 0. -1.
         -2   -1    0    0    0  501 -0.00000000000E+00 -0.00000000000E+00 -0.47528691296E+02  0.47528691367E+02  0.26000000000E-02 0.  1.
        -11    1    1    2    0    0 -0.88819818422E+01 -0.63432889589E+01 -0.10787295216E+02  0.15345769926E+02  0.51100000000E-03 0. -1.
         11    1    1    2    0    0  0.88819818422E+01  0.63432889589E+01 -0.33597972905E+02  0.35326345691E+02  0.51100000000E-03 0.  1.
<mgrwt>
<rscale>  0 0.24446089E+02</rscale>
<asrwt>0</asrwt>
<pdfrwt beam="1">  1        2 0.48360369E-03 0.24446089E+02</pdfrwt>
<pdfrwt beam="2">  1       -2 0.73121059E-02 0.24446089E+02</pdfrwt>
<totfact> 0.21870082E+06</totfact>
</mgrwt>
</event>
<event>
 4    1  0.1433582E+000  0.2452752E+02  0.7818608E-02  0.1667882E+00
         -2   -1    0    0    0  501 -0.00000000000E+00  0.00000000000E+00  0.45786360133E+01  0.45786367516E+01  0.26000000000E-02 0. -1.
          2   -1    0    0  501    0  0.00000000000E+00 -0.00000000000E+00 -0.32848169976E+02  0.32848170079E+02  0.26000000000E-02 0.  1.
        -11    1    1    2    0    0 -0.94470870837E+01  0.62946863531E+01 -0.70545910256E+01  0.13365544712E+02  0.51100000000E-03 0. -1.
         11    1    1    2    0    0  0.94470870837E+01 -0.62946863531E+01 -0.21214942938E+02  0.24061262119E+02  0.51100000000E-03 0.  1.
<mgrwt>
<rscale>  0 0.24527522E+02</rscale>
<asrwt>0</asrwt>
<pdfrwt beam="2">  1        2 0.50535645E-02 0.24527522E+02</pdfrwt>
<pdfrwt beam="1">  1       -2 0.70440562E-03 0.24527522E+02</pdfrwt>
<totfact> 0.27510973E+06</totfact>
</mgrwt>
</event>
<event>
 4    1  0.1433582E+000  0.3989178E+02  0.7818608E-02  0.1509009E+00
         -2   -1    0    0    0  501 -0.00000000000E+00  0.00000000000E+00  0.43540858217E+02  0.43540858295E+02  0.26000000000E-02 0. -1.
          2   -1    0    0  501    0  0.00000000000E+00 -0.00000000000E+00 -0.91371311188E+01  0.91371314888E+01  0.26000000000E-02 0.  1.
        -11    1    1    2    0    0  0.56458161650E+01 -0.13885965285E+02  0.34577814352E+02  0.37687139951E+02  0.51100000000E-03 0. -1.
         11    1    1    2    0    0 -0.56458161650E+01  0.13885965285E+02 -0.17408725415E+00  0.14990849832E+02  0.51100000000E-03 0.  1.
<mgrwt>
<rscale>  0 0.39891781E+02</rscale>
<asrwt>0</asrwt>
<pdfrwt beam="2">  1        2 0.14057125E-02 0.39891781E+02</pdfrwt>
<pdfrwt beam="1">  1       -2 0.66985937E-02 0.39891781E+02</pdfrwt>
<totfact> 0.71389295E+05</totfact>
</mgrwt>
</event>
<event>
 4    1  0.1433582E+000  0.4684678E+02  0.7818608E-02  0.1463131E+00
          2   -1    0    0  501    0  0.00000000000E+00  0.00000000000E+00  0.28011161187E+02  0.28011161307E+02  0.26000000000E-02 0. -1.
         -2   -1    0    0    0  501 -0.00000000000E+00 -0.00000000000E+00 -0.19587018195E+02  0.19587018367E+02  0.26000000000E-02 0.  1.
        -11    1    1    2    0    0 -0.16573028614E+02  0.26264279510E+01  0.20817146666E+02  0.26737931797E+02  0.51100000000E-03 0. -1.
         11    1    1    2    0    0  0.16573028614E+02 -0.26264279510E+01 -0.12393003673E+02  0.20860247878E+02  0.51100000000E-03 0.  1.
<mgrwt>
<rscale>  0 0.46846777E+02</rscale>
<asrwt>0</asrwt>
<pdfrwt beam="1">  1        2 0.43094094E-02 0.46846777E+02</pdfrwt>
<pdfrwt beam="2">  1       -2 0.30133875E-02 0.46846777E+02</pdfrwt>
<totfact> 0.55032280E+05</totfact>
</mgrwt>
</event>
<event>
 4    1  0.1433582E+000  0.2465616E+02  0.7818608E-02  0.1665990E+00
          2   -1    0    0  501    0  0.00000000000E+00  0.00000000000E+00  0.25064316756E+02  0.25064316891E+02  0.26000000000E-02 0. -1.
         -2   -1    0    0    0  501 -0.00000000000E+00 -0.00000000000E+00 -0.60636595935E+01  0.60636601509E+01  0.26000000000E-02 0.  1.
        -11    1    1    2    0    0 -0.61629141623E+01  0.10107081795E+02  0.51549504541E+01  0.12911550172E+02  0.51100000000E-03 0. -1.
         11    1    1    2    0    0  0.61629141623E+01 -0.10107081795E+02  0.13845706708E+02  0.18216426870E+02  0.51100000000E-03 0.  1.
<mgrwt>
<rscale>  0 0.24656155E+02</rscale>
<asrwt>0</asrwt>
<pdfrwt beam="1">  1        2 0.38560489E-02 0.24656155E+02</pdfrwt>
<pdfrwt beam="2">  1       -2 0.93287074E-03 0.24656155E+02</pdfrwt>
<totfact> 0.26352679E+06</totfact>
</mgrwt>
</event>
<event>
 4    1  0.1433582E+000  0.2208437E+02  0.7818608E-02  0.1706797E+00
          2   -1    0    0  501    0  0.00000000000E+00  0.00000000000E+00  0.11141737037E+03  0.11141737040E+03  0.26000000000E-02 0.  1.
         -2   -1    0    0    0  501 -0.00000000000E+00 -0.00000000000E+00 -0.10943508170E+01  0.10943539056E+01  0.26000000000E-02 0. -1.
        -11    1    1    2    0    0  0.53777219228E+01 -0.96168225251E+01  0.58858881603E+02  0.59881308539E+02  0.51100000000E-03 0. -1.
         11    1    1    2    0    0 -0.53777219228E+01  0.96168225251E+01  0.51464137946E+02  0.52630415763E+02  0.51100000000E-03 0.  1.
<mgrwt>
<rscale>  0 0.22084371E+02</rscale>
<asrwt>0</asrwt>
<pdfrwt beam="1">  1        2 0.17141134E-01 0.22084371E+02</pdfrwt>
<pdfrwt beam="2">  1       -2 0.16836191E-03 0.22084371E+02</pdfrwt>
<totfact> 0.43405260E+06</totfact>
</mgrwt>
</event>
<event>
 4    1  0.1433582E+000  0.5882894E+02  0.7818608E-02  0.1402813E+00
         -2   -1    0    0    0  501 -0.00000000000E+00  0.00000000000E+00  0.95614966773E+02  0.95614966808E+02  0.26000000000E-02 0.  1.
          2   -1    0    0  501    0  0.00000000000E+00 -0.00000000000E+00 -0.90489065875E+01  0.90489069611E+01  0.26000000000E-02 0. -1.
        -11    1    1    2    0    0 -0.15202847580E+02 -0.17477531973E+02  0.11031304469E+02  0.25656975211E+02  0.51100000000E-03 0. -1.
         11    1    1    2    0    0  0.15202847580E+02  0.17477531973E+02  0.75534755716E+02  0.79006898558E+02  0.51100000000E-03 0.  1.
<mgrwt>
<rscale>  0 0.58828936E+02</rscale>
<asrwt>0</asrwt>
<pdfrwt beam="2">  1        2 0.13921395E-02 0.58828936E+02</pdfrwt>
<pdfrwt beam="1">  1       -2 0.14709995E-01 0.58828936E+02</pdfrwt>
<totfact> 0.23960651E+05</totfact>
</mgrwt>
</event>
<event>
 4    1  0.1433582E+000  0.3406035E+02  0.7818608E-02  0.1557107E+00
         -2   -1    0    0    0  501 -0.00000000000E+00  0.00000000000E+00  0.69699035318E+01  0.69699040168E+01  0.26000000000E-02 0. -1.
          2   -1    0    0  501    0  0.00000000000E+00 -0.00000000000E+00 -0.41611314358E+02  0.41611314439E+02  0.26000000000E-02 0.  1.
        -11    1    1    2    0    0  0.14363016238E+02 -0.42688145051E+01 -0.57764490703E+01  0.16058841081E+02  0.51100000000E-03 0.  1.
         11    1    1    2    0    0 -0.14363016238E+02  0.42688145051E+01 -0.28864961756E+02  0.32522377375E+02  0.51100000000E-03 0. -1.
<mgrwt>
<rscale>  0 0.34060350E+02</rscale>
<asrwt>0</asrwt>
<pdfrwt beam="2">  1        2 0.64017405E-02 0.34060350E+02</pdfrwt>
<pdfrwt beam="1">  1       -2 0.10722929E-02 0.34060350E+02</pdfrwt>
<totfact> 0.13007244E+06</totfact>
</mgrwt>
</event>
<event>
 4    1  0.1433582E+000  0.3443958E+02  0.7818608E-02  0.1553634E+00
          2   -1    0    0  501    0  0.00000000000E+00  0.00000000000E+00  0.27124741389E+02  0.27124741514E+02  0.26000000000E-02 0.  1.
         -2   -1    0    0    0  501 -0.00000000000E+00 -0.00000000000E+00 -0.10931762700E+02  0.10931763009E+02  0.26000000000E-02 0. -1.
        -11    1    1    2    0    0 -0.11937214585E+02 -0.11651581603E+01 -0.55569778498E+01  0.13218724926E+02  0.51100000000E-03 0. -1.
         11    1    1    2    0    0  0.11937214585E+02  0.11651581603E+01  0.21749956539E+02  0.24837779597E+02  0.51100000000E-03 0.  1.
<mgrwt>
<rscale>  0 0.34439584E+02</rscale>
<asrwt>0</asrwt>
<pdfrwt beam="1">  1        2 0.41730371E-02 0.34439584E+02</pdfrwt>
<pdfrwt beam="2">  1       -2 0.16818097E-02 0.34439584E+02</pdfrwt>
<totfact> 0.11929288E+06</totfact>
</mgrwt>
</event>
<event>
 4    1  0.1433582E+000  0.2612468E+02  0.7818608E-02  0.1645354E+00
          2   -1    0    0  501    0  0.00000000000E+00  0.00000000000E+00  0.24821223716E+02  0.24821223852E+02  0.26000000000E-02 0. -1.
         -2   -1    0    0    0  501 -0.00000000000E+00 -0.00000000000E+00 -0.68741450192E+01  0.68741455109E+01  0.26000000000E-02 0.  1.
        -11    1    1    2    0    0 -0.82347283487E+01  0.84199320698E+01  0.21191712065E+01  0.11966490459E+02  0.51100000000E-03 0.  1.
         11    1    1    2    0    0  0.82347283487E+01 -0.84199320698E+01  0.15827907490E+02  0.19728878904E+02  0.51100000000E-03 0. -1.
<mgrwt>
<rscale>  0 0.26124678E+02</rscale>
<asrwt>0</asrwt>
<pdfrwt beam="1">  1        2 0.38186498E-02 0.26124678E+02</pdfrwt>
<pdfrwt beam="2">  1       -2 0.10575608E-02 0.26124678E+02</pdfrwt>
<totfact> 0.22982488E+06</totfact>
</mgrwt>
</event>
<event>
 4    1  0.1433582E+000  0.2446716E+02  0.7818608E-02  0.1668775E+00
         -2   -1    0    0    0  501 -0.00000000000E+00  0.00000000000E+00  0.17489854079E+01  0.17489873405E+01  0.26000000000E-02 0.  1.
          2   -1    0    0  501    0  0.00000000000E+00 -0.00000000000E+00 -0.85569808315E+02  0.85569808354E+02  0.26000000000E-02 0. -1.
        -11    1    1    2    0    0  0.10587861787E+02 -0.16639175735E+01 -0.20860747198E+02  0.23452978762E+02  0.51100000000E-03 0.  1.
         11    1    1    2    0    0 -0.10587861787E+02  0.16639175735E+01 -0.62960075709E+02  0.63865816932E+02  0.51100000000E-03 0. -1.
<mgrwt>
<rscale>  0 0.24467156E+02</rscale>
<asrwt>0</asrwt>
<pdfrwt beam="2">  1        2 0.13164583E-01 0.24467156E+02</pdfrwt>
<pdfrwt beam="1">  1       -2 0.26907490E-03 0.24467156E+02</pdfrwt>
<totfact> 0.32394201E+06</totfact>
</mgrwt>
</event>
<event>
 4    1  0.1433582E+000  0.3219173E+02  0.7818608E-02  0.1575053E+00
          2   -1    0    0  501    0  0.00000000000E+00  0.00000000000E+00  0.51275524172E+02  0.51275524238E+02  0.26000000000E-02 0. -1.
         -2   -1    0    0    0  501 -0.00000000000E+00 -0.00000000000E+00 -0.50526431718E+01  0.50526438408E+01  0.26000000000E-02 0.  1.
        -11    1    1    2    0    0 -0.15544893621E+02  0.41450644509E+01  0.22233636724E+02  0.27443758475E+02  0.51100000000E-03 0.  1.
         11    1    1    2    0    0  0.15544893621E+02 -0.41450644509E+01  0.23989244276E+02  0.28884409604E+02  0.51100000000E-03 0. -1.
<mgrwt>
<rscale>  0 0.32191735E+02</rscale>
<asrwt>0</asrwt>
<pdfrwt beam="1">  1        2 0.78885428E-02 0.32191735E+02</pdfrwt>
<pdfrwt beam="2">  1       -2 0.77732972E-03 0.32191735E+02</pdfrwt>
<totfact> 0.15420309E+06</totfact>
</mgrwt>
</event>
<event>
 4    1  0.1433582E+000  0.4619351E+02  0.7818608E-02  0.1467025E+00
         -2   -1    0    0    0  501 -0.00000000000E+00  0.00000000000E+00  0.62963690185E+02  0.62963690239E+02  0.26000000000E-02 0. -1.
          2   -1    0    0  501    0  0.00000000000E+00 -0.00000000000E+00 -0.84725050932E+01  0.84725054921E+01  0.26000000000E-02 0.  1.
        -11    1    1    2    0    0 -0.19206207667E+01 -0.11001320660E+02 -0.40196739706E+01  0.11869103567E+02  0.51100000000E-03 0.  1.
         11    1    1    2    0    0  0.19206207667E+01  0.11001320660E+02  0.58510859063E+02  0.59567092164E+02  0.51100000000E-03 0. -1.
<mgrwt>
<rscale>  0 0.46193515E+02</rscale>
<asrwt>0</asrwt>
<pdfrwt beam="2">  1        2 0.13034623E-02 0.46193515E+02</pdfrwt>
<pdfrwt beam="1">  1       -2 0.96867220E-02 0.46193515E+02</pdfrwt>
<totfact> 0.47300212E+05</totfact>
</mgrwt>
</event>
<event>
 4    1  0.1433582E+000  0.2677775E+02  0.7818608E-02  0.1636707E+00
          2   -1    0    0  501    0  0.00000000000E+00  0.00000000000E+00  0.55547623336E+02  0.55547623397E+02  0.26000000000E-02 0.  1.
         -2   -1    0    0    0  501 -0.00000000000E+00 -0.00000000000E+00 -0.32271747157E+01  0.32271757631E+01  0.26000000000E-02 0. -1.
        -11    1    1    2    0    0  0.11602445291E+02 -0.46307489998E+01  0.36732627521E+02  0.38798795057E+02  0.51100000000E-03 0.  1.
         11    1    1    2    0    0 -0.11602445291E+02  0.46307489998E+01  0.15587821099E+02  0.19976004103E+02  0.51100000000E-03 0. -1.
<mgrwt>
<rscale>  0 0.26777746E+02</rscale>
<asrwt>0</asrwt>
<pdfrwt beam="1">  1        2 0.85457884E-02 0.26777746E+02</pdfrwt>
<pdfrwt beam="2">  1       -2 0.49648850E-03 0.26777746E+02</pdfrwt>
<totfact> 0.24194086E+06</totfact>
</mgrwt>
</event>
<event>
 4    1  0.1433582E+000  0.3564584E+02  0.7818608E-02  0.1542939E+00
         -2   -1    0    0    0  501 -0.00000000000E+00  0.00000000000E+00  0.41633468321E+01  0.41633476440E+01  0.26000000000E-02 0.  1.
          2   -1    0    0  501    0  0.00000000000E+00 -0.00000000000E+00 -0.76298328254E+02  0.76298328298E+02  0.26000000000E-02 0. -1.
        -11    1    1    2    0    0 -0.11950562911E+02  0.12021935374E+02 -0.23639564331E+02  0.29089033776E+02  0.51100000000E-03 0. -1.
         11    1    1    2    0    0  0.11950562911E+02 -0.12021935374E+02 -0.48495417091E+02  0.51372642166E+02  0.51100000000E-03 0.  1.
<mgrwt>
<rscale>  0 0.35645838E+02</rscale>
<asrwt>0</asrwt>
<pdfrwt beam="2">  1        2 0.11738203E-01 0.35645838E+02</pdfrwt>
<pdfrwt beam="1">  1       -2 0.64051502E-03 0.35645838E+02</pdfrwt>
<totfact> 0.13003955E+06</totfact>
</mgrwt>
</event>
<event>
 4    1  0.1433582E+000  0.3249431E+02  0.7818608E-02  0.1572048E+00
          2   -1    0    0  501    0  0.00000000000E+00  0.00000000000E+00  0.32999402188E+02  0.32999402290E+02  0.26000000000E-02 0. -1.
         -2   -1    0    0    0  501 -0.00000000000E+00 -0.00000000000E+00 -0.79992357245E+01  0.79992361470E+01  0.26000000000E-02 0.  1.
        -11    1    1    2    0    0  0.69913578638E+01 -0.14216828831E+02  0.17044491517E+02  0.23270410356E+02  0.51100000000E-03 0. -1.
         11    1    1    2    0    0 -0.69913578638E+01  0.14216828831E+02  0.79556749462E+01  0.17728228081E+02  0.51100000000E-03 0.  1.
<mgrwt>
<rscale>  0 0.32494308E+02</rscale>
<asrwt>0</asrwt>
<pdfrwt beam="1">  1        2 0.50768311E-02 0.32494308E+02</pdfrwt>
<pdfrwt beam="2">  1       -2 0.12306517E-02 0.32494308E+02</pdfrwt>
<totfact> 0.14108500E+06</totfact>
</mgrwt>
</event>
<event>
 4    1  0.1433582E+000  0.5276059E+02  0.7818608E-02  0.1430996E+00
         -2   -1    0    0    0  501 -0.00000000000E+00  0.00000000000E+00  0.11393766620E+02  0.11393766917E+02  0.26000000000E-02 0.  1.
          2   -1    0    0  501    0  0.00000000000E+00 -0.00000000000E+00 -0.61079013716E+02  0.61079013771E+02  0.26000000000E-02 0. -1.
        -11    1    1    2    0    0 -0.14077521767E+02 -0.22302931053E+02 -0.24062333068E+02  0.35701445708E+02  0.51100000000E-03 0. -1.
         11    1    1    2    0    0  0.14077521767E+02  0.22302931053E+02 -0.25622914028E+02  0.36771334980E+02  0.51100000000E-03 0.  1.
<mgrwt>
<rscale>  0 0.52760593E+02</rscale>
<asrwt>0</asrwt>
<pdfrwt beam="2">  1        2 0.93967712E-02 0.52760593E+02</pdfrwt>
<pdfrwt beam="1">  1       -2 0.17528872E-02 0.52760593E+02</pdfrwt>
<totfact> 0.46493465E+05</totfact>
</mgrwt>
</event>
<event>
 4    1  0.1433582E+000  0.5796199E+02  0.7818608E-02  0.1406589E+00
         -2   -1    0    0    0  501 -0.00000000000E+00  0.00000000000E+00  0.11257512296E+02  0.11257512596E+02  0.26000000000E-02 0.  1.
          2   -1    0    0  501    0  0.00000000000E+00 -0.00000000000E+00 -0.74607788113E+02  0.74607788158E+02  0.26000000000E-02 0. -1.
        -11    1    1    2    0    0  0.11571463787E+02  0.22972894117E+02 -0.11897079858E+02  0.28340662442E+02  0.51100000000E-03 0.  1.
         11    1    1    2    0    0 -0.11571463787E+02 -0.22972894117E+02 -0.51453195959E+02  0.57524638312E+02  0.51100000000E-03 0. -1.
<mgrwt>
<rscale>  0 0.57961991E+02</rscale>
<asrwt>0</asrwt>
<pdfrwt beam="2">  1        2 0.11478121E-01 0.57961991E+02</pdfrwt>
<pdfrwt beam="1">  1       -2 0.17319250E-02 0.57961991E+02</pdfrwt>
<totfact> 0.38106347E+05</totfact>
</mgrwt>
</event>
<event>
 4    1  0.1433582E+000  0.2121745E+02  0.7818608E-02  0.1722148E+00
          2   -1    0    0  501    0  0.00000000000E+00  0.00000000000E+00  0.44747064732E+02  0.44747064808E+02  0.26000000000E-02 0.  1.
         -2   -1    0    0    0  501 -0.00000000000E+00 -0.00000000000E+00 -0.25151362110E+01  0.25151375549E+01  0.26000000000E-02 0. -1.
        -11    1    1    2    0    0 -0.10108105971E+02 -0.26191872691E+01  0.25289837335E+02  0.27360735022E+02  0.51100000000E-03 0.  1.
         11    1    1    2    0    0  0.10108105971E+02  0.26191872691E+01  0.16942091186E+02  0.19901467340E+02  0.51100000000E-03 0. -1.
<mgrwt>
<rscale>  0 0.21217445E+02</rscale>
<asrwt>0</asrwt>
<pdfrwt beam="1">  1        2 0.68841639E-02 0.21217445E+02</pdfrwt>
<pdfrwt beam="2">  1       -2 0.38694414E-03 0.21217445E+02</pdfrwt>
<totfact> 0.39923678E+06</totfact>
</mgrwt>
</event>
<event>
 4    1  0.1433582E+000  0.4394408E+02  0.7818608E-02  0.1481043E+00
          2   -1    0    0  501    0  0.00000000000E+00  0.00000000000E+00  0.69512537969E+02  0.69512538017E+02  0.26000000000E-02 0.  1.
         -2   -1    0    0    0  501 -0.00000000000E+00 -0.00000000000E+00 -0.69450849716E+01  0.69450854582E+01  0.26000000000E-02 0. -1.
        -11    1    1    2    0    0  0.18766875986E+02 -0.97929228757E+01  0.21038549491E+02  0.29844891316E+02  0.51100000000E-03 0. -1.
         11    1    1    2    0    0 -0.18766875986E+02  0.97929228757E+01  0.41528903506E+02  0.46612732160E+02  0.51100000000E-03 0.  1.
<mgrwt>
<rscale>  0 0.43944078E+02</rscale>
<asrwt>0</asrwt>
<pdfrwt beam="1">  1        2 0.10694236E-01 0.43944078E+02</pdfrwt>
<pdfrwt beam="2">  1       -2 0.10684747E-02 0.43944078E+02</pdfrwt>
<totfact> 0.76063127E+05</totfact>
</mgrwt>
</event>
<event>
 4    1  0.1433582E+000  0.2838138E+02  0.7818608E-02  0.1616702E+00
         -2   -1    0    0    0  501 -0.00000000000E+00  0.00000000000E+00  0.15967935017E+01  0.15967956184E+01  0.26000000000E-02 0. -1.
          2   -1    0    0  501    0  0.00000000000E+00 -0.00000000000E+00 -0.12611249078E+03  0.12611249081E+03  0.26000000000E-02 0.  1.
        -11    1    1    2    0    0 -0.12364625812E+02 -0.54964332664E+01 -0.43018569872E+02  0.45096475519E+02  0.51100000000E-03 0.  1.
         11    1    1    2    0    0  0.12364625812E+02  0.54964332664E+01 -0.81497127409E+02  0.82612810909E+02  0.51100000000E-03 0. -1.
<mgrwt>
<rscale>  0 0.28381384E+02</rscale>
<asrwt>0</asrwt>
<pdfrwt beam="2">  1        2 0.19401914E-01 0.28381384E+02</pdfrwt>
<pdfrwt beam="1">  1       -2 0.24566080E-03 0.28381384E+02</pdfrwt>
<totfact> 0.25236479E+06</totfact>
</mgrwt>
</event>
<event>
 4    1  0.1433582E+000  0.2341788E+02  0.7818608E-02  0.1684825E+00
         -2   -1    0    0    0  501 -0.00000000000E+00  0.00000000000E+00  0.14594600768E+01  0.14594623927E+01  0.26000000000E-02 0.  1.
          2   -1    0    0  501    0  0.00000000000E+00 -0.00000000000E+00 -0.93938290408E+02  0.93938290444E+02  0.26000000000E-02 0. -1.
        -11    1    1    2    0    0 -0.76944019523E+01 -0.84612354860E+01 -0.36012065022E+02  0.37784456523E+02  0.51100000000E-03 0. -1.
         11    1    1    2    0    0  0.76944019523E+01  0.84612354860E+01 -0.56466765309E+02  0.57613296313E+02  0.51100000000E-03 0.  1.
<mgrwt>
<rscale>  0 0.23417882E+02</rscale>
<asrwt>0</asrwt>
<pdfrwt beam="2">  1        2 0.14452040E-01 0.23417882E+02</pdfrwt>
<pdfrwt beam="1">  1       -2 0.22453257E-03 0.23417882E+02</pdfrwt>
<totfact> 0.36540665E+06</totfact>
</mgrwt>
</event>
<event>
 4    1  0.1433582E+000  0.2804127E+02  0.7818608E-02  0.1620807E+00
          2   -1    0    0  501    0  0.00000000000E+00  0.00000000000E+00  0.60577545321E+02  0.60577545377E+02  0.26000000000E-02 0. -1.
         -2   -1    0    0    0  501 -0.00000000000E+00 -0.00000000000E+00 -0.32450669945E+01  0.32450680361E+01  0.26000000000E-02 0.  1.
        -11    1    1    2    0    0  0.13549445886E+02 -0.19785609000E+01  0.21809382103E+02  0.25751724894E+02  0.51100000000E-03 0.  1.
         11    1    1    2    0    0 -0.13549445886E+02  0.19785609000E+01  0.35523096224E+02  0.38070888519E+02  0.51100000000E-03 0. -1.
<mgrwt>
<rscale>  0 0.28041272E+02</rscale>
<asrwt>0</asrwt>
<pdfrwt beam="1">  1        2 0.93196212E-02 0.28041272E+02</pdfrwt>
<pdfrwt beam="2">  1       -2 0.49924122E-03 0.28041272E+02</pdfrwt>
<totfact> 0.22048613E+06</totfact>
</mgrwt>
</event>
<event>
 4    1  0.1433582E+000  0.2102266E+02  0.7818608E-02  0.1725724E+00
          2   -1    0    0  501    0  0.00000000000E+00  0.00000000000E+00  0.10206328275E+01  0.10206361392E+01  0.26000000000E-02 0.  1.
         -2   -1    0    0    0  501 -0.00000000000E+00 -0.00000000000E+00 -0.10825426945E+03  0.10825426948E+03  0.26000000000E-02 0. -1.
        -11    1    1    2    0    0  0.10058010048E+02 -0.29655743242E+01 -0.57400440414E+02  0.58350396376E+02  0.51100000000E-03 0. -1.
         11    1    1    2    0    0 -0.10058010048E+02  0.29655743242E+01 -0.49833196208E+02  0.50924509244E+02  0.51100000000E-03 0.  1.
<mgrwt>
<rscale>  0 0.21022659E+02</rscale>
<asrwt>0</asrwt>
<pdfrwt beam="1">  1        2 0.15702078E-03 0.21022659E+02</pdfrwt>
<pdfrwt beam="2">  1       -2 0.16654494E-01 0.21022659E+02</pdfrwt>
<totfact> 0.26127324E+06</totfact>
</mgrwt>
</event>
<event>
 4    1  0.1433582E+000  0.2208999E+02  0.7818608E-02  0.1706700E+00
         -2   -1    0    0    0  501 -0.00000000000E+00  0.00000000000E+00  0.10496882313E+01  0.10496914513E+01  0.26000000000E-02 0. -1.
          2   -1    0    0  501    0  0.00000000000E+00 -0.00000000000E+00 -0.11621714245E+03  0.11621714248E+03  0.26000000000E-02 0.  1.
        -11    1    1    2    0    0 -0.54337829489E+01 -0.96043155289E+01 -0.60091065072E+02  0.61095867091E+02  0.51100000000E-03 0. -1.
         11    1    1    2    0    0  0.54337829489E+01  0.96043155289E+01 -0.55076389150E+02  0.56170966842E+02  0.51100000000E-03 0.  1.
<mgrwt>
<rscale>  0 0.22089994E+02</rscale>
<asrwt>0</asrwt>
<pdfrwt beam="2">  1        2 0.17879550E-01 0.22089994E+02</pdfrwt>
<pdfrwt beam="1">  1       -2 0.16149084E-03 0.22089994E+02</pdfrwt>
<totfact> 0.43831524E+06</totfact>
</mgrwt>
</event>
<event>
 4    1  0.1433582E+000  0.2715182E+03  0.7818608E-02  0.1100414E+00
         -2   -1    0    0    0  501 -0.00000000000E+00  0.00000000000E+00  0.21622595844E+02  0.21622596001E+02  0.26000000000E-02 0.  1.
          2   -1    0    0  501    0  0.00000000000E+00 -0.00000000000E+00 -0.85237351467E+03  0.85237351468E+03  0.26000000000E-02 0. -1.
        -11    1    1    2    0    0  0.12948872525E+03 -0.31870168165E+02 -0.33346727194E+03  0.35914267226E+03  0.51100000000E-03 0.  1.
         11    1    1    2    0    0 -0.12948872525E+03  0.31870168165E+02 -0.49728364689E+03  0.51485343842E+03  0.51100000000E-03 0. -1.
<mgrwt>
<rscale>  0 0.27151816E+03</rscale>
<asrwt>0</asrwt>
<pdfrwt beam="2">  1        2 0.13113436E+00 0.27151816E+03</pdfrwt>
<pdfrwt beam="1">  1       -2 0.33265539E-02 0.27151816E+03</pdfrwt>
<totfact> 0.11806720E+04</totfact>
</mgrwt>
</event>
<event>
 4    1  0.1433582E+000  0.3941824E+02  0.7818608E-02  0.1512537E+00
         -2   -1    0    0    0  501 -0.00000000000E+00  0.00000000000E+00  0.15753260526E+02  0.15753260741E+02  0.26000000000E-02 0. -1.
          2   -1    0    0  501    0  0.00000000000E+00 -0.00000000000E+00 -0.24658348576E+02  0.24658348713E+02  0.26000000000E-02 0.  1.
        -11    1    1    2    0    0  0.19640683790E+01  0.12948425250E+02  0.10647174422E+02  0.16878436079E+02  0.51100000000E-03 0. -1.
         11    1    1    2    0    0 -0.19640683790E+01 -0.12948425250E+02 -0.19552262472E+02  0.23533173375E+02  0.51100000000E-03 0.  1.
<mgrwt>
<rscale>  0 0.39418239E+02</rscale>
<asrwt>0</asrwt>
<pdfrwt beam="2">  1        2 0.37935921E-02 0.39418239E+02</pdfrwt>
<pdfrwt beam="1">  1       -2 0.24235786E-02 0.39418239E+02</pdfrwt>
<totfact> 0.84103572E+05</totfact>
</mgrwt>
</event>
<event>
 4    1  0.1433582E+000  0.2715275E+02  0.7818608E-02  0.1631877E+00
          2   -1    0    0  501    0  0.00000000000E+00  0.00000000000E+00  0.10288340978E+02  0.10288341306E+02  0.26000000000E-02 0.  1.
         -2   -1    0    0    0  501 -0.00000000000E+00 -0.00000000000E+00 -0.17915226567E+02  0.17915226756E+02  0.26000000000E-02 0. -1.
        -11    1    1    2    0    0  0.10713781690E+02 -0.83384701379E+01 -0.37588313526E+01  0.14087015856E+02  0.51100000000E-03 0. -1.
         11    1    1    2    0    0 -0.10713781690E+02  0.83384701379E+01 -0.38680542371E+01  0.14116552206E+02  0.51100000000E-03 0.  1.
<mgrwt>
<rscale>  0 0.27152751E+02</rscale>
<asrwt>0</asrwt>
<pdfrwt beam="1">  1        2 0.15828217E-02 0.27152751E+02</pdfrwt>
<pdfrwt beam="2">  1       -2 0.27561887E-02 0.27152751E+02</pdfrwt>
<totfact> 0.19236544E+06</totfact>
</mgrwt>
</event>
<event>
 4    1  0.1433582E+000  0.2514693E+02  0.7818608E-02  0.1658900E+00
          2   -1    0    0  501    0  0.00000000000E+00  0.00000000000E+00  0.17965686167E+02  0.17965686355E+02  0.26000000000E-02 0. -1.
         -2   -1    0    0    0  501 -0.00000000000E+00 -0.00000000000E+00 -0.87996644821E+01  0.87996648662E+01  0.26000000000E-02 0.  1.
        -11    1    1    2    0    0  0.33524355583E+01  0.10193240705E+02 -0.23924805840E+01  0.10993859370E+02  0.51100000000E-03 0.  1.
         11    1    1    2    0    0 -0.33524355583E+01 -0.10193240705E+02  0.11558502269E+02  0.15771491851E+02  0.51100000000E-03 0. -1.
<mgrwt>
<rscale>  0 0.25146930E+02</rscale>
<asrwt>0</asrwt>
<pdfrwt beam="1">  1        2 0.27639517E-02 0.25146930E+02</pdfrwt>
<pdfrwt beam="2">  1       -2 0.13537946E-02 0.25146930E+02</pdfrwt>
<totfact> 0.24338780E+06</totfact>
</mgrwt>
</event>
<event>
 4    1  0.1433582E+000  0.6201893E+02  0.7818608E-02  0.1389549E+00
         -2   -1    0    0    0  501 -0.00000000000E+00  0.00000000000E+00  0.23194411731E+02  0.23194411877E+02  0.26000000000E-02 0.  1.
          2   -1    0    0  501    0  0.00000000000E+00 -0.00000000000E+00 -0.41457701799E+02  0.41457701880E+02  0.26000000000E-02 0. -1.
        -11    1    1    2    0    0  0.24871302236E+02 -0.90742657827E+01 -0.25962189450E+02  0.37080443036E+02  0.51100000000E-03 0. -1.
         11    1    1    2    0    0 -0.24871302236E+02  0.90742657827E+01  0.76988993824E+01  0.27571670722E+02  0.51100000000E-03 0.  1.
<mgrwt>
<rscale>  0 0.62018933E+02</rscale>
<asrwt>0</asrwt>
<pdfrwt beam="2">  1        2 0.63781080E-02 0.62018933E+02</pdfrwt>
<pdfrwt beam="1">  1       -2 0.35683710E-02 0.62018933E+02</pdfrwt>
<totfact> 0.28106248E+05</totfact>
</mgrwt>
</event>
<event>
 4    1  0.1433582E+000  0.4294687E+02  0.7818608E-02  0.1487582E+00
          2   -1    0    0  501    0  0.00000000000E+00  0.00000000000E+00  0.23756568979E+02  0.23756569121E+02  0.26000000000E-02 0. -1.
         -2   -1    0    0    0  501 -0.00000000000E+00 -0.00000000000E+00 -0.19409722719E+02  0.19409722893E+02  0.26000000000E-02 0.  1.
        -11    1    1    2    0    0  0.20868344457E+02  0.49656707084E+00  0.72364247312E+01  0.22092990345E+02  0.51100000000E-03 0.  1.
         11    1    1    2    0    0 -0.20868344457E+02 -0.49656707084E+00 -0.28895784718E+01  0.21073301669E+02  0.51100000000E-03 0. -1.
<mgrwt>
<rscale>  0 0.42946871E+02</rscale>
<asrwt>0</asrwt>
<pdfrwt beam="1">  1        2 0.36548568E-02 0.42946871E+02</pdfrwt>
<pdfrwt beam="2">  1       -2 0.29861112E-02 0.42946871E+02</pdfrwt>
<totfact> 0.67256223E+05</totfact>
</mgrwt>
</event>
<event>
 4    1  0.1433582E+000  0.2846760E+02  0.7818608E-02  0.1615672E+00
          2   -1    0    0  501    0  0.00000000000E+00  0.00000000000E+00  0.23938868917E+01  0.23938883036E+01  0.26000000000E-02 0. -1.
         -2   -1    0    0    0  501 -0.00000000000E+00 -0.00000000000E+00 -0.84632649338E+02  0.84632649378E+02  0.26000000000E-02 0.  1.
        -11    1    1    2    0    0  0.81010138062E+01 -0.11328099532E+02 -0.32128991588E+02  0.35017486552E+02  0.51100000000E-03 0.  1.
         11    1    1    2    0    0 -0.81010138062E+01  0.11328099532E+02 -0.50109770858E+02  0.52009051130E+02  0.51100000000E-03 0. -1.
<mgrwt>
<rscale>  0 0.28467599E+02</rscale>
<asrwt>0</asrwt>
<pdfrwt beam="1">  1        2 0.36829047E-03 0.28467599E+02</pdfrwt>
<pdfrwt beam="2">  1       -2 0.13020405E-01 0.28467599E+02</pdfrwt>
<totfact> 0.13985405E+06</totfact>
</mgrwt>
</event>
<event>
 4    1  0.1433582E+000  0.2493523E+02  0.7818608E-02  0.1661934E+00
          2   -1    0    0  501    0  0.00000000000E+00  0.00000000000E+00  0.39174840406E+02  0.39174840492E+02  0.26000000000E-02 0. -1.
         -2   -1    0    0    0  501 -0.00000000000E+00 -0.00000000000E+00 -0.39678892895E+01  0.39678901413E+01  0.26000000000E-02 0.  1.
        -11    1    1    2    0    0  0.20764187786E+01  0.12084854871E+02  0.13701435923E+02  0.18387076407E+02  0.51100000000E-03 0.  1.
         11    1    1    2    0    0 -0.20764187786E+01 -0.12084854871E+02  0.21505515193E+02  0.24755654226E+02  0.51100000000E-03 0. -1.
<mgrwt>
<rscale>  0 0.24935232E+02</rscale>
<asrwt>0</asrwt>
<pdfrwt beam="1">  1        2 0.60268983E-02 0.24935232E+02</pdfrwt>
<pdfrwt beam="2">  1       -2 0.61044461E-03 0.24935232E+02</pdfrwt>
<totfact> 0.27085513E+06</totfact>
</mgrwt>
</event>
<event>
 4    1  0.1433582E+000  0.2776454E+02  0.7818608E-02  0.1624200E+00
          2   -1    0    0  501    0  0.00000000000E+00  0.00000000000E+00  0.33232377970E+01  0.33232388140E+01  0.26000000000E-02 0.  1.
         -2   -1    0    0    0  501 -0.00000000000E+00 -0.00000000000E+00 -0.57990832959E+02  0.57990833018E+02  0.26000000000E-02 0. -1.
        -11    1    1    2    0    0  0.12327576903E+02  0.17020477482E+01 -0.40920366904E+02  0.42770814192E+02  0.51100000000E-03 0. -1.
         11    1    1    2    0    0 -0.12327576903E+02 -0.17020477482E+01 -0.13747228258E+02  0.18543257639E+02  0.51100000000E-03 0.  1.
<mgrwt>
<rscale>  0 0.27764536E+02</rscale>
<asrwt>0</asrwt>
<pdfrwt beam="1">  1        2 0.51126748E-03 0.27764536E+02</pdfrwt>
<pdfrwt beam="2">  1       -2 0.89216659E-02 0.27764536E+02</pdfrwt>
<totfact> 0.15893917E+06</totfact>
</mgrwt>
</event>
<event>
 4    1  0.1433582E+000  0.7201881E+02  0.7818608E-02  0.1353359E+00
          2   -1    0    0  501    0  0.00000000000E+00  0.00000000000E+00  0.19690033474E+03  0.19690033476E+03  0.26000000000E-02 0. -1.
         -2   -1    0    0    0  501 -0.00000000000E+00 -0.00000000000E+00 -0.65854496025E+01  0.65854501157E+01  0.26000000000E-02 0.  1.
        -11    1    1    2    0    0  0.29912856785E+02  0.38476750385E+01  0.15074737795E+03  0.15373469213E+03  0.51100000000E-03 0. -1.
         11    1    1    2    0    0 -0.29912856785E+02 -0.38476750385E+01  0.39567507194E+02  0.49751092753E+02  0.51100000000E-03 0.  1.
<mgrwt>
<rscale>  0 0.72018811E+02</rscale>
<asrwt>0</asrwt>
<pdfrwt beam="1">  1        2 0.30292354E-01 0.72018811E+02</pdfrwt>
<pdfrwt beam="2">  1       -2 0.10131463E-02 0.72018811E+02</pdfrwt>
<totfact> 0.28768731E+05</totfact>
</mgrwt>
</event>
<event>
 4    1  0.1433582E+000  0.2568121E+02  0.7818608E-02  0.1651406E+00
         -2   -1    0    0    0  501 -0.00000000000E+00  0.00000000000E+00  0.89024665481E+01  0.89024669278E+01  0.26000000000E-02 0. -1.
          2   -1    0    0  501    0  0.00000000000E+00 -0.00000000000E+00 -0.18520842068E+02  0.18520842250E+02  0.26000000000E-02 0.  1.
        -11    1    1    2    0    0  0.53614060500E+01 -0.11451037051E+02 -0.71993888875E+01  0.14549987113E+02  0.51100000000E-03 0.  1.
         11    1    1    2    0    0 -0.53614060500E+01  0.11451037051E+02 -0.24189866321E+01  0.12873322064E+02  0.51100000000E-03 0. -1.
<mgrwt>
<rscale>  0 0.25681214E+02</rscale>
<asrwt>0</asrwt>
<pdfrwt beam="2">  1        2 0.28493604E-02 0.25681214E+02</pdfrwt>
<pdfrwt beam="1">  1       -2 0.13696103E-02 0.25681214E+02</pdfrwt>
<totfact> 0.23226959E+06</totfact>
</mgrwt>
</event>
<event>
 4    1  0.1433582E+000  0.4713085E+02  0.7818608E-02  0.1461461E+00
          2   -1    0    0  501    0  0.00000000000E+00  0.00000000000E+00  0.10448433839E+02  0.10448434163E+02  0.26000000000E-02 0. -1.
         -2   -1    0    0    0  501 -0.00000000000E+00 -0.00000000000E+00 -0.53149514109E+02  0.53149514172E+02  0.26000000000E-02 0.  1.
        -11    1    1    2    0    0 -0.13101936993E+02 -0.83069382451E+01  0.25859708318E+01  0.15727467100E+02  0.51100000000E-03 0. -1.
         11    1    1    2    0    0  0.13101936993E+02  0.83069382451E+01 -0.45287051101E+02  0.47870481235E+02  0.51100000000E-03 0.  1.
<mgrwt>
<rscale>  0 0.47130847E+02</rscale>
<asrwt>0</asrwt>
<pdfrwt beam="1">  1        2 0.16074514E-02 0.47130847E+02</pdfrwt>
<pdfrwt beam="2">  1       -2 0.81768482E-02 0.47130847E+02</pdfrwt>
<totfact> 0.46477976E+05</totfact>
</mgrwt>
</event>
<event>
 4    1  0.1433582E+000  0.2395548E+02  0.7818608E-02  0.1676474E+00
          2   -1    0    0  501    0  0.00000000000E+00  0.00000000000E+00  0.10243686245E+02  0.10243686575E+02  0.26000000000E-02 0.  1.
         -2   -1    0    0    0  501 -0.00000000000E+00 -0.00000000000E+00 -0.14005334656E+02  0.14005334898E+02  0.26000000000E-02 0. -1.
        -11    1    1    2    0    0  0.84378963542E+01  0.73769458672E+01  0.23957328964E+01  0.11461106473E+02  0.51100000000E-03 0.  1.
         11    1    1    2    0    0 -0.84378963542E+01 -0.73769458672E+01 -0.61573813079E+01  0.12787915000E+02  0.51100000000E-03 0. -1.
<mgrwt>
<rscale>  0 0.23955480E+02</rscale>
<asrwt>0</asrwt>
<pdfrwt beam="1">  1        2 0.15759518E-02 0.23955480E+02</pdfrwt>
<pdfrwt beam="2">  1       -2 0.21546669E-02 0.23955480E+02</pdfrwt>
<totfact> 0.25975445E+06</totfact>
</mgrwt>
</event>
<event>
 4    1  0.1433582E+000  0.4504999E+02  0.7818608E-02  0.1474030E+00
         -2   -1    0    0    0  501 -0.00000000000E+00  0.00000000000E+00  0.71131961144E+02  0.71131961191E+02  0.26000000000E-02 0. -1.
          2   -1    0    0  501    0  0.00000000000E+00 -0.00000000000E+00 -0.71328763868E+01  0.71328768607E+01  0.26000000000E-02 0.  1.
        -11    1    1    2    0    0 -0.24860057863E+01 -0.19643632771E+02  0.13343055751E+02  0.23876550635E+02  0.51100000000E-03 0.  1.
         11    1    1    2    0    0  0.24860057863E+01  0.19643632771E+02  0.50656029006E+02  0.54388287416E+02  0.51100000000E-03 0. -1.
<mgrwt>
<rscale>  0 0.45049995E+02</rscale>
<asrwt>0</asrwt>
<pdfrwt beam="2">  1        2 0.10973656E-02 0.45049995E+02</pdfrwt>
<pdfrwt beam="1">  1       -2 0.10943379E-01 0.45049995E+02</pdfrwt>
<totfact> 0.49065363E+05</totfact>
</mgrwt>
</event>
<event>
 4    1  0.1433582E+000  0.3226178E+02  0.7818608E-02  0.1574354E+00
         -2   -1    0    0    0  501 -0.00000000000E+00  0.00000000000E+00  0.47406383489E+01  0.47406390619E+01  0.26000000000E-02 0.  1.
          2   -1    0    0  501    0  0.00000000000E+00 -0.00000000000E+00 -0.54888289772E+02  0.54888289834E+02  0.26000000000E-02 0. -1.
        -11    1    1    2    0    0 -0.13576528723E+02 -0.79608898607E+01 -0.31610497400E+02  0.35311774887E+02  0.51100000000E-03 0. -1.
         11    1    1    2    0    0  0.13576528723E+02  0.79608898607E+01 -0.18537154023E+02  0.24317154009E+02  0.51100000000E-03 0.  1.
<mgrwt>
<rscale>  0 0.32261776E+02</rscale>
<asrwt>0</asrwt>
<pdfrwt beam="2">  1        2 0.84443519E-02 0.32261776E+02</pdfrwt>
<pdfrwt beam="1">  1       -2 0.72932908E-03 0.32261776E+02</pdfrwt>
<totfact> 0.15520650E+06</totfact>
</mgrwt>
</event>
<event>
 4    1  0.1433582E+000  0.4041199E+02  0.7818608E-02  0.1505201E+00
          2   -1    0    0  501    0  0.00000000000E+00  0.00000000000E+00  0.36088296378E+02  0.36088296472E+02  0.26000000000E-02 0. -1.
         -2   -1    0    0    0  501 -0.00000000000E+00 -0.00000000000E+00 -0.11313422372E+02  0.11313422670E+02  0.26000000000E-02 0.  1.
        -11    1    1    2    0    0 -0.13991791794E+02  0.79178575350E+01  0.26744578821E+02  0.31204730445E+02  0.51100000000E-03 0. -1.
         11    1    1    2    0    0  0.13991791794E+02 -0.79178575350E+01 -0.19697048149E+01  0.16196988697E+02  0.51100000000E-03 0.  1.
<mgrwt>
<rscale>  0 0.40411986E+02</rscale>
<asrwt>0</asrwt>
<pdfrwt beam="1">  1        2 0.55520456E-02 0.40411986E+02</pdfrwt>
<pdfrwt beam="2">  1       -2 0.17405266E-02 0.40411986E+02</pdfrwt>
<totfact> 0.83375916E+05</totfact>
</mgrwt>
</event>
<event>
 4    1  0.1433582E+000  0.2455461E+02  0.7818608E-02  0.1667483E+00
          2   -1    0    0  501    0  0.00000000000E+00  0.00000000000E+00  0.78400186512E+01  0.78400190823E+01  0.26000000000E-02 0.  1.
         -2   -1    0    0    0  501 -0.00000000000E+00 -0.00000000000E+00 -0.19226008216E+02  0.19226008392E+02  0.26000000000E-02 0. -1.
        -11    1    1    2    0    0 -0.28462093549E+01  0.11935152432E+02 -0.52208131602E+01  0.13334378935E+02  0.51100000000E-03 0.  1.
         11    1    1    2    0    0  0.28462093549E+01 -0.11935152432E+02 -0.61651764050E+01  0.13731648540E+02  0.51100000000E-03 0. -1.
<mgrwt>
<rscale>  0 0.24554614E+02</rscale>
<asrwt>0</asrwt>
<pdfrwt beam="1">  1        2 0.12061568E-02 0.24554614E+02</pdfrwt>
<pdfrwt beam="2">  1       -2 0.29578475E-02 0.24554614E+02</pdfrwt>
<totfact> 0.23924347E+06</totfact>
</mgrwt>
</event>
<event>
 4    1  0.1433582E+000  0.3381630E+02  0.7818608E-02  0.1559371E+00
          2   -1    0    0  501    0  0.00000000000E+00  0.00000000000E+00  0.23658046528E+01  0.23658060815E+01  0.26000000000E-02 0. -1.
         -2   -1    0    0    0  501 -0.00000000000E+00 -0.00000000000E+00 -0.12084067694E+03  0.12084067697E+03  0.26000000000E-02 0.  1.
        -11    1    1    2    0    0  0.87059239755E+01  0.13208314392E+02 -0.80986107166E+02  0.82516678529E+02  0.51100000000E-03 0.  1.
         11    1    1    2    0    0 -0.87059239755E+01 -0.13208314392E+02 -0.37488765124E+02  0.40689804523E+02  0.51100000000E-03 0. -1.
<mgrwt>
<rscale>  0 0.33816299E+02</rscale>
<asrwt>0</asrwt>
<pdfrwt beam="1">  1        2 0.36397015E-03 0.33816299E+02</pdfrwt>
<pdfrwt beam="2">  1       -2 0.18590869E-01 0.33816299E+02</pdfrwt>
<totfact> 0.85839708E+05</totfact>
</mgrwt>
</event>
<event>
 4    1  0.1433582E+000  0.4810634E+02  0.7818608E-02  0.1455831E+00
          2   -1    0    0  501    0  0.00000000000E+00  0.00000000000E+00  0.69900965919E+02  0.69900965967E+02  0.26000000000E-02 0.  1.
         -2   -1    0    0    0  501 -0.00000000000E+00 -0.00000000000E+00 -0.82767815444E+01  0.82767819527E+01  0.26000000000E-02 0. -1.
        -11    1    1    2    0    0  0.16560307180E+02 -0.14906689715E+02  0.16087023035E+02  0.27481729977E+02  0.51100000000E-03 0. -1.
         11    1    1    2    0    0 -0.16560307180E+02  0.14906689715E+02  0.45537161339E+02  0.50696017943E+02  0.51100000000E-03 0.  1.
<mgrwt>
<rscale>  0 0.48106342E+02</rscale>
<asrwt>0</asrwt>
<pdfrwt beam="1">  1        2 0.10753994E-01 0.48106342E+02</pdfrwt>
<pdfrwt beam="2">  1       -2 0.12733511E-02 0.48106342E+02</pdfrwt>
<totfact> 0.60611024E+05</totfact>
</mgrwt>
</event>
<event>
 4    1  0.1433582E+000  0.2301408E+02  0.7818608E-02  0.1691282E+00
          2   -1    0    0  501    0  0.00000000000E+00  0.00000000000E+00  0.87537137383E+01  0.87537141245E+01  0.26000000000E-02 0.  1.
         -2   -1    0    0    0  501 -0.00000000000E+00 -0.00000000000E+00 -0.15126374528E+02  0.15126374752E+02  0.26000000000E-02 0. -1.
        -11    1    1    2    0    0  0.17652620690E+01 -0.11364301381E+02 -0.35861390328E+01  0.12046737711E+02  0.51100000000E-03 0. -1.
         11    1    1    2    0    0 -0.17652620690E+01  0.11364301381E+02 -0.27865217573E+01  0.11833351166E+02  0.51100000000E-03 0.  1.
<mgrwt>
<rscale>  0 0.23014079E+02</rscale>
<asrwt>0</asrwt>
<pdfrwt beam="1">  1        2 0.13467252E-02 0.23014079E+02</pdfrwt>
<pdfrwt beam="2">  1       -2 0.23271346E-02 0.23014079E+02</pdfrwt>
<totfact> 0.28183440E+06</totfact>
</mgrwt>
</event>
<event>
 4    1  0.1433582E+000  0.2075777E+02  0.7818608E-02  0.1730666E+00
         -2   -1    0    0    0  501 -0.00000000000E+00  0.00000000000E+00  0.54717744514E+01  0.54717750692E+01  0.26000000000E-02 0. -1.
          2   -1    0    0  501    0  0.00000000000E+00 -0.00000000000E+00 -0.19686720748E+02  0.19686720919E+02  0.26000000000E-02 0.  1.
        -11    1    1    2    0    0  0.53365742071E+00  0.10326625214E+02 -0.60252369983E+01  0.11967767532E+02  0.51100000000E-03 0. -1.
         11    1    1    2    0    0 -0.53365742071E+00 -0.10326625214E+02 -0.81897092980E+01  0.13190728456E+02  0.51100000000E-03 0.  1.
<mgrwt>
<rscale>  0 0.20757775E+02</rscale>
<asrwt>0</asrwt>
<pdfrwt beam="2">  1        2 0.30287263E-02 0.20757775E+02</pdfrwt>
<pdfrwt beam="1">  1       -2 0.84181153E-03 0.20757775E+02</pdfrwt>
<totfact> 0.38257611E+06</totfact>
</mgrwt>
</event>
<event>
 4    1  0.1433582E+000  0.2304942E+02  0.7818608E-02  0.1690710E+00
          2   -1    0    0  501    0  0.00000000000E+00  0.00000000000E+00  0.84726051917E+01  0.84726055906E+01  0.26000000000E-02 0. -1.
         -2   -1    0    0    0  501 -0.00000000000E+00 -0.00000000000E+00 -0.15676280429E+02  0.15676280645E+02  0.26000000000E-02 0.  1.
        -11    1    1    2    0    0  0.10300768425E+02  0.15249373762E+01  0.15721135657E+01  0.10531040094E+02  0.51100000000E-03 0. -1.
         11    1    1    2    0    0 -0.10300768425E+02 -0.15249373762E+01 -0.87757888031E+01  0.13617846141E+02  0.51100000000E-03 0.  1.
<mgrwt>
<rscale>  0 0.23049420E+02</rscale>
<asrwt>0</asrwt>
<pdfrwt beam="1">  1        2 0.13034778E-02 0.23049420E+02</pdfrwt>
<pdfrwt beam="2">  1       -2 0.24117355E-02 0.23049420E+02</pdfrwt>
<totfact> 0.28005124E+06</totfact>
</mgrwt>
</event>
<event>
 4    1  0.1433582E+000  0.2383556E+02  0.7818608E-02  0.1678313E+00
          2   -1    0    0  501    0  0.00000000000E+00  0.00000000000E+00  0.35906758153E+01  0.35906767567E+01  0.26000000000E-02 0.  1.
         -2   -1    0    0    0  501 -0.00000000000E+00 -0.00000000000E+00 -0.39556179826E+02  0.39556179912E+02  0.26000000000E-02 0. -1.
        -11    1    1    2    0    0 -0.52469663947E+01 -0.95426033178E+01 -0.26747039494E+02  0.28878989879E+02  0.51100000000E-03 0. -1.
         11    1    1    2    0    0  0.52469663947E+01  0.95426033178E+01 -0.92184645164E+01  0.14267866790E+02  0.51100000000E-03 0.  1.
<mgrwt>
<rscale>  0 0.23835557E+02</rscale>
<asrwt>0</asrwt>
<pdfrwt beam="1">  1        2 0.55241177E-03 0.23835557E+02</pdfrwt>
<pdfrwt beam="2">  1       -2 0.60855659E-02 0.23835557E+02</pdfrwt>
<totfact> 0.23715597E+06</totfact>
</mgrwt>
</event>
<event>
 4    1  0.1433582E+000  0.4925368E+02  0.7818608E-02  0.1449409E+00
          2   -1    0    0  501    0  0.00000000000E+00  0.00000000000E+00  0.37218364611E+01  0.37218373693E+01  0.26000000000E-02 0. -1.
         -2   -1    0    0    0  501 -0.00000000000E+00 -0.00000000000E+00 -0.16295214880E+03  0.16295214883E+03  0.26000000000E-02 0.  1.
        -11    1    1    2    0    0 -0.19498177382E+02 -0.11109576817E+02 -0.11393884616E+03  0.11612778429E+03  0.51100000000E-03 0.  1.
         11    1    1    2    0    0  0.19498177382E+02  0.11109576817E+02 -0.45291466183E+02  0.50546201910E+02  0.51100000000E-03 0. -1.
<mgrwt>
<rscale>  0 0.49253683E+02</rscale>
<asrwt>0</asrwt>
<pdfrwt beam="1">  1        2 0.57259042E-03 0.49253683E+02</pdfrwt>
<pdfrwt beam="2">  1       -2 0.25069556E-01 0.49253683E+02</pdfrwt>
<totfact> 0.31636492E+05</totfact>
</mgrwt>
</event>
<event>
 4    1  0.1433582E+000  0.2349252E+02  0.7818608E-02  0.1683649E+00
         -2   -1    0    0    0  501 -0.00000000000E+00  0.00000000000E+00  0.21333473909E+01  0.21333489752E+01  0.26000000000E-02 0.  1.
          2   -1    0    0  501    0  0.00000000000E+00 -0.00000000000E+00 -0.64675158635E+02  0.64675158687E+02  0.26000000000E-02 0. -1.
        -11    1    1    2    0    0 -0.79241720059E+01  0.84514191870E+01 -0.36782084848E+02  0.38563463982E+02  0.51100000000E-03 0.  1.
         11    1    1    2    0    0  0.79241720059E+01 -0.84514191870E+01 -0.25759726396E+02  0.28245043680E+02  0.51100000000E-03 0. -1.
<mgrwt>
<rscale>  0 0.23492521E+02</rscale>
<asrwt>0</asrwt>
<pdfrwt beam="2">  1        2 0.99500231E-02 0.23492521E+02</pdfrwt>
<pdfrwt beam="1">  1       -2 0.32820747E-03 0.23492521E+02</pdfrwt>
<totfact> 0.33627950E+06</totfact>
</mgrwt>
</event>
<event>
 4    1  0.1433582E+000  0.5523253E+02  0.7818608E-02  0.1419002E+00
          2   -1    0    0  501    0  0.00000000000E+00  0.00000000000E+00  0.20941347690E+02  0.20941347851E+02  0.26000000000E-02 0.  1.
         -2   -1    0    0    0  501 -0.00000000000E+00 -0.00000000000E+00 -0.36418763142E+02  0.36418763234E+02  0.26000000000E-02 0. -1.
        -11    1    1    2    0    0  0.17159220338E+02  0.26363492099E+01  0.14565773180E+02  0.22661662083E+02  0.51100000000E-03 0.  1.
         11    1    1    2    0    0 -0.17159220338E+02 -0.26363492099E+01 -0.30043188632E+02  0.34698449003E+02  0.51100000000E-03 0. -1.
<mgrwt>
<rscale>  0 0.55232526E+02</rscale>
<asrwt>0</asrwt>
<pdfrwt beam="1">  1        2 0.32217458E-02 0.55232526E+02</pdfrwt>
<pdfrwt beam="2">  1       -2 0.56028867E-02 0.55232526E+02</pdfrwt>
<totfact> 0.33939842E+05</totfact>
</mgrwt>
</event>
<event>
 4    1  0.1433582E+000  0.2738170E+02  0.7818608E-02  0.1628975E+00
          2   -1    0    0  501    0  0.00000000000E+00  0.00000000000E+00  0.29150347114E+02  0.29150347230E+02  0.26000000000E-02 0. -1.
         -2   -1    0    0    0  501 -0.00000000000E+00 -0.00000000000E+00 -0.64300910075E+01  0.64300915331E+01  0.26000000000E-02 0.  1.
        -11    1    1    2    0    0 -0.88815709163E+01 -0.58530565244E+01  0.22560742123E+02  0.24942487006E+02  0.51100000000E-03 0. -1.
         11    1    1    2    0    0  0.88815709163E+01  0.58530565244E+01  0.15951398329E+00  0.10637951757E+02  0.51100000000E-03 0.  1.
<mgrwt>
<rscale>  0 0.27381702E+02</rscale>
<asrwt>0</asrwt>
<pdfrwt beam="1">  1        2 0.44846688E-02 0.27381702E+02</pdfrwt>
<pdfrwt beam="2">  1       -2 0.98924483E-03 0.27381702E+02</pdfrwt>
<totfact> 0.20945845E+06</totfact>
</mgrwt>
</event>
<event>
 4    1  0.1433582E+000  0.2888625E+02  0.7818608E-02  0.1610736E+00
         -2   -1    0    0    0  501 -0.00000000000E+00  0.00000000000E+00  0.54422737748E+01  0.54422743959E+01  0.26000000000E-02 0. -1.
          2   -1    0    0  501    0  0.00000000000E+00 -0.00000000000E+00 -0.38330261948E+02  0.38330262036E+02  0.26000000000E-02 0.  1.
        -11    1    1    2    0    0 -0.10078718479E+02  0.63600493372E+01 -0.40799745753E+01  0.12596705385E+02  0.51100000000E-03 0. -1.
         11    1    1    2    0    0  0.10078718479E+02 -0.63600493372E+01 -0.28808013597E+02  0.31175831047E+02  0.51100000000E-03 0.  1.
<mgrwt>
<rscale>  0 0.28886246E+02</rscale>
<asrwt>0</asrwt>
<pdfrwt beam="2">  1        2 0.58969633E-02 0.28886246E+02</pdfrwt>
<pdfrwt beam="1">  1       -2 0.83727297E-03 0.28886246E+02</pdfrwt>
<totfact> 0.19112129E+06</totfact>
</mgrwt>
</event>
<event>
 4    1  0.1433582E+000  0.4292446E+02  0.7818608E-02  0.1487731E+00
          2   -1    0    0  501    0  0.00000000000E+00  0.00000000000E+00  0.84843654440E+01  0.84843658424E+01  0.26000000000E-02 0. -1.
         -2   -1    0    0    0  501 -0.00000000000E+00 -0.00000000000E+00 -0.54291297648E+02  0.54291297710E+02  0.26000000000E-02 0.  1.
        -11    1    1    2    0    0 -0.14479489410E+02  0.15225598453E+02 -0.29303793965E+02  0.36058103151E+02  0.51100000000E-03 0.  1.
         11    1    1    2    0    0  0.14479489410E+02 -0.15225598453E+02 -0.16503138238E+02  0.26717560401E+02  0.51100000000E-03 0. -1.
<mgrwt>
<rscale>  0 0.42924456E+02</rscale>
<asrwt>0</asrwt>
<pdfrwt beam="1">  1        2 0.13052871E-02 0.42924456E+02</pdfrwt>
<pdfrwt beam="2">  1       -2 0.83525072E-02 0.42924456E+02</pdfrwt>
<totfact> 0.57919793E+05</totfact>
</mgrwt>
</event>
<event>
 4    1  0.1433582E+000  0.2799372E+02  0.7818608E-02  0.1621386E+00
          2   -1    0    0  501    0  0.00000000000E+00  0.00000000000E+00  0.44249276700E+01  0.44249284339E+01  0.26000000000E-02 0. -1.
         -2   -1    0    0    0  501 -0.00000000000E+00 -0.00000000000E+00 -0.44274648925E+02  0.44274649001E+02  0.26000000000E-02 0.  1.
        -11    1    1    2    0    0 -0.59375567841E+01 -0.10412261198E+02 -0.73507875051E+01  0.14060719790E+02  0.51100000000E-03 0. -1.
         11    1    1    2    0    0  0.59375567841E+01  0.10412261198E+02 -0.32498933750E+02  0.34638857645E+02  0.51100000000E-03 0.  1.
<mgrwt>
<rscale>  0 0.27993724E+02</rscale>
<asrwt>0</asrwt>
<pdfrwt beam="1">  1        2 0.68075820E-03 0.27993724E+02</pdfrwt>
<pdfrwt beam="2">  1       -2 0.68114842E-02 0.27993724E+02</pdfrwt>
<totfact> 0.16238136E+06</totfact>
</mgrwt>
</event>
<event>
 4    1  0.1433582E+000  0.4381655E+02  0.7818608E-02  0.1481868E+00
         -2   -1    0    0    0  501 -0.00000000000E+00  0.00000000000E+00  0.15196743349E+02  0.15196743571E+02  0.26000000000E-02 0. -1.
          2   -1    0    0  501    0  0.00000000000E+00 -0.00000000000E+00 -0.31583911471E+02  0.31583911578E+02  0.26000000000E-02 0.  1.
        -11    1    1    2    0    0 -0.16156817215E+02  0.82883600693E+01  0.48925292116E+01  0.18806288775E+02  0.51100000000E-03 0. -1.
         11    1    1    2    0    0  0.16156817215E+02 -0.82883600693E+01 -0.21279697333E+02  0.27974366374E+02  0.51100000000E-03 0.  1.
<mgrwt>
<rscale>  0 0.43816554E+02</rscale>
<asrwt>0</asrwt>
<pdfrwt beam="2">  1        2 0.48590633E-02 0.43816554E+02</pdfrwt>
<pdfrwt beam="1">  1       -2 0.23379605E-02 0.43816554E+02</pdfrwt>
<totfact> 0.66577973E+05</totfact>
</mgrwt>
</event>
<event>
 4    1  0.1433582E+000  0.4294697E+02  0.7818608E-02  0.1487581E+00
         -2   -1    0    0    0  501 -0.00000000000E+00  0.00000000000E+00  0.69313619528E+02  0.69313619576E+02  0.26000000000E-02 0. -1.
          2   -1    0    0  501    0  0.00000000000E+00 -0.00000000000E+00 -0.66525248689E+01  0.66525253770E+01  0.26000000000E-02 0.  1.
        -11    1    1    2    0    0 -0.18379693667E+02 -0.24252126505E+01  0.12163694162E+02  0.22173187674E+02  0.51100000000E-03 0.  1.
         11    1    1    2    0    0  0.18379693667E+02  0.24252126505E+01  0.50497400497E+02  0.53792957279E+02  0.51100000000E-03 0. -1.
<mgrwt>
<rscale>  0 0.42946972E+02</rscale>
<asrwt>0</asrwt>
<pdfrwt beam="2">  1        2 0.10234654E-02 0.42946972E+02</pdfrwt>
<pdfrwt beam="1">  1       -2 0.10663634E-01 0.42946972E+02</pdfrwt>
<totfact> 0.55324907E+05</totfact>
</mgrwt>
</event>
<event>
 4    1  0.1433582E+000  0.2944789E+02  0.7818608E-02  0.1604273E+00
         -2   -1    0    0    0  501 -0.00000000000E+00  0.00000000000E+00  0.96425087701E+01  0.96425091207E+01  0.26000000000E-02 0. -1.
          2   -1    0    0  501    0  0.00000000000E+00 -0.00000000000E+00 -0.22483214854E+02  0.22483215005E+02  0.26000000000E-02 0.  1.
        -11    1    1    2    0    0 -0.99732989398E+01  0.64494328889E+01  0.30734560718E+01  0.12268170557E+02  0.51100000000E-03 0. -1.
         11    1    1    2    0    0  0.99732989398E+01 -0.64494328889E+01 -0.15914162156E+02  0.19857553568E+02  0.51100000000E-03 0.  1.
<mgrwt>
<rscale>  0 0.29447893E+02</rscale>
<asrwt>0</asrwt>
<pdfrwt beam="2">  1        2 0.34589562E-02 0.29447893E+02</pdfrwt>
<pdfrwt beam="1">  1       -2 0.14834629E-02 0.29447893E+02</pdfrwt>
<totfact> 0.17092241E+06</totfact>
</mgrwt>
</event>
<event>
 4    1  0.1433582E+000  0.2805630E+02  0.7818608E-02  0.1620624E+00
          2   -1    0    0  501    0  0.00000000000E+00  0.00000000000E+00  0.13770351822E+02  0.13770352067E+02  0.26000000000E-02 0.  1.
         -2   -1    0    0    0  501 -0.00000000000E+00 -0.00000000000E+00 -0.14290773901E+02  0.14290774137E+02  0.26000000000E-02 0. -1.
        -11    1    1    2    0    0 -0.12452554729E+02 -0.11643638587E+01  0.60943949814E+01  0.13912710481E+02  0.51100000000E-03 0.  1.
         11    1    1    2    0    0  0.12452554729E+02  0.11643638587E+01 -0.66148170605E+01  0.14148415723E+02  0.51100000000E-03 0. -1.
<mgrwt>
<rscale>  0 0.28056300E+02</rscale>
<asrwt>0</asrwt>
<pdfrwt beam="1">  1        2 0.21185157E-02 0.28056300E+02</pdfrwt>
<pdfrwt beam="2">  1       -2 0.21985806E-02 0.28056300E+02</pdfrwt>
<totfact> 0.18270957E+06</totfact>
</mgrwt>
</event>
<event>
 4    1  0.1433582E+000  0.3697974E+02  0.7818608E-02  0.1531691E+00
         -2   -1    0    0    0  501 -0.00000000000E+00  0.00000000000E+00  0.55453728864E+01  0.55453734959E+01  0.26000000000E-02 0.  1.
          2   -1    0    0  501    0  0.00000000000E+00 -0.00000000000E+00 -0.61650536872E+02  0.61650536926E+02  0.26000000000E-02 0. -1.
        -11    1    1    2    0    0 -0.10648090310E+02  0.19581953745E+01 -0.81673913189E+00  0.10857413110E+02  0.51100000000E-03 0.  1.
         11    1    1    2    0    0  0.10648090310E+02 -0.19581953745E+01 -0.55288424853E+02  0.56338497312E+02  0.51100000000E-03 0. -1.
<mgrwt>
<rscale>  0 0.36979737E+02</rscale>
<asrwt>0</asrwt>
<pdfrwt beam="2">  1        2 0.94846976E-02 0.36979737E+02</pdfrwt>
<pdfrwt beam="1">  1       -2 0.85313438E-03 0.36979737E+02</pdfrwt>
<totfact> 0.11383856E+06</totfact>
</mgrwt>
</event>
<event>
 4    1  0.1433582E+000  0.2333018E+02  0.7818608E-02  0.1686213E+00
          2   -1    0    0  501    0  0.00000000000E+00  0.00000000000E+00  0.27470890005E+02  0.27470890128E+02  0.26000000000E-02 0.  1.
         -2   -1    0    0    0  501 -0.00000000000E+00 -0.00000000000E+00 -0.49533990287E+01  0.49533997111E+01  0.26000000000E-02 0. -1.
        -11    1    1    2    0    0  0.81653078047E+01 -0.83136081736E+01  0.10515546221E+02  0.15696020037E+02  0.51100000000E-03 0.  1.
         11    1    1    2    0    0 -0.81653078047E+01  0.83136081736E+01  0.12001944755E+02  0.16728269802E+02  0.51100000000E-03 0. -1.
<mgrwt>
<rscale>  0 0.23330177E+02</rscale>
<asrwt>0</asrwt>
<pdfrwt beam="1">  1        2 0.42262909E-02 0.23330177E+02</pdfrwt>
<pdfrwt beam="2">  1       -2 0.76206144E-03 0.23330177E+02</pdfrwt>
<totfact> 0.30255263E+06</totfact>
</mgrwt>
</event>
<event>
 4    1  0.1433582E+000  0.2392030E+02  0.7818608E-02  0.1677012E+00
          2   -1    0    0  501    0  0.00000000000E+00  0.00000000000E+00  0.67725898233E+02  0.67725898283E+02  0.26000000000E-02 0.  1.
         -2   -1    0    0    0  501 -0.00000000000E+00 -0.00000000000E+00 -0.21121189044E+01  0.21121205047E+01  0.26000000000E-02 0. -1.
        -11    1    1    2    0    0 -0.77069627963E+01 -0.84949654737E+01  0.42700670168E+02  0.44214352274E+02  0.51100000000E-03 0.  1.
         11    1    1    2    0    0  0.77069627963E+01  0.84949654737E+01  0.22913109160E+02  0.25623666514E+02  0.51100000000E-03 0. -1.
<mgrwt>
<rscale>  0 0.23920302E+02</rscale>
<asrwt>0</asrwt>
<pdfrwt beam="1">  1        2 0.10419369E-01 0.23920302E+02</pdfrwt>
<pdfrwt beam="2">  1       -2 0.32494149E-03 0.23920302E+02</pdfrwt>
<totfact> 0.32545757E+06</totfact>
</mgrwt>
</event>
<event>
 4    1  0.1433582E+000  0.4757721E+02  0.7818608E-02  0.1458865E+00
         -2   -1    0    0    0  501 -0.00000000000E+00  0.00000000000E+00  0.67430139088E+02  0.67430139138E+02  0.26000000000E-02 0. -1.
          2   -1    0    0  501    0  0.00000000000E+00 -0.00000000000E+00 -0.83923554577E+01  0.83923558604E+01  0.26000000000E-02 0.  1.
        -11    1    1    2    0    0 -0.47766569071E+01  0.23255564433E+02  0.31914698785E+02  0.39776698294E+02  0.51100000000E-03 0.  1.
         11    1    1    2    0    0  0.47766569071E+01 -0.23255564433E+02  0.27123084845E+02  0.36045796705E+02  0.51100000000E-03 0. -1.
<mgrwt>
<rscale>  0 0.47577209E+02</rscale>
<asrwt>0</asrwt>
<pdfrwt beam="2">  1        2 0.12911316E-02 0.47577209E+02</pdfrwt>
<pdfrwt beam="1">  1       -2 0.10373868E-01 0.47577209E+02</pdfrwt>
<totfact> 0.43475115E+05</totfact>
</mgrwt>
</event>
<event>
 4    1  0.1433582E+000  0.3034784E+02  0.7818608E-02  0.1594275E+00
         -2   -1    0    0    0  501 -0.00000000000E+00  0.00000000000E+00  0.20439866719E+02  0.20439866884E+02  0.26000000000E-02 0. -1.
          2   -1    0    0  501    0  0.00000000000E+00 -0.00000000000E+00 -0.11264647377E+02  0.11264647677E+02  0.26000000000E-02 0.  1.
        -11    1    1    2    0    0 -0.15110126029E+02 -0.71280766932E+00  0.33409950423E+01  0.15491489649E+02  0.51100000000E-03 0. -1.
         11    1    1    2    0    0  0.15110126029E+02  0.71280766932E+00  0.58342242995E+01  0.16213024913E+02  0.51100000000E-03 0.  1.
<mgrwt>
<rscale>  0 0.30347843E+02</rscale>
<asrwt>0</asrwt>
<pdfrwt beam="2">  1        2 0.17330227E-02 0.30347843E+02</pdfrwt>
<pdfrwt beam="1">  1       -2 0.31445949E-02 0.30347843E+02</pdfrwt>
<totfact> 0.14775489E+06</totfact>
</mgrwt>
</event>
<event>
 4    1  0.1433582E+000  0.2551355E+02  0.7818608E-02  0.1653733E+00
          2   -1    0    0  501    0  0.00000000000E+00  0.00000000000E+00  0.16359758256E+02  0.16359758462E+02  0.26000000000E-02 0.  1.
         -2   -1    0    0    0  501 -0.00000000000E+00 -0.00000000000E+00 -0.99472915543E+01  0.99472918941E+01  0.26000000000E-02 0. -1.
        -11    1    1    2    0    0  0.11822874418E+02 -0.40036089109E+01  0.49264452465E+00  0.12492075196E+02  0.51100000000E-03 0. -1.
         11    1    1    2    0    0 -0.11822874418E+02  0.40036089109E+01  0.59198221769E+01  0.13814975160E+02  0.51100000000E-03 0.  1.
<mgrwt>
<rscale>  0 0.25513549E+02</rscale>
<asrwt>0</asrwt>
<pdfrwt beam="1">  1        2 0.25168859E-02 0.25513549E+02</pdfrwt>
<pdfrwt beam="2">  1       -2 0.15303526E-02 0.25513549E+02</pdfrwt>
<totfact> 0.23314535E+06</totfact>
</mgrwt>
</event>
<event>
 4    1  0.1433582E+000  0.2349838E+02  0.7818608E-02  0.1683557E+00
         -2   -1    0    0    0  501 -0.00000000000E+00  0.00000000000E+00  0.19402136050E+01  0.19402153470E+01  0.26000000000E-02 0. -1.
          2   -1    0    0  501    0  0.00000000000E+00 -0.00000000000E+00 -0.71148570651E+02  0.71148570698E+02  0.26000000000E-02 0.  1.
        -11    1    1    2    0    0 -0.29630513258E+01 -0.10961549511E+02 -0.43991252403E+02  0.45433088483E+02  0.51100000000E-03 0.  1.
         11    1    1    2    0    0  0.29630513258E+01  0.10961549511E+02 -0.25217104643E+02  0.27655697562E+02  0.51100000000E-03 0. -1.
<mgrwt>
<rscale>  0 0.23498382E+02</rscale>
<asrwt>0</asrwt>
<pdfrwt beam="2">  1        2 0.10945932E-01 0.23498382E+02</pdfrwt>
<pdfrwt beam="1">  1       -2 0.29849459E-03 0.23498382E+02</pdfrwt>
<totfact> 0.34214940E+06</totfact>
</mgrwt>
</event>
<event>
 4    1  0.1433582E+000  0.3681465E+02  0.7818608E-02  0.1533052E+00
          2   -1    0    0  501    0  0.00000000000E+00  0.00000000000E+00  0.31713593638E+02  0.31713593745E+02  0.26000000000E-02 0. -1.
         -2   -1    0    0    0  501 -0.00000000000E+00 -0.00000000000E+00 -0.10684046716E+02  0.10684047033E+02  0.26000000000E-02 0.  1.
        -11    1    1    2    0    0  0.50137600807E+01 -0.13065477539E+02 -0.32562544669E+01  0.14368287542E+02  0.51100000000E-03 0.  1.
         11    1    1    2    0    0 -0.50137600807E+01  0.13065477539E+02  0.24285801389E+02  0.28029353236E+02  0.51100000000E-03 0. -1.
<mgrwt>
<rscale>  0 0.36814645E+02</rscale>
<asrwt>0</asrwt>
<pdfrwt beam="1">  1        2 0.48790144E-02 0.36814645E+02</pdfrwt>
<pdfrwt beam="2">  1       -2 0.16436995E-02 0.36814645E+02</pdfrwt>
<totfact> 0.10327373E+06</totfact>
</mgrwt>
</event>
<event>
 4    1  0.1433582E+000  0.2516316E+02  0.7818608E-02  0.1658669E+00
          2   -1    0    0  501    0  0.00000000000E+00  0.00000000000E+00  0.11552040562E+02  0.11552040854E+02  0.26000000000E-02 0. -1.
         -2   -1    0    0    0  501 -0.00000000000E+00 -0.00000000000E+00 -0.13702871221E+02  0.13702871467E+02  0.26000000000E-02 0.  1.
        -11    1    1    2    0    0  0.26499653270E+01  0.12258726757E+02 -0.73058086663E-01  0.12542090563E+02  0.51100000000E-03 0.  1.
         11    1    1    2    0    0 -0.26499653270E+01 -0.12258726757E+02 -0.20777725720E+01  0.12712821759E+02  0.51100000000E-03 0. -1.
<mgrwt>
<rscale>  0 0.25163158E+02</rscale>
<asrwt>0</asrwt>
<pdfrwt beam="1">  1        2 0.17772371E-02 0.25163158E+02</pdfrwt>
<pdfrwt beam="2">  1       -2 0.21081341E-02 0.25163158E+02</pdfrwt>
<totfact> 0.23350795E+06</totfact>
</mgrwt>
</event>
<event>
 4    1  0.1433582E+000  0.3273774E+02  0.7818608E-02  0.1569659E+00
          2   -1    0    0  501    0  0.00000000000E+00  0.00000000000E+00  0.12458894653E+02  0.12458894924E+02  0.26000000000E-02 0.  1.
         -2   -1    0    0    0  501 -0.00000000000E+00 -0.00000000000E+00 -0.21505905991E+02  0.21505906149E+02  0.26000000000E-02 0. -1.
        -11    1    1    2    0    0 -0.12581576937E+02 -0.10280087210E+02 -0.24580171976E+01  0.16432228092E+02  0.51100000000E-03 0.  1.
         11    1    1    2    0    0  0.12581576937E+02  0.10280087210E+02 -0.65889941410E+01  0.17532572981E+02  0.51100000000E-03 0. -1.
<mgrwt>
<rscale>  0 0.32737735E+02</rscale>
<asrwt>0</asrwt>
<pdfrwt beam="1">  1        2 0.19167531E-02 0.32737735E+02</pdfrwt>
<pdfrwt beam="2">  1       -2 0.33086009E-02 0.32737735E+02</pdfrwt>
<totfact> 0.12365544E+06</totfact>
</mgrwt>
</event>
<event>
 4    1  0.1433582E+000  0.3399572E+02  0.7818608E-02  0.1557704E+00
          2   -1    0    0  501    0  0.00000000000E+00  0.00000000000E+00  0.24555352863E+02  0.24555353000E+02  0.26000000000E-02 0. -1.
         -2   -1    0    0    0  501 -0.00000000000E+00 -0.00000000000E+00 -0.11766364807E+02  0.11766365094E+02  0.26000000000E-02 0.  1.
        -11    1    1    2    0    0  0.14828268195E+02 -0.82951784819E+01  0.69176093570E+01  0.18345049555E+02  0.51100000000E-03 0.  1.
         11    1    1    2    0    0 -0.14828268195E+02  0.82951784819E+01  0.58713786987E+01  0.17976668540E+02  0.51100000000E-03 0. -1.
<mgrwt>
<rscale>  0 0.33995720E+02</rscale>
<asrwt>0</asrwt>
<pdfrwt beam="1">  1        2 0.37777466E-02 0.33995720E+02</pdfrwt>
<pdfrwt beam="2">  1       -2 0.18102100E-02 0.33995720E+02</pdfrwt>
<totfact> 0.12164832E+06</totfact>
</mgrwt>
</event>
<event>
 4    1  0.1433582E+000  0.3250603E+02  0.7818608E-02  0.1571933E+00
         -2   -1    0    0    0  501 -0.00000000000E+00  0.00000000000E+00  0.12062677188E+02  0.12062677469E+02  0.26000000000E-02 0. -1.
          2   -1    0    0  501    0  0.00000000000E+00 -0.00000000000E+00 -0.21898998779E+02  0.21898998933E+02  0.26000000000E-02 0.  1.
        -11    1    1    2    0    0  0.12470746454E+02 -0.44036592776E+01  0.49520492786E+01  0.14122128893E+02  0.51100000000E-03 0. -1.
         11    1    1    2    0    0 -0.12470746454E+02  0.44036592776E+01 -0.14788370869E+02  0.19839547509E+02  0.51100000000E-03 0.  1.
<mgrwt>
<rscale>  0 0.32506034E+02</rscale>
<asrwt>0</asrwt>
<pdfrwt beam="2">  1        2 0.33690768E-02 0.32506034E+02</pdfrwt>
<pdfrwt beam="1">  1       -2 0.18557965E-02 0.32506034E+02</pdfrwt>
<totfact> 0.13398625E+06</totfact>
</mgrwt>
</event>
<event>
 4    1  0.1433582E+000  0.2763733E+02  0.7818608E-02  0.1625776E+00
          2   -1    0    0  501    0  0.00000000000E+00  0.00000000000E+00  0.85059454751E+02  0.85059454791E+02  0.26000000000E-02 0. -1.
         -2   -1    0    0    0  501 -0.00000000000E+00 -0.00000000000E+00 -0.22449638911E+01  0.22449653967E+01  0.26000000000E-02 0.  1.
        -11    1    1    2    0    0 -0.44276684009E+01  0.11879611686E+02  0.24040002304E+02  0.27178137028E+02  0.51100000000E-03 0.  1.
         11    1    1    2    0    0  0.44276684009E+01 -0.11879611686E+02  0.58774488556E+02  0.60126283160E+02  0.51100000000E-03 0. -1.
<mgrwt>
<rscale>  0 0.27637328E+02</rscale>
<asrwt>0</asrwt>
<pdfrwt beam="1">  1        2 0.13086069E-01 0.27637328E+02</pdfrwt>
<pdfrwt beam="2">  1       -2 0.34537920E-03 0.27637328E+02</pdfrwt>
<totfact> 0.24406798E+06</totfact>
</mgrwt>
</event>
<event>
 4    1  0.1433582E+000  0.3062291E+02  0.7818608E-02  0.1591304E+00
         -2   -1    0    0    0  501 -0.00000000000E+00  0.00000000000E+00  0.44151928608E+02  0.44151928685E+02  0.26000000000E-02 0.  1.
          2   -1    0    0  501    0  0.00000000000E+00 -0.00000000000E+00 -0.53098616919E+01  0.53098623285E+01  0.26000000000E-02 0. -1.
        -11    1    1    2    0    0 -0.82217027281E+01 -0.75282225666E+01  0.24676925430E+01  0.11417532024E+02  0.51100000000E-03 0. -1.
         11    1    1    2    0    0  0.82217027281E+01  0.75282225666E+01  0.36374374374E+02  0.38044258990E+02  0.51100000000E-03 0.  1.
<mgrwt>
<rscale>  0 0.30622910E+02</rscale>
<asrwt>0</asrwt>
<pdfrwt beam="2">  1        2 0.81690188E-03 0.30622910E+02</pdfrwt>
<pdfrwt beam="1">  1       -2 0.67926042E-02 0.30622910E+02</pdfrwt>
<totfact> 0.13216616E+06</totfact>
</mgrwt>
</event>
<event>
 4    1  0.1433582E+000  0.2755379E+02  0.7818608E-02  0.1626817E+00
         -2   -1    0    0    0  501 -0.00000000000E+00  0.00000000000E+00  0.29001074474E+01  0.29001086128E+01  0.26000000000E-02 0. -1.
          2   -1    0    0  501    0  0.00000000000E+00 -0.00000000000E+00 -0.65446820327E+02  0.65446820379E+02  0.26000000000E-02 0.  1.
        -11    1    1    2    0    0  0.12283679391E+02 -0.62257257372E+01 -0.32248072723E+02  0.35065462138E+02  0.51100000000E-03 0.  1.
         11    1    1    2    0    0 -0.12283679391E+02  0.62257257372E+01 -0.30298640157E+02  0.33281466854E+02  0.51100000000E-03 0. -1.
<mgrwt>
<rscale>  0 0.27553791E+02</rscale>
<asrwt>0</asrwt>
<pdfrwt beam="2">  1        2 0.10068741E-01 0.27553791E+02</pdfrwt>
<pdfrwt beam="1">  1       -2 0.44617052E-03 0.27553791E+02</pdfrwt>
<totfact> 0.23305022E+06</totfact>
</mgrwt>
</event>
<event>
 4    1  0.1433582E+000  0.2253246E+02  0.7818608E-02  0.1699203E+00
          2   -1    0    0  501    0  0.00000000000E+00  0.00000000000E+00  0.32339598389E+01  0.32339608841E+01  0.26000000000E-02 0. -1.
         -2   -1    0    0    0  501 -0.00000000000E+00 -0.00000000000E+00 -0.39248446051E+02  0.39248446138E+02  0.26000000000E-02 0.  1.
        -11    1    1    2    0    0 -0.24148157021E+01  0.10235978049E+02 -0.10390339712E+02  0.14783969057E+02  0.51100000000E-03 0. -1.
         11    1    1    2    0    0  0.24148157021E+01 -0.10235978049E+02 -0.25624146501E+02  0.27698437964E+02  0.51100000000E-03 0.  1.
<mgrwt>
<rscale>  0 0.22532459E+02</rscale>
<asrwt>0</asrwt>
<pdfrwt beam="1">  1        2 0.49753240E-03 0.22532459E+02</pdfrwt>
<pdfrwt beam="2">  1       -2 0.60382222E-02 0.22532459E+02</pdfrwt>
<totfact> 0.26910009E+06</totfact>
</mgrwt>
</event>
<event>
 4    1  0.1433582E+000  0.3130576E+02  0.7818608E-02  0.1584088E+00
         -2   -1    0    0    0  501 -0.00000000000E+00  0.00000000000E+00  0.37035614223E+01  0.37035623349E+01  0.26000000000E-02 0.  1.
          2   -1    0    0  501    0  0.00000000000E+00 -0.00000000000E+00 -0.66155937797E+02  0.66155937848E+02  0.26000000000E-02 0. -1.
        -11    1    1    2    0    0  0.13694840939E+02  0.76723664903E+00 -0.48055372915E+02  0.49974555393E+02  0.51100000000E-03 0. -1.
         11    1    1    2    0    0 -0.13694840939E+02 -0.76723664903E+00 -0.14397003460E+02  0.19884944790E+02  0.51100000000E-03 0.  1.
<mgrwt>
<rscale>  0 0.31305757E+02</rscale>
<asrwt>0</asrwt>
<pdfrwt beam="2">  1        2 0.10177836E-01 0.31305757E+02</pdfrwt>
<pdfrwt beam="1">  1       -2 0.56977880E-03 0.31305757E+02</pdfrwt>
<totfact> 0.17266252E+06</totfact>
</mgrwt>
</event>
<event>
 4    1  0.1433582E+000  0.3883765E+02  0.7818608E-02  0.1516944E+00
          2   -1    0    0  501    0  0.00000000000E+00  0.00000000000E+00  0.27065122861E+02  0.27065122986E+02  0.26000000000E-02 0. -1.
         -2   -1    0    0    0  501 -0.00000000000E+00 -0.00000000000E+00 -0.13932719682E+02  0.13932719925E+02  0.26000000000E-02 0.  1.
        -11    1    1    2    0    0  0.80118147008E+01 -0.67609256550E+01  0.23821376427E+02  0.26026088174E+02  0.51100000000E-03 0. -1.
         11    1    1    2    0    0 -0.80118147008E+01  0.67609256550E+01 -0.10688973249E+02  0.14971754736E+02  0.51100000000E-03 0.  1.
<mgrwt>
<rscale>  0 0.38837651E+02</rscale>
<asrwt>0</asrwt>
<pdfrwt beam="1">  1        2 0.41638650E-02 0.38837651E+02</pdfrwt>
<pdfrwt beam="2">  1       -2 0.21434954E-02 0.38837651E+02</pdfrwt>
<totfact> 0.88409332E+05</totfact>
</mgrwt>
</event>
<event>
 4    1  0.1433582E+000  0.2189288E+02  0.7818608E-02  0.1710111E+00
          2   -1    0    0  501    0  0.00000000000E+00  0.00000000000E+00  0.10041744279E+02  0.10041744615E+02  0.26000000000E-02 0. -1.
         -2   -1    0    0    0  501 -0.00000000000E+00 -0.00000000000E+00 -0.11932639007E+02  0.11932639290E+02  0.26000000000E-02 0.  1.
        -11    1    1    2    0    0  0.10843436674E+02  0.14957527919E+01 -0.10301457992E+01  0.10994480249E+02  0.51100000000E-03 0.  1.
         11    1    1    2    0    0 -0.10843436674E+02 -0.14957527919E+01 -0.86074892852E+00  0.10979903656E+02  0.51100000000E-03 0. -1.
<mgrwt>
<rscale>  0 0.21892877E+02</rscale>
<asrwt>0</asrwt>
<pdfrwt beam="1">  1        2 0.15448838E-02 0.21892877E+02</pdfrwt>
<pdfrwt beam="2">  1       -2 0.18357907E-02 0.21892877E+02</pdfrwt>
<totfact> 0.32038048E+06</totfact>
</mgrwt>
</event>
<event>
 4    1  0.1433582E+000  0.2187959E+02  0.7818608E-02  0.1710343E+00
          2   -1    0    0  501    0  0.00000000000E+00  0.00000000000E+00  0.80799267563E+02  0.80799267605E+02  0.26000000000E-02 0. -1.
         -2   -1    0    0    0  501 -0.00000000000E+00 -0.00000000000E+00 -0.14811891209E+01  0.14811914028E+01  0.26000000000E-02 0.  1.
        -11    1    1    2    0    0 -0.31179375102E+01  0.96465098741E+01  0.24198244585E+02  0.26236076847E+02  0.51100000000E-03 0.  1.
         11    1    1    2    0    0  0.31179375102E+01 -0.96465098741E+01  0.55119833857E+02  0.56044382161E+02  0.51100000000E-03 0. -1.
<mgrwt>
<rscale>  0 0.21879588E+02</rscale>
<asrwt>0</asrwt>
<pdfrwt beam="1">  1        2 0.12430660E-01 0.21879588E+02</pdfrwt>
<pdfrwt beam="2">  1       -2 0.22787537E-03 0.21879588E+02</pdfrwt>
<totfact> 0.41246720E+06</totfact>
</mgrwt>
</event>
<event>
 4    1  0.1433582E+000  0.3227761E+02  0.7818608E-02  0.1574196E+00
         -2   -1    0    0    0  501 -0.00000000000E+00  0.00000000000E+00  0.44780841587E+02  0.44780841663E+02  0.26000000000E-02 0. -1.
          2   -1    0    0  501    0  0.00000000000E+00 -0.00000000000E+00 -0.58163476631E+01  0.58163482442E+01  0.26000000000E-02 0.  1.
        -11    1    1    2    0    0  0.11509217179E+02  0.94121577296E+01  0.29323020054E+02  0.32876896121E+02  0.51100000000E-03 0. -1.
         11    1    1    2    0    0 -0.11509217179E+02 -0.94121577296E+01  0.96414738703E+01  0.17720293786E+02  0.51100000000E-03 0.  1.
<mgrwt>
<rscale>  0 0.32277606E+02</rscale>
<asrwt>0</asrwt>
<pdfrwt beam="2">  1        2 0.89482274E-03 0.32277606E+02</pdfrwt>
<pdfrwt beam="1">  1       -2 0.68893605E-02 0.32277606E+02</pdfrwt>
<totfact> 0.11676624E+06</totfact>
</mgrwt>
</event>
<event>
 4    1  0.1433582E+000  0.3836759E+02  0.7818608E-02  0.1520580E+00
         -2   -1    0    0    0  501 -0.00000000000E+00  0.00000000000E+00  0.53619653109E+02  0.53619653172E+02  0.26000000000E-02 0.  1.
          2   -1    0    0  501    0  0.00000000000E+00 -0.00000000000E+00 -0.68634894602E+01  0.68634899527E+01  0.26000000000E-02 0. -1.
        -11    1    1    2    0    0 -0.73255198034E+01 -0.13501146666E+02  0.41494740288E+02  0.44246555499E+02  0.51100000000E-03 0.  1.
         11    1    1    2    0    0  0.73255198034E+01  0.13501146666E+02  0.52614233604E+01  0.16236587625E+02  0.51100000000E-03 0. -1.
<mgrwt>
<rscale>  0 0.38367587E+02</rscale>
<asrwt>0</asrwt>
<pdfrwt beam="2">  1        2 0.10559215E-02 0.38367587E+02</pdfrwt>
<pdfrwt beam="1">  1       -2 0.82491774E-02 0.38367587E+02</pdfrwt>
<totfact> 0.75760209E+05</totfact>
</mgrwt>
</event>
<event>
 4    1  0.1433582E+000  0.2294006E+02  0.7818608E-02  0.1692484E+00
          2   -1    0    0  501    0  0.00000000000E+00  0.00000000000E+00  0.46834567955E+02  0.46834568028E+02  0.26000000000E-02 0. -1.
         -2   -1    0    0    0  501 -0.00000000000E+00 -0.00000000000E+00 -0.28090684413E+01  0.28090696446E+01  0.26000000000E-02 0.  1.
        -11    1    1    2    0    0 -0.66641619674E+01 -0.93347267308E+01  0.22262886708E+02  0.25043647951E+02  0.51100000000E-03 0.  1.
         11    1    1    2    0    0  0.66641619674E+01  0.93347267308E+01  0.21762612806E+02  0.24599989721E+02  0.51100000000E-03 0. -1.
<mgrwt>
<rscale>  0 0.22940056E+02</rscale>
<asrwt>0</asrwt>
<pdfrwt beam="1">  1        2 0.72053178E-02 0.22940056E+02</pdfrwt>
<pdfrwt beam="2">  1       -2 0.43216450E-03 0.22940056E+02</pdfrwt>
<totfact> 0.33663582E+06</totfact>
</mgrwt>
</event>
<event>
 4    1  0.1433582E+000  0.2126687E+02  0.7818608E-02  0.1721248E+00
         -2   -1    0    0    0  501 -0.00000000000E+00  0.00000000000E+00  0.19688697559E+01  0.19688714726E+01  0.26000000000E-02 0. -1.
          2   -1    0    0  501    0  0.00000000000E+00 -0.00000000000E+00 -0.57428809647E+02  0.57428809706E+02  0.26000000000E-02 0.  1.
        -11    1    1    2    0    0  0.87298940995E+01  0.60465647726E+01 -0.26205555807E+02  0.28275486768E+02  0.51100000000E-03 0.  1.
         11    1    1    2    0    0 -0.87298940995E+01 -0.60465647726E+01 -0.29254384085E+02  0.31122194411E+02  0.51100000000E-03 0. -1.
<mgrwt>
<rscale>  0 0.21266866E+02</rscale>
<asrwt>0</asrwt>
<pdfrwt beam="2">  1        2 0.88352003E-02 0.21266866E+02</pdfrwt>
<pdfrwt beam="1">  1       -2 0.30290322E-03 0.21266866E+02</pdfrwt>
<totfact> 0.41272032E+06</totfact>
</mgrwt>
</event>
<event>
 4    1  0.1433582E+000  0.1919059E+03  0.7818608E-02  0.1156754E+00
          2   -1    0    0  501    0  0.00000000000E+00  0.00000000000E+00  0.54190196011E+03  0.54190196011E+03  0.26000000000E-02 0. -1.
         -2   -1    0    0    0  501 -0.00000000000E+00 -0.00000000000E+00 -0.16990094982E+02  0.16990095181E+02  0.26000000000E-02 0.  1.
        -11    1    1    2    0    0  0.78734456737E+02 -0.16675029147E+02  0.11029447618E+03  0.13653586617E+03  0.51100000000E-03 0.  1.
         11    1    1    2    0    0 -0.78734456737E+02  0.16675029147E+02  0.41461738895E+03  0.42235618913E+03  0.51100000000E-03 0. -1.
<mgrwt>
<rscale>  0 0.19190587E+03</rscale>
<asrwt>0</asrwt>
<pdfrwt beam="1">  1        2 0.83369535E-01 0.19190587E+03</pdfrwt>
<pdfrwt beam="2">  1       -2 0.26138607E-02 0.19190587E+03</pdfrwt>
<totfact> 0.28537698E+04</totfact>
</mgrwt>
</event>
<event>
 4    1  0.1433582E+000  0.3281448E+02  0.7818608E-02  0.1568912E+00
         -2   -1    0    0    0  501 -0.00000000000E+00  0.00000000000E+00  0.70118816694E+01  0.70118821515E+01  0.26000000000E-02 0.  1.
          2   -1    0    0  501    0  0.00000000000E+00 -0.00000000000E+00 -0.38391614326E+02  0.38391614414E+02  0.26000000000E-02 0. -1.
        -11    1    1    2    0    0 -0.20043004738E+01 -0.14598533735E+02 -0.57062319019E+01  0.15801755927E+02  0.51100000000E-03 0.  1.
         11    1    1    2    0    0  0.20043004738E+01  0.14598533735E+02 -0.25673500755E+02  0.29601740639E+02  0.51100000000E-03 0. -1.
<mgrwt>
<rscale>  0 0.32814477E+02</rscale>
<asrwt>0</asrwt>
<pdfrwt beam="2">  1        2 0.59064021E-02 0.32814477E+02</pdfrwt>
<pdfrwt beam="1">  1       -2 0.10787511E-02 0.32814477E+02</pdfrwt>
<totfact> 0.14070738E+06</totfact>
</mgrwt>
</event>
<event>
 4    1  0.1433582E+000  0.2363773E+02  0.7818608E-02  0.1681376E+00
          2   -1    0    0  501    0  0.00000000000E+00  0.00000000000E+00  0.48328096142E+01  0.48328103136E+01  0.26000000000E-02 0. -1.
         -2   -1    0    0    0  501 -0.00000000000E+00 -0.00000000000E+00 -0.28903590402E+02  0.28903590519E+02  0.26000000000E-02 0.  1.
        -11    1    1    2    0    0 -0.11129595354E+02  0.14808847013E+01 -0.67672701241E+01  0.13109418654E+02  0.51100000000E-03 0. -1.
         11    1    1    2    0    0  0.11129595354E+02 -0.14808847013E+01 -0.17303510663E+02  0.20626982178E+02  0.51100000000E-03 0.  1.
<mgrwt>
<rscale>  0 0.23637729E+02</rscale>
<asrwt>0</asrwt>
<pdfrwt beam="1">  1        2 0.74350925E-03 0.23637729E+02</pdfrwt>
<pdfrwt beam="2">  1       -2 0.44467062E-02 0.23637729E+02</pdfrwt>
<totfact> 0.25037299E+06</totfact>
</mgrwt>
</event>
<event>
 4    1  0.1433582E+000  0.2900742E+02  0.7818608E-02  0.1609327E+00
          2   -1    0    0  501    0  0.00000000000E+00  0.00000000000E+00  0.41177145869E+01  0.41177154078E+01  0.26000000000E-02 0.  1.
         -2   -1    0    0    0  501 -0.00000000000E+00 -0.00000000000E+00 -0.51086006718E+02  0.51086006784E+02  0.26000000000E-02 0. -1.
        -11    1    1    2    0    0  0.77838366824E+01 -0.69460687247E+01 -0.42659286090E+02  0.43916405524E+02  0.51100000000E-03 0. -1.
         11    1    1    2    0    0 -0.77838366824E+01  0.69460687247E+01 -0.43090060411E+01  0.11287316667E+02  0.51100000000E-03 0.  1.
<mgrwt>
<rscale>  0 0.29007421E+02</rscale>
<asrwt>0</asrwt>
<pdfrwt beam="1">  1        2 0.63349466E-03 0.29007421E+02</pdfrwt>
<pdfrwt beam="2">  1       -2 0.78593853E-02 0.29007421E+02</pdfrwt>
<totfact> 0.14662786E+06</totfact>
</mgrwt>
</event>
<event>
 4    1  0.1433582E+000  0.3090208E+02  0.7818608E-02  0.1588326E+00
          2   -1    0    0  501    0  0.00000000000E+00  0.00000000000E+00  0.17382559837E+02  0.17382560031E+02  0.26000000000E-02 0.  1.
         -2   -1    0    0    0  501 -0.00000000000E+00 -0.00000000000E+00 -0.13734151265E+02  0.13734151511E+02  0.26000000000E-02 0. -1.
        -11    1    1    2    0    0 -0.97869977286E+01 -0.11955763925E+02  0.19202460060E+01  0.15569616583E+02  0.51100000000E-03 0.  1.
         11    1    1    2    0    0  0.97869977286E+01  0.11955763925E+02  0.17281625655E+01  0.15547094959E+02  0.51100000000E-03 0. -1.
<mgrwt>
<rscale>  0 0.30902085E+02</rscale>
<asrwt>0</asrwt>
<pdfrwt beam="1">  1        2 0.26742400E-02 0.30902085E+02</pdfrwt>
<pdfrwt beam="2">  1       -2 0.21129464E-02 0.30902085E+02</pdfrwt>
<totfact> 0.14786062E+06</totfact>
</mgrwt>
</event>
<event>
 4    1  0.1433582E+000  0.3998903E+02  0.7818608E-02  0.1508292E+00
         -2   -1    0    0    0  501 -0.00000000000E+00  0.00000000000E+00  0.57282322481E+01  0.57282328381E+01  0.26000000000E-02 0. -1.
          2   -1    0    0  501    0  0.00000000000E+00 -0.00000000000E+00 -0.69791253716E+02  0.69791253765E+02  0.26000000000E-02 0.  1.
        -11    1    1    2    0    0 -0.13557048713E+02 -0.74388962010E+00 -0.59750342521E+02  0.61273569940E+02  0.51100000000E-03 0.  1.
         11    1    1    2    0    0  0.13557048713E+02  0.74388962010E+00 -0.43126789469E+01  0.14245916662E+02  0.51100000000E-03 0. -1.
<mgrwt>
<rscale>  0 0.39989025E+02</rscale>
<asrwt>0</asrwt>
<pdfrwt beam="2">  1        2 0.10737115E-01 0.39989025E+02</pdfrwt>
<pdfrwt beam="1">  1       -2 0.88126660E-03 0.39989025E+02</pdfrwt>
<totfact> 0.96265050E+05</totfact>
</mgrwt>
</event>
<event>
 4    1  0.1433582E+000  0.1460187E+03  0.7818608E-02  0.1205452E+00
         -2   -1    0    0    0  501 -0.00000000000E+00  0.00000000000E+00  0.13537687575E+03  0.13537687578E+03  0.26000000000E-02 0.  1.
          2   -1    0    0  501    0  0.00000000000E+00 -0.00000000000E+00 -0.39374249657E+02  0.39374249743E+02  0.26000000000E-02 0. -1.
        -11    1    1    2    0    0 -0.64316227672E+02  0.19775927730E+02  0.81908191523E+02  0.10600290703E+03  0.51100000000E-03 0.  1.
         11    1    1    2    0    0  0.64316227672E+02 -0.19775927730E+02  0.14094434571E+02  0.68748218491E+02  0.51100000000E-03 0. -1.
<mgrwt>
<rscale>  0 0.14601867E+03</rscale>
<asrwt>0</asrwt>
<pdfrwt beam="2">  1        2 0.60575770E-02 0.14601867E+03</pdfrwt>
<pdfrwt beam="1">  1       -2 0.20827211E-01 0.14601867E+03</pdfrwt>
<totfact> 0.22232091E+04</totfact>
</mgrwt>
</event>
<event>
 4    1  0.1433582E+000  0.9989071E+02  0.7818608E-02  0.1280526E+00
          2   -1    0    0  501    0  0.00000000000E+00  0.00000000000E+00  0.12344537948E+03  0.12344537951E+03  0.26000000000E-02 0. -1.
         -2   -1    0    0    0  501 -0.00000000000E+00 -0.00000000000E+00 -0.20207629718E+02  0.20207629885E+02  0.26000000000E-02 0.  1.
        -11    1    1    2    0    0 -0.45733237177E+02 -0.64809617186E+01  0.78943061740E+02  0.91463319668E+02  0.51100000000E-03 0. -1.
         11    1    1    2    0    0  0.45733237177E+02  0.64809617186E+01  0.24294688026E+02  0.52189689729E+02  0.51100000000E-03 0.  1.
<mgrwt>
<rscale>  0 0.99890711E+02</rscale>
<asrwt>0</asrwt>
<pdfrwt beam="1">  1        2 0.18991597E-01 0.99890711E+02</pdfrwt>
<pdfrwt beam="2">  1       -2 0.31088661E-02 0.99890711E+02</pdfrwt>
<totfact> 0.10195584E+05</totfact>
</mgrwt>
</event>
<event>
 4    1  0.1433582E+000  0.2165476E+02  0.7818608E-02  0.1714292E+00
         -2   -1    0    0    0  501 -0.00000000000E+00  0.00000000000E+00  0.40178147668E+02  0.40178147752E+02  0.26000000000E-02 0.  1.
          2   -1    0    0  501    0  0.00000000000E+00 -0.00000000000E+00 -0.29178090529E+01  0.29178102113E+01  0.26000000000E-02 0. -1.
        -11    1    1    2    0    0  0.95448969455E+01  0.47365494086E+01  0.14806084047E+02  0.18241712723E+02  0.51100000000E-03 0. -1.
         11    1    1    2    0    0 -0.95448969455E+01 -0.47365494086E+01  0.22454254567E+02  0.24854245240E+02  0.51100000000E-03 0.  1.
<mgrwt>
<rscale>  0 0.21654763E+02</rscale>
<asrwt>0</asrwt>
<pdfrwt beam="2">  1        2 0.44889379E-03 0.21654763E+02</pdfrwt>
<pdfrwt beam="1">  1       -2 0.61812536E-02 0.21654763E+02</pdfrwt>
<totfact> 0.29303513E+06</totfact>
</mgrwt>
</event>
<event>
 4    1  0.1433582E+000  0.6370880E+02  0.7818608E-02  0.1382895E+00
          2   -1    0    0  501    0  0.00000000000E+00  0.00000000000E+00  0.78167406222E+02  0.78167406266E+02  0.26000000000E-02 0. -1.
         -2   -1    0    0    0  501 -0.00000000000E+00 -0.00000000000E+00 -0.12981149107E+02  0.12981149368E+02  0.26000000000E-02 0.  1.
        -11    1    1    2    0    0  0.14590791993E+02 -0.10359407306E+02  0.70296891496E+02  0.72538689573E+02  0.51100000000E-03 0. -1.
         11    1    1    2    0    0 -0.14590791993E+02  0.10359407306E+02 -0.51106343813E+01  0.18609866060E+02  0.51100000000E-03 0.  1.
<mgrwt>
<rscale>  0 0.63708799E+02</rscale>
<asrwt>0</asrwt>
<pdfrwt beam="1">  1        2 0.12025755E-01 0.63708799E+02</pdfrwt>
<pdfrwt beam="2">  1       -2 0.19970999E-02 0.63708799E+02</pdfrwt>
<totfact> 0.30093585E+05</totfact>
</mgrwt>
</event>
<event>
 4    1  0.1433582E+000  0.2116178E+02  0.7818608E-02  0.1723165E+00
          2   -1    0    0  501    0  0.00000000000E+00  0.00000000000E+00  0.66863611063E+02  0.66863611114E+02  0.26000000000E-02 0. -1.
         -2   -1    0    0    0  501 -0.00000000000E+00 -0.00000000000E+00 -0.16743808900E+01  0.16743829086E+01  0.26000000000E-02 0.  1.
        -11    1    1    2    0    0 -0.10202766914E+02 -0.15697855455E+01  0.25072212393E+02  0.27114138635E+02  0.51100000000E-03 0.  1.
         11    1    1    2    0    0  0.10202766914E+02  0.15697855455E+01  0.40117017780E+02  0.41423855388E+02  0.51100000000E-03 0. -1.
<mgrwt>
<rscale>  0 0.21161779E+02</rscale>
<asrwt>0</asrwt>
<pdfrwt beam="1">  1        2 0.10286711E-01 0.21161779E+02</pdfrwt>
<pdfrwt beam="2">  1       -2 0.25759720E-03 0.21161779E+02</pdfrwt>
<totfact> 0.42856127E+06</totfact>
</mgrwt>
</event>
<event>
 4    1  0.1433582E+000  0.4401957E+02  0.7818608E-02  0.1480557E+00
          2   -1    0    0  501    0  0.00000000000E+00  0.00000000000E+00  0.16750791545E+02  0.16750791747E+02  0.26000000000E-02 0. -1.
         -2   -1    0    0    0  501 -0.00000000000E+00 -0.00000000000E+00 -0.28919869394E+02  0.28919869511E+02  0.26000000000E-02 0.  1.
        -11    1    1    2    0    0 -0.37853457538E+01  0.21663755760E+02 -0.51661511031E+01  0.22590623577E+02  0.51100000000E-03 0.  1.
         11    1    1    2    0    0  0.37853457538E+01 -0.21663755760E+02 -0.70029267459E+01  0.23080037682E+02  0.51100000000E-03 0. -1.
<mgrwt>
<rscale>  0 0.44019573E+02</rscale>
<asrwt>0</asrwt>
<pdfrwt beam="1">  1        2 0.25770449E-02 0.44019573E+02</pdfrwt>
<pdfrwt beam="2">  1       -2 0.44492107E-02 0.44019573E+02</pdfrwt>
<totfact> 0.60070475E+05</totfact>
</mgrwt>
</event>
<event>
 4    1  0.1433582E+000  0.2438398E+02  0.7818608E-02  0.1670011E+00
         -2   -1    0    0    0  501 -0.00000000000E+00  0.00000000000E+00  0.14519969020E+01  0.14519992299E+01  0.26000000000E-02 0.  1.
          2   -1    0    0  501    0  0.00000000000E+00 -0.00000000000E+00 -0.10237248777E+03  0.10237248780E+03  0.26000000000E-02 0. -1.
        -11    1    1    2    0    0 -0.11746340373E+02 -0.14403102145E+01 -0.62942240896E+02  0.64045114529E+02  0.51100000000E-03 0. -1.
         11    1    1    2    0    0  0.11746340373E+02  0.14403102145E+01 -0.37978249972E+02  0.39779372505E+02  0.51100000000E-03 0.  1.
<mgrwt>
<rscale>  0 0.24383983E+02</rscale>
<asrwt>0</asrwt>
<pdfrwt beam="2">  1        2 0.15749608E-01 0.24383983E+02</pdfrwt>
<pdfrwt beam="1">  1       -2 0.22338440E-03 0.24383983E+02</pdfrwt>
<totfact> 0.33995992E+06</totfact>
</mgrwt>
</event>
<event>
 4    1  0.1433582E+000  0.4192248E+02  0.7818608E-02  0.1494522E+00
          2   -1    0    0  501    0  0.00000000000E+00  0.00000000000E+00  0.67417646188E+02  0.67417646238E+02  0.26000000000E-02 0. -1.
         -2   -1    0    0    0  501 -0.00000000000E+00 -0.00000000000E+00 -0.65171893626E+01  0.65171898812E+01  0.26000000000E-02 0.  1.
        -11    1    1    2    0    0  0.15109487191E+02  0.14256433158E+02  0.35385527420E+02  0.41032646035E+02  0.51100000000E-03 0. -1.
         11    1    1    2    0    0 -0.15109487191E+02 -0.14256433158E+02  0.25514929405E+02  0.32902190085E+02  0.51100000000E-03 0.  1.
<mgrwt>
<rscale>  0 0.41922480E+02</rscale>
<asrwt>0</asrwt>
<pdfrwt beam="1">  1        2 0.10371946E-01 0.41922480E+02</pdfrwt>
<pdfrwt beam="2">  1       -2 0.10026445E-02 0.41922480E+02</pdfrwt>
<totfact> 0.85011407E+05</totfact>
</mgrwt>
</event>
<event>
 4    1  0.1433582E+000  0.2811915E+02  0.7818608E-02  0.1619861E+00
         -2   -1    0    0    0  501 -0.00000000000E+00  0.00000000000E+00  0.39547226203E+01  0.39547234750E+01  0.26000000000E-02 0.  1.
          2   -1    0    0  501    0  0.00000000000E+00 -0.00000000000E+00 -0.49983671004E+02  0.49983671071E+02  0.26000000000E-02 0. -1.
        -11    1    1    2    0    0 -0.28648986779E+01  0.13270192447E+02 -0.30027338666E+02  0.32953705704E+02  0.51100000000E-03 0. -1.
         11    1    1    2    0    0  0.28648986779E+01 -0.13270192447E+02 -0.16001609718E+02  0.20984688843E+02  0.51100000000E-03 0.  1.
<mgrwt>
<rscale>  0 0.28119145E+02</rscale>
<asrwt>0</asrwt>
<pdfrwt beam="2">  1        2 0.76897952E-02 0.28119145E+02</pdfrwt>
<pdfrwt beam="1">  1       -2 0.60841897E-03 0.28119145E+02</pdfrwt>
<totfact> 0.21197277E+06</totfact>
</mgrwt>
</event>
<event>
 4    1  0.1433582E+000  0.3124508E+02  0.7818608E-02  0.1584720E+00
          2   -1    0    0  501    0  0.00000000000E+00  0.00000000000E+00  0.31655679806E+01  0.31655690483E+01  0.26000000000E-02 0.  1.
         -2   -1    0    0    0  501 -0.00000000000E+00 -0.00000000000E+00 -0.77099500565E+02  0.77099500609E+02  0.26000000000E-02 0. -1.
        -11    1    1    2    0    0  0.17887107052E+01 -0.10746590956E+02 -0.65731047696E+02  0.66627766994E+02  0.51100000000E-03 0. -1.
         11    1    1    2    0    0 -0.17887107052E+01  0.10746590956E+02 -0.82028848886E+01  0.13637302663E+02  0.51100000000E-03 0.  1.
<mgrwt>
<rscale>  0 0.31245080E+02</rscale>
<asrwt>0</asrwt>
<pdfrwt beam="1">  1        2 0.48701060E-03 0.31245080E+02</pdfrwt>
<pdfrwt beam="2">  1       -2 0.11861460E-01 0.31245080E+02</pdfrwt>
<totfact> 0.11493246E+06</totfact>
</mgrwt>
</event>
<event>
 4    1  0.1433582E+000  0.4308796E+02  0.7818608E-02  0.1486644E+00
          2   -1    0    0  501    0  0.00000000000E+00  0.00000000000E+00  0.52630403124E+02  0.52630403188E+02  0.26000000000E-02 0.  1.
         -2   -1    0    0    0  501 -0.00000000000E+00 -0.00000000000E+00 -0.88189140280E+01  0.88189144113E+01  0.26000000000E-02 0. -1.
        -11    1    1    2    0    0 -0.53762959539E+01  0.20822478144E+02  0.20066713946E+02  0.29413486075E+02  0.51100000000E-03 0.  1.
         11    1    1    2    0    0  0.53762959539E+01 -0.20822478144E+02  0.23744775150E+02  0.32035831524E+02  0.51100000000E-03 0. -1.
<mgrwt>
<rscale>  0 0.43087957E+02</rscale>
<asrwt>0</asrwt>
<pdfrwt beam="1">  1        2 0.80969851E-02 0.43087957E+02</pdfrwt>
<pdfrwt beam="2">  1       -2 0.13567560E-02 0.43087957E+02</pdfrwt>
<totfact> 0.75619775E+05</totfact>
</mgrwt>
</event>
<event>
 4    1  0.1433582E+000  0.2819592E+02  0.7818608E-02  0.1618931E+00
          2   -1    0    0  501    0  0.00000000000E+00  0.00000000000E+00  0.14238862560E+03  0.14238862562E+03  0.26000000000E-02 0.  1.
         -2   -1    0    0    0  501 -0.00000000000E+00 -0.00000000000E+00 -0.13958440491E+01  0.13958464706E+01  0.26000000000E-02 0. -1.
        -11    1    1    2    0    0 -0.36091281392E+01 -0.13628150268E+02  0.70423273264E+02  0.71820538171E+02  0.51100000000E-03 0.  1.
         11    1    1    2    0    0  0.36091281392E+01  0.13628150268E+02  0.70569508283E+02  0.71963933920E+02  0.51100000000E-03 0. -1.
<mgrwt>
<rscale>  0 0.28195921E+02</rscale>
<asrwt>0</asrwt>
<pdfrwt beam="1">  1        2 0.21905927E-01 0.28195921E+02</pdfrwt>
<pdfrwt beam="2">  1       -2 0.21474558E-03 0.28195921E+02</pdfrwt>
<totfact> 0.26487613E+06</totfact>
</mgrwt>
</event>
<event>
 4    1  0.1433582E+000  0.2686718E+02  0.7818608E-02  0.1635546E+00
          2   -1    0    0  501    0  0.00000000000E+00  0.00000000000E+00  0.39884547726E+02  0.39884547811E+02  0.26000000000E-02 0. -1.
         -2   -1    0    0    0  501 -0.00000000000E+00 -0.00000000000E+00 -0.45245922244E+01  0.45245929715E+01  0.26000000000E-02 0.  1.
        -11    1    1    2    0    0  0.38311916256E+01 -0.11682278747E+02  0.26628285599E+02  0.29329494715E+02  0.51100000000E-03 0. -1.
         11    1    1    2    0    0 -0.38311916256E+01  0.11682278747E+02  0.87316699024E+01  0.15079646068E+02  0.51100000000E-03 0.  1.
<mgrwt>
<rscale>  0 0.26867179E+02</rscale>
<asrwt>0</asrwt>
<pdfrwt beam="1">  1        2 0.61360845E-02 0.26867179E+02</pdfrwt>
<pdfrwt beam="2">  1       -2 0.69609115E-03 0.26867179E+02</pdfrwt>
<totfact> 0.22807744E+06</totfact>
</mgrwt>
</event>
<event>
 4    1  0.1433582E+000  0.2940627E+02  0.7818608E-02  0.1604746E+00
         -2   -1    0    0    0  501 -0.00000000000E+00  0.00000000000E+00  0.92250935365E+02  0.92250935401E+02  0.26000000000E-02 0.  1.
          2   -1    0    0  501    0  0.00000000000E+00 -0.00000000000E+00 -0.23434143616E+01  0.23434158040E+01  0.26000000000E-02 0. -1.
        -11    1    1    2    0    0 -0.14694163746E+02 -0.51108992699E+00  0.45117007887E+02  0.47452334632E+02  0.51100000000E-03 0. -1.
         11    1    1    2    0    0  0.14694163746E+02  0.51108992699E+00  0.44790513116E+02  0.47142016573E+02  0.51100000000E-03 0.  1.
<mgrwt>
<rscale>  0 0.29406274E+02</rscale>
<asrwt>0</asrwt>
<pdfrwt beam="2">  1        2 0.36052548E-03 0.29406274E+02</pdfrwt>
<pdfrwt beam="1">  1       -2 0.14192449E-01 0.29406274E+02</pdfrwt>
<totfact> 0.12733051E+06</totfact>
</mgrwt>
</event>
<event>
 4    1  0.1433582E+000  0.2765736E+02  0.7818608E-02  0.1625527E+00
          2   -1    0    0  501    0  0.00000000000E+00  0.00000000000E+00  0.66714633327E+01  0.66714638393E+01  0.26000000000E-02 0. -1.
         -2   -1    0    0    0  501 -0.00000000000E+00 -0.00000000000E+00 -0.28664227515E+02  0.28664227633E+02  0.26000000000E-02 0.  1.
        -11    1    1    2    0    0 -0.12570364856E+02 -0.32728604094E+01 -0.17057580402E+02  0.21440306372E+02  0.51100000000E-03 0. -1.
         11    1    1    2    0    0  0.12570364856E+02  0.32728604094E+01 -0.49351837797E+01  0.13895385100E+02  0.51100000000E-03 0.  1.
<mgrwt>
<rscale>  0 0.27657357E+02</rscale>
<asrwt>0</asrwt>
<pdfrwt beam="1">  1        2 0.10263790E-02 0.27657357E+02</pdfrwt>
<pdfrwt beam="2">  1       -2 0.44098811E-02 0.27657357E+02</pdfrwt>
<totfact> 0.17598984E+06</totfact>
</mgrwt>
</event>
<event>
 4    1  0.1433582E+000  0.8932889E+02  0.7818608E-02  0.1304485E+00
          2   -1    0    0  501    0  0.00000000000E+00  0.00000000000E+00  0.13976454496E+02  0.13976454738E+02  0.26000000000E-02 0. -1.
         -2   -1    0    0    0  501 -0.00000000000E+00 -0.00000000000E+00 -0.14273382105E+03  0.14273382107E+03  0.26000000000E-02 0.  1.
        -11    1    1    2    0    0  0.86984899343E+01  0.29942215866E+02 -0.12048120211E+03  0.12445047240E+03  0.51100000000E-03 0.  1.
         11    1    1    2    0    0 -0.86984899343E+01 -0.29942215866E+02 -0.82761644443E+01  0.32259803413E+02  0.51100000000E-03 0. -1.
<mgrwt>
<rscale>  0 0.89328893E+02</rscale>
<asrwt>0</asrwt>
<pdfrwt beam="1">  1        2 0.21502239E-02 0.89328893E+02</pdfrwt>
<pdfrwt beam="2">  1       -2 0.21959048E-01 0.89328893E+02</pdfrwt>
<totfact> 0.74886573E+04</totfact>
</mgrwt>
</event>
<event>
 4    1  0.1433582E+000  0.6635427E+02  0.7818608E-02  0.1372948E+00
          2   -1    0    0  501    0  0.00000000000E+00  0.00000000000E+00  0.77377668666E+02  0.77377668710E+02  0.26000000000E-02 0. -1.
         -2   -1    0    0    0  501 -0.00000000000E+00 -0.00000000000E+00 -0.14225324065E+02  0.14225324303E+02  0.26000000000E-02 0.  1.
        -11    1    1    2    0    0  0.11701361959E+02 -0.30896629209E+02  0.35763217853E+02  0.48688102444E+02  0.51100000000E-03 0. -1.
         11    1    1    2    0    0 -0.11701361959E+02  0.30896629209E+02  0.27389126748E+02  0.42914890568E+02  0.51100000000E-03 0.  1.
<mgrwt>
<rscale>  0 0.66354274E+02</rscale>
<asrwt>0</asrwt>
<pdfrwt beam="1">  1        2 0.11904257E-01 0.66354274E+02</pdfrwt>
<pdfrwt beam="2">  1       -2 0.21885114E-02 0.66354274E+02</pdfrwt>
<totfact> 0.26956505E+05</totfact>
</mgrwt>
</event>
<event>
 4    1  0.1433582E+000  0.2551994E+02  0.7818608E-02  0.1653644E+00
          2   -1    0    0  501    0  0.00000000000E+00  0.00000000000E+00  0.55075345431E+01  0.55075351568E+01  0.26000000000E-02 0.  1.
         -2   -1    0    0    0  501 -0.00000000000E+00 -0.00000000000E+00 -0.29562571675E+02  0.29562571789E+02  0.26000000000E-02 0. -1.
        -11    1    1    2    0    0 -0.11191594380E+02  0.27677711285E+01 -0.45125696596E+01  0.12380453424E+02  0.51100000000E-03 0.  1.
         11    1    1    2    0    0  0.11191594380E+02 -0.27677711285E+01 -0.19542467472E+02  0.22689653522E+02  0.51100000000E-03 0. -1.
<mgrwt>
<rscale>  0 0.25519945E+02</rscale>
<asrwt>0</asrwt>
<pdfrwt beam="1">  1        2 0.84731308E-03 0.25519945E+02</pdfrwt>
<pdfrwt beam="2">  1       -2 0.45480879E-02 0.25519945E+02</pdfrwt>
<totfact> 0.21037354E+06</totfact>
</mgrwt>
</event>
<event>
 4    1  0.1433582E+000  0.2825174E+02  0.7818608E-02  0.1618258E+00
          2   -1    0    0  501    0  0.00000000000E+00  0.00000000000E+00  0.93026867829E+01  0.93026871463E+01  0.26000000000E-02 0.  1.
         -2   -1    0    0    0  501 -0.00000000000E+00 -0.00000000000E+00 -0.21449736672E+02  0.21449736830E+02  0.26000000000E-02 0. -1.
        -11    1    1    2    0    0 -0.11221994417E+02 -0.39101722658E+00 -0.15402679670E+02  0.19061180300E+02  0.51100000000E-03 0. -1.
         11    1    1    2    0    0  0.11221994417E+02  0.39101722658E+00  0.32556297804E+01  0.11691243676E+02  0.51100000000E-03 0.  1.
<mgrwt>
<rscale>  0 0.28251739E+02</rscale>
<asrwt>0</asrwt>
<pdfrwt beam="1">  1        2 0.14311826E-02 0.28251739E+02</pdfrwt>
<pdfrwt beam="2">  1       -2 0.32999595E-02 0.28251739E+02</pdfrwt>
<totfact> 0.17287849E+06</totfact>
</mgrwt>
</event>
<event>
 4    1  0.1433582E+000  0.3057611E+02  0.7818608E-02  0.1591806E+00
          2   -1    0    0  501    0  0.00000000000E+00  0.00000000000E+00  0.52290149506E+02  0.52290149571E+02  0.26000000000E-02 0. -1.
         -2   -1    0    0    0  501 -0.00000000000E+00 -0.00000000000E+00 -0.44697625359E+01  0.44697632921E+01  0.26000000000E-02 0.  1.
        -11    1    1    2    0    0  0.24798459133E+01  0.11566167282E+02  0.59315063416E+01  0.13232861712E+02  0.51100000000E-03 0.  1.
         11    1    1    2    0    0 -0.24798459133E+01 -0.11566167282E+02  0.41888880628E+02  0.43527051151E+02  0.51100000000E-03 0. -1.
<mgrwt>
<rscale>  0 0.30576107E+02</rscale>
<asrwt>0</asrwt>
<pdfrwt beam="1">  1        2 0.80446386E-02 0.30576107E+02</pdfrwt>
<pdfrwt beam="2">  1       -2 0.68765583E-03 0.30576107E+02</pdfrwt>
<totfact> 0.17505355E+06</totfact>
</mgrwt>
</event>
<event>
 4    1  0.1433582E+000  0.4251066E+02  0.7818608E-02  0.1490509E+00
          2   -1    0    0  501    0  0.00000000000E+00  0.00000000000E+00  0.97013984803E+02  0.97013984838E+02  0.26000000000E-02 0.  1.
         -2   -1    0    0    0  501 -0.00000000000E+00 -0.00000000000E+00 -0.46569479516E+01  0.46569486774E+01  0.26000000000E-02 0. -1.
        -11    1    1    2    0    0  0.20090225689E+02  0.49651196420E+01  0.57777324782E+02  0.61371726720E+02  0.51100000000E-03 0. -1.
         11    1    1    2    0    0 -0.20090225689E+02 -0.49651196420E+01  0.34579712070E+02  0.40299206796E+02  0.51100000000E-03 0.  1.
<mgrwt>
<rscale>  0 0.42510663E+02</rscale>
<asrwt>0</asrwt>
<pdfrwt beam="1">  1        2 0.14925227E-01 0.42510663E+02</pdfrwt>
<pdfrwt beam="2">  1       -2 0.71645364E-03 0.42510663E+02</pdfrwt>
<totfact> 0.89232298E+05</totfact>
</mgrwt>
</event>
<event>
 4    1  0.1433582E+000  0.4841294E+02  0.7818608E-02  0.1454095E+00
         -2   -1    0    0    0  501 -0.00000000000E+00  0.00000000000E+00  0.34022939396E+01  0.34022949331E+01  0.26000000000E-02 0. -1.
          2   -1    0    0  501    0  0.00000000000E+00 -0.00000000000E+00 -0.17222296788E+03  0.17222296790E+03  0.26000000000E-02 0.  1.
        -11    1    1    2    0    0 -0.23371850542E+02  0.55229911817E+01 -0.95417385532E+02  0.98393212628E+02  0.51100000000E-03 0.  1.
         11    1    1    2    0    0  0.23371850542E+02 -0.55229911817E+01 -0.73403288411E+02  0.77232050207E+02  0.51100000000E-03 0. -1.
<mgrwt>
<rscale>  0 0.48412942E+02</rscale>
<asrwt>0</asrwt>
<pdfrwt beam="2">  1        2 0.26495834E-01 0.48412942E+02</pdfrwt>
<pdfrwt beam="1">  1       -2 0.52343005E-03 0.48412942E+02</pdfrwt>
<totfact> 0.76012360E+05</totfact>
</mgrwt>
</event>
<event>
 4    1  0.1433582E+000  0.3444245E+02  0.7818608E-02  0.1553608E+00
         -2   -1    0    0    0  501 -0.00000000000E+00  0.00000000000E+00  0.23087328226E+01  0.23087342866E+01  0.26000000000E-02 0.  1.
          2   -1    0    0  501    0  0.00000000000E+00 -0.00000000000E+00 -0.12845599733E+03  0.12845599736E+03  0.26000000000E-02 0. -1.
        -11    1    1    2    0    0 -0.77544967533E+01 -0.15255761763E+02 -0.70376751650E+02  0.72427602887E+02  0.51100000000E-03 0.  1.
         11    1    1    2    0    0  0.77544967533E+01  0.15255761763E+02 -0.55770512858E+02  0.58337128757E+02  0.51100000000E-03 0. -1.
<mgrwt>
<rscale>  0 0.34442455E+02</rscale>
<asrwt>0</asrwt>
<pdfrwt beam="2">  1        2 0.19762456E-01 0.34442455E+02</pdfrwt>
<pdfrwt beam="1">  1       -2 0.35518988E-03 0.34442455E+02</pdfrwt>
<totfact> 0.16045816E+06</totfact>
</mgrwt>
</event>
<event>
 4    1  0.1433582E+000  0.2875938E+02  0.7818608E-02  0.1612221E+00
          2   -1    0    0  501    0  0.00000000000E+00  0.00000000000E+00  0.21528241960E+02  0.21528242117E+02  0.26000000000E-02 0. -1.
         -2   -1    0    0    0  501 -0.00000000000E+00 -0.00000000000E+00 -0.96048448917E+01  0.96048452436E+01  0.26000000000E-02 0.  1.
        -11    1    1    2    0    0  0.74561399030E+01 -0.12294339101E+02  0.61511774309E+01  0.15639110596E+02  0.51100000000E-03 0.  1.
         11    1    1    2    0    0 -0.74561399030E+01  0.12294339101E+02  0.57722196370E+01  0.15493976764E+02  0.51100000000E-03 0. -1.
<mgrwt>
<rscale>  0 0.28759376E+02</rscale>
<asrwt>0</asrwt>
<pdfrwt beam="1">  1        2 0.33120372E-02 0.28759376E+02</pdfrwt>
<pdfrwt beam="2">  1       -2 0.14776685E-02 0.28759376E+02</pdfrwt>
<totfact> 0.18007592E+06</totfact>
</mgrwt>
</event>
<event>
 4    1  0.1433582E+000  0.5298597E+02  0.7818608E-02  0.1429871E+00
         -2   -1    0    0    0  501 -0.00000000000E+00  0.00000000000E+00  0.10879296510E+02  0.10879296821E+02  0.26000000000E-02 0.  1.
          2   -1    0    0  501    0  0.00000000000E+00 -0.00000000000E+00 -0.64515044389E+02  0.64515044442E+02  0.26000000000E-02 0. -1.
        -11    1    1    2    0    0 -0.39600636313E+01 -0.24185969005E+02 -0.12501157485E+02  0.27512218002E+02  0.51100000000E-03 0.  1.
         11    1    1    2    0    0  0.39600636313E+01  0.24185969005E+02 -0.41134590395E+02  0.47882123260E+02  0.51100000000E-03 0. -1.
<mgrwt>
<rscale>  0 0.52985972E+02</rscale>
<asrwt>0</asrwt>
<pdfrwt beam="2">  1        2 0.99253912E-02 0.52985972E+02</pdfrwt>
<pdfrwt beam="1">  1       -2 0.16737380E-02 0.52985972E+02</pdfrwt>
<totfact> 0.46525768E+05</totfact>
</mgrwt>
</event>
<event>
 4    1  0.1433582E+000  0.5259333E+02  0.7818608E-02  0.1431835E+00
          2   -1    0    0  501    0  0.00000000000E+00  0.00000000000E+00  0.10193172826E+02  0.10193173158E+02  0.26000000000E-02 0.  1.
         -2   -1    0    0    0  501 -0.00000000000E+00 -0.00000000000E+00 -0.67840951004E+02  0.67840951054E+02  0.26000000000E-02 0. -1.
        -11    1    1    2    0    0  0.12657359990E+02  0.20704929117E+02 -0.13794118674E+02  0.27913805938E+02  0.51100000000E-03 0.  1.
         11    1    1    2    0    0 -0.12657359990E+02 -0.20704929117E+02 -0.43853659505E+02  0.50120318274E+02  0.51100000000E-03 0. -1.
<mgrwt>
<rscale>  0 0.52593329E+02</rscale>
<asrwt>0</asrwt>
<pdfrwt beam="1">  1        2 0.15681805E-02 0.52593329E+02</pdfrwt>
<pdfrwt beam="2">  1       -2 0.10437069E-01 0.52593329E+02</pdfrwt>
<totfact> 0.34070970E+05</totfact>
</mgrwt>
</event>
<event>
 4    1  0.1433582E+000  0.2910059E+02  0.7818608E-02  0.1608249E+00
         -2   -1    0    0    0  501 -0.00000000000E+00  0.00000000000E+00  0.12314558372E+03  0.12314558375E+03  0.26000000000E-02 0. -1.
          2   -1    0    0  501    0  0.00000000000E+00 -0.00000000000E+00 -0.17191923384E+01  0.17191943044E+01  0.26000000000E-02 0.  1.
        -11    1    1    2    0    0  0.11765104630E+02  0.80959056715E+01  0.48768353648E+02  0.50816470690E+02  0.51100000000E-03 0. -1.
         11    1    1    2    0    0 -0.11765104630E+02 -0.80959056715E+01  0.72658037733E+02  0.74048307361E+02  0.51100000000E-03 0.  1.
<mgrwt>
<rscale>  0 0.29100589E+02</rscale>
<asrwt>0</asrwt>
<pdfrwt beam="2">  1        2 0.26449123E-03 0.29100589E+02</pdfrwt>
<pdfrwt beam="1">  1       -2 0.18945478E-01 0.29100589E+02</pdfrwt>
<totfact> 0.12118800E+06</totfact>
</mgrwt>
</event>
<event>
 4    1  0.1433582E+000  0.3049032E+02  0.7818608E-02  0.1592731E+00
          2   -1    0    0  501    0  0.00000000000E+00  0.00000000000E+00  0.78016097683E+01  0.78016102016E+01  0.26000000000E-02 0. -1.
         -2   -1    0    0    0  501 -0.00000000000E+00 -0.00000000000E+00 -0.29790642427E+02  0.29790642540E+02  0.26000000000E-02 0.  1.
        -11    1    1    2    0    0 -0.13258577497E+02 -0.70858035462E+01 -0.14117609843E+02  0.20622933765E+02  0.51100000000E-03 0.  1.
         11    1    1    2    0    0  0.13258577497E+02  0.70858035462E+01 -0.78714228160E+01  0.16969318977E+02  0.51100000000E-03 0. -1.
<mgrwt>
<rscale>  0 0.30490325E+02</rscale>
<asrwt>0</asrwt>
<pdfrwt beam="1">  1        2 0.12002477E-02 0.30490325E+02</pdfrwt>
<pdfrwt beam="2">  1       -2 0.45831757E-02 0.30490325E+02</pdfrwt>
<totfact> 0.14029496E+06</totfact>
</mgrwt>
</event>
<event>
 4    1  0.1433582E+000  0.2179120E+02  0.7818608E-02  0.1711888E+00
          2   -1    0    0  501    0  0.00000000000E+00  0.00000000000E+00  0.58692982611E+02  0.58692982669E+02  0.26000000000E-02 0.  1.
         -2   -1    0    0    0  501 -0.00000000000E+00 -0.00000000000E+00 -0.20226284821E+01  0.20226301532E+01  0.26000000000E-02 0. -1.
        -11    1    1    2    0    0 -0.14808040221E+00  0.10807599741E+02  0.24506741395E+02  0.26784445374E+02  0.51100000000E-03 0. -1.
         11    1    1    2    0    0  0.14808040221E+00 -0.10807599741E+02  0.32163612734E+02  0.33931167448E+02  0.51100000000E-03 0.  1.
<mgrwt>
<rscale>  0 0.21791205E+02</rscale>
<asrwt>0</asrwt>
<pdfrwt beam="1">  1        2 0.90296903E-02 0.21791205E+02</pdfrwt>
<pdfrwt beam="2">  1       -2 0.31117373E-03 0.21791205E+02</pdfrwt>
<totfact> 0.39210963E+06</totfact>
</mgrwt>
</event>
<event>
 4    1  0.1433582E+000  0.4298023E+02  0.7818608E-02  0.1487359E+00
          2   -1    0    0  501    0  0.00000000000E+00  0.00000000000E+00  0.57072426313E+02  0.57072426372E+02  0.26000000000E-02 0. -1.
         -2   -1    0    0    0  501 -0.00000000000E+00 -0.00000000000E+00 -0.80919099582E+01  0.80919103759E+01  0.26000000000E-02 0.  1.
        -11    1    1    2    0    0 -0.80458712868E+01  0.14895751109E+02  0.44558769620E+02  0.47666585741E+02  0.51100000000E-03 0. -1.
         11    1    1    2    0    0  0.80458712868E+01 -0.14895751109E+02  0.44217467347E+01  0.17497751007E+02  0.51100000000E-03 0.  1.
<mgrwt>
<rscale>  0 0.42980226E+02</rscale>
<asrwt>0</asrwt>
<pdfrwt beam="1">  1        2 0.87803734E-02 0.42980226E+02</pdfrwt>
<pdfrwt beam="2">  1       -2 0.12449092E-02 0.42980226E+02</pdfrwt>
<totfact> 0.77267561E+05</totfact>
</mgrwt>
</event>
<event>
 4    1  0.1433582E+000  0.7224534E+02  0.7818608E-02  0.1352620E+00
          2   -1    0    0  501    0  0.00000000000E+00  0.00000000000E+00  0.75797045792E+01  0.75797050251E+01  0.26000000000E-02 0. -1.
         -2   -1    0    0    0  501 -0.00000000000E+00 -0.00000000000E+00 -0.17215013867E+03  0.17215013869E+03  0.26000000000E-02 0.  1.
        -11    1    1    2    0    0 -0.16977767954E+02 -0.30102143651E+02 -0.10843209988E+03  0.11380643190E+03  0.51100000000E-03 0. -1.
         11    1    1    2    0    0  0.16977767954E+02  0.30102143651E+02 -0.56138334210E+02  0.65923411814E+02  0.51100000000E-03 0.  1.
<mgrwt>
<rscale>  0 0.72245339E+02</rscale>
<asrwt>0</asrwt>
<pdfrwt beam="1">  1        2 0.11661086E-02 0.72245339E+02</pdfrwt>
<pdfrwt beam="2">  1       -2 0.26484634E-01 0.72245339E+02</pdfrwt>
<totfact> 0.11954674E+05</totfact>
</mgrwt>
</event>
<event>
 4    1  0.1433582E+000  0.2655149E+02  0.7818608E-02  0.1639668E+00
          2   -1    0    0  501    0  0.00000000000E+00  0.00000000000E+00  0.20056496563E+02  0.20056496732E+02  0.26000000000E-02 0.  1.
         -2   -1    0    0    0  501 -0.00000000000E+00 -0.00000000000E+00 -0.87874492620E+01  0.87874496467E+01  0.26000000000E-02 0. -1.
        -11    1    1    2    0    0  0.12456172194E+02  0.42085256974E+01  0.76310080979E+01  0.15201980106E+02  0.51100000000E-03 0.  1.
         11    1    1    2    0    0 -0.12456172194E+02 -0.42085256974E+01  0.36380392035E+01  0.13641966273E+02  0.51100000000E-03 0. -1.
<mgrwt>
<rscale>  0 0.26551494E+02</rscale>
<asrwt>0</asrwt>
<pdfrwt beam="1">  1        2 0.30856149E-02 0.26551494E+02</pdfrwt>
<pdfrwt beam="2">  1       -2 0.13519153E-02 0.26551494E+02</pdfrwt>
<totfact> 0.21631986E+06</totfact>
</mgrwt>
</event>
<event>
 4    1  0.1433582E+000  0.1157573E+03  0.7818608E-02  0.1250265E+00
          2   -1    0    0  501    0  0.00000000000E+00  0.00000000000E+00  0.44866016183E+02  0.44866016258E+02  0.26000000000E-02 0. -1.
         -2   -1    0    0    0  501 -0.00000000000E+00 -0.00000000000E+00 -0.74665416864E+02  0.74665416910E+02  0.26000000000E-02 0.  1.
        -11    1    1    2    0    0  0.22802046816E+02  0.10782268824E+02 -0.68691797877E+02  0.73176182982E+02  0.51100000000E-03 0.  1.
         11    1    1    2    0    0 -0.22802046816E+02 -0.10782268824E+02  0.38892397195E+02  0.46355250186E+02  0.51100000000E-03 0. -1.
<mgrwt>
<rscale>  0 0.11575733E+03</rscale>
<asrwt>0</asrwt>
<pdfrwt beam="1">  1        2 0.69024641E-02 0.11575733E+03</pdfrwt>
<pdfrwt beam="2">  1       -2 0.11486987E-01 0.11575733E+03</pdfrwt>
<totfact> 0.48573456E+04</totfact>
</mgrwt>
</event>
<event>
 4    1  0.1433582E+000  0.2955954E+02  0.7818608E-02  0.1603009E+00
          2   -1    0    0  501    0  0.00000000000E+00  0.00000000000E+00  0.38937295565E+01  0.38937304246E+01  0.26000000000E-02 0.  1.
         -2   -1    0    0    0  501 -0.00000000000E+00 -0.00000000000E+00 -0.56100859714E+02  0.56100859774E+02  0.26000000000E-02 0. -1.
        -11    1    1    2    0    0 -0.10700258165E+02  0.97065150015E+01 -0.19772702110E+02  0.24488195264E+02  0.51100000000E-03 0.  1.
         11    1    1    2    0    0  0.10700258165E+02 -0.97065150015E+01 -0.32434428047E+02  0.35506394935E+02  0.51100000000E-03 0. -1.
<mgrwt>
<rscale>  0 0.29559540E+02</rscale>
<asrwt>0</asrwt>
<pdfrwt beam="1">  1        2 0.59903543E-03 0.29559540E+02</pdfrwt>
<pdfrwt beam="2">  1       -2 0.86309010E-02 0.29559540E+02</pdfrwt>
<totfact> 0.13837558E+06</totfact>
</mgrwt>
</event>
<event>
 4    1  0.1433582E+000  0.2671196E+02  0.7818608E-02  0.1637564E+00
          2   -1    0    0  501    0  0.00000000000E+00  0.00000000000E+00  0.77594342001E+01  0.77594346357E+01  0.26000000000E-02 0.  1.
         -2   -1    0    0    0  501 -0.00000000000E+00 -0.00000000000E+00 -0.22989066163E+02  0.22989066310E+02  0.26000000000E-02 0. -1.
        -11    1    1    2    0    0 -0.12894851186E+02 -0.20693824799E+01 -0.43952711597E+01  0.13779620451E+02  0.51100000000E-03 0.  1.
         11    1    1    2    0    0  0.12894851186E+02  0.20693824799E+01 -0.10834360804E+02  0.16968880495E+02  0.51100000000E-03 0. -1.
<mgrwt>
<rscale>  0 0.26711957E+02</rscale>
<asrwt>0</asrwt>
<pdfrwt beam="1">  1        2 0.11937592E-02 0.26711957E+02</pdfrwt>
<pdfrwt beam="2">  1       -2 0.35367794E-02 0.26711957E+02</pdfrwt>
<totfact> 0.19480205E+06</totfact>
</mgrwt>
</event>
<event>
 4    1  0.1433582E+000  0.4081124E+02  0.7818608E-02  0.1502325E+00
         -2   -1    0    0    0  501 -0.00000000000E+00  0.00000000000E+00  0.55048442036E+02  0.55048442097E+02  0.26000000000E-02 0. -1.
          2   -1    0    0  501    0  0.00000000000E+00 -0.00000000000E+00 -0.75640535206E+01  0.75640539674E+01  0.26000000000E-02 0.  1.
        -11    1    1    2    0    0  0.91579992079E+01 -0.82238294847E+01 -0.12274991026E+01  0.12369602871E+02  0.51100000000E-03 0.  1.
         11    1    1    2    0    0 -0.91579992079E+01  0.82238294847E+01  0.48711887618E+02  0.50242893193E+02  0.51100000000E-03 0. -1.
<mgrwt>
<rscale>  0 0.40811242E+02</rscale>
<asrwt>0</asrwt>
<pdfrwt beam="2">  1        2 0.11637006E-02 0.40811242E+02</pdfrwt>
<pdfrwt beam="1">  1       -2 0.84689909E-02 0.40811242E+02</pdfrwt>
<totfact> 0.65157504E+05</totfact>
</mgrwt>
</event>
<event>
 4    1  0.1433582E+000  0.2357586E+02  0.7818608E-02  0.1682342E+00
          2   -1    0    0  501    0  0.00000000000E+00  0.00000000000E+00  0.89339848497E+02  0.89339848535E+02  0.26000000000E-02 0.  1.
         -2   -1    0    0    0  501 -0.00000000000E+00 -0.00000000000E+00 -0.15553553079E+01  0.15553574810E+01  0.26000000000E-02 0. -1.
        -11    1    1    2    0    0  0.10655766224E+02 -0.22534491684E+01  0.61276763106E+02  0.62237168027E+02  0.51100000000E-03 0. -1.
         11    1    1    2    0    0 -0.10655766224E+02  0.22534491684E+01  0.26507730083E+02  0.28658037989E+02  0.51100000000E-03 0.  1.
<mgrwt>
<rscale>  0 0.23575861E+02</rscale>
<asrwt>0</asrwt>
<pdfrwt beam="1">  1        2 0.13744596E-01 0.23575861E+02</pdfrwt>
<pdfrwt beam="2">  1       -2 0.23928554E-03 0.23575861E+02</pdfrwt>
<totfact> 0.35587920E+06</totfact>
</mgrwt>
</event>
<event>
 4    1  0.1433582E+000  0.3069307E+02  0.7818608E-02  0.1590552E+00
          2   -1    0    0  501    0  0.00000000000E+00  0.00000000000E+00  0.64472883218E+01  0.64472888461E+01  0.26000000000E-02 0.  1.
         -2   -1    0    0    0  501 -0.00000000000E+00 -0.00000000000E+00 -0.36529473690E+02  0.36529473782E+02  0.26000000000E-02 0. -1.
        -11    1    1    2    0    0  0.15320575348E+02  0.79250269432E+00 -0.15614961544E+02  0.21890068839E+02  0.51100000000E-03 0. -1.
         11    1    1    2    0    0 -0.15320575348E+02 -0.79250269432E+00 -0.14467223824E+02  0.21086693789E+02  0.51100000000E-03 0.  1.
<mgrwt>
<rscale>  0 0.30693065E+02</rscale>
<asrwt>0</asrwt>
<pdfrwt beam="1">  1        2 0.99189059E-03 0.30693065E+02</pdfrwt>
<pdfrwt beam="2">  1       -2 0.56199189E-02 0.30693065E+02</pdfrwt>
<totfact> 0.13481552E+06</totfact>
</mgrwt>
</event>
<event>
 4    1  0.1433582E+000  0.2277669E+02  0.7818608E-02  0.1695156E+00
         -2   -1    0    0    0  501 -0.00000000000E+00  0.00000000000E+00  0.11765824885E+01  0.11765853612E+01  0.26000000000E-02 0. -1.
          2   -1    0    0  501    0  0.00000000000E+00 -0.00000000000E+00 -0.11022964619E+03  0.11022964622E+03  0.26000000000E-02 0.  1.
        -11    1    1    2    0    0  0.10680256688E+02  0.39474531617E+01 -0.53498632454E+02  0.54696928105E+02  0.51100000000E-03 0. -1.
         11    1    1    2    0    0 -0.10680256688E+02 -0.39474531617E+01 -0.55554431249E+02  0.56709303479E+02  0.51100000000E-03 0.  1.
<mgrwt>
<rscale>  0 0.22776693E+02</rscale>
<asrwt>0</asrwt>
<pdfrwt beam="2">  1        2 0.16958399E-01 0.22776693E+02</pdfrwt>
<pdfrwt beam="1">  1       -2 0.18101300E-03 0.22776693E+02</pdfrwt>
<totfact> 0.40390166E+06</totfact>
</mgrwt>
</event>
<event>
 4    1  0.1433582E+000  0.2338524E+02  0.7818608E-02  0.1685341E+00
          2   -1    0    0  501    0  0.00000000000E+00  0.00000000000E+00  0.38457834029E+02  0.38457834117E+02  0.26000000000E-02 0. -1.
         -2   -1    0    0    0  501 -0.00000000000E+00 -0.00000000000E+00 -0.35549921869E+01  0.35549931377E+01  0.26000000000E-02 0.  1.
        -11    1    1    2    0    0 -0.21432217353E+01  0.11220181807E+02  0.12966710391E+02  0.17280667169E+02  0.51100000000E-03 0. -1.
         11    1    1    2    0    0  0.21432217353E+01 -0.11220181807E+02  0.21936131452E+02  0.24732160086E+02  0.51100000000E-03 0.  1.
<mgrwt>
<rscale>  0 0.23385236E+02</rscale>
<asrwt>0</asrwt>
<pdfrwt beam="1">  1        2 0.59165898E-02 0.23385236E+02</pdfrwt>
<pdfrwt beam="2">  1       -2 0.54692197E-03 0.23385236E+02</pdfrwt>
<totfact> 0.31334410E+06</totfact>
</mgrwt>
</event>
<event>
 4    1  0.1433582E+000  0.2871735E+02  0.7818608E-02  0.1612715E+00
          2   -1    0    0  501    0  0.00000000000E+00  0.00000000000E+00  0.23597465327E+02  0.23597465470E+02  0.26000000000E-02 0.  1.
         -2   -1    0    0    0  501 -0.00000000000E+00 -0.00000000000E+00 -0.87370181728E+01  0.87370185597E+01  0.26000000000E-02 0. -1.
        -11    1    1    2    0    0 -0.13590294797E+02 -0.91075922959E+00  0.23141296717E+01  0.13815961474E+02  0.51100000000E-03 0. -1.
         11    1    1    2    0    0  0.13590294797E+02  0.91075922959E+00  0.12546317482E+02  0.18518522556E+02  0.51100000000E-03 0.  1.
<mgrwt>
<rscale>  0 0.28717346E+02</rscale>
<asrwt>0</asrwt>
<pdfrwt beam="1">  1        2 0.36303792E-02 0.28717346E+02</pdfrwt>
<pdfrwt beam="2">  1       -2 0.13441567E-02 0.28717346E+02</pdfrwt>
<totfact> 0.18252448E+06</totfact>
</mgrwt>
</event>
<event>
 4    1  0.1433582E+000  0.2441604E+02  0.7818608E-02  0.1669534E+00
          2   -1    0    0  501    0  0.00000000000E+00  0.00000000000E+00  0.81261975872E+02  0.81261975914E+02  0.26000000000E-02 0. -1.
         -2   -1    0    0    0  501 -0.00000000000E+00 -0.00000000000E+00 -0.18340153712E+01  0.18340172142E+01  0.26000000000E-02 0.  1.
        -11    1    1    2    0    0 -0.75436674595E+01 -0.79271202642E+01  0.58132799627E+02  0.59153770354E+02  0.51100000000E-03 0. -1.
         11    1    1    2    0    0  0.75436674595E+01  0.79271202642E+01  0.21295160874E+02  0.23942222774E+02  0.51100000000E-03 0.  1.
<mgrwt>
<rscale>  0 0.24416043E+02</rscale>
<asrwt>0</asrwt>
<pdfrwt beam="1">  1        2 0.12501841E-01 0.24416043E+02</pdfrwt>
<pdfrwt beam="2">  1       -2 0.28215640E-03 0.24416043E+02</pdfrwt>
<totfact> 0.32195211E+06</totfact>
</mgrwt>
</event>
<event>
 4    1  0.1433582E+000  0.3658736E+02  0.7818608E-02  0.1534940E+00
          2   -1    0    0  501    0  0.00000000000E+00  0.00000000000E+00  0.45871541839E+01  0.45871549207E+01  0.26000000000E-02 0. -1.
         -2   -1    0    0    0  501 -0.00000000000E+00 -0.00000000000E+00 -0.72955617523E+02  0.72955617569E+02  0.26000000000E-02 0.  1.
        -11    1    1    2    0    0  0.14388726441E+01 -0.18123771577E+02 -0.29883784081E+02  0.34979737019E+02  0.51100000000E-03 0.  1.
         11    1    1    2    0    0 -0.14388726441E+01  0.18123771577E+02 -0.38484679259E+02  0.42563035472E+02  0.51100000000E-03 0. -1.
<mgrwt>
<rscale>  0 0.36587358E+02</rscale>
<asrwt>0</asrwt>
<pdfrwt beam="1">  1        2 0.70571614E-03 0.36587358E+02</pdfrwt>
<pdfrwt beam="2">  1       -2 0.11223940E-01 0.36587358E+02</pdfrwt>
<totfact> 0.80229251E+05</totfact>
</mgrwt>
</event>
<event>
 4    1  0.1433582E+000  0.2082429E+02  0.7818608E-02  0.1729416E+00
          2   -1    0    0  501    0  0.00000000000E+00  0.00000000000E+00  0.19857377078E+01  0.19857394100E+01  0.26000000000E-02 0.  1.
         -2   -1    0    0    0  501 -0.00000000000E+00 -0.00000000000E+00 -0.54595674069E+02  0.54595674131E+02  0.26000000000E-02 0. -1.
        -11    1    1    2    0    0 -0.64382233020E+01  0.81765353764E+01 -0.25419146450E+02  0.27467061302E+02  0.51100000000E-03 0.  1.
         11    1    1    2    0    0  0.64382233020E+01 -0.81765353764E+01 -0.27190789911E+02  0.29114352239E+02  0.51100000000E-03 0. -1.
<mgrwt>
<rscale>  0 0.20824288E+02</rscale>
<asrwt>0</asrwt>
<pdfrwt beam="1">  1        2 0.30549829E-03 0.20824288E+02</pdfrwt>
<pdfrwt beam="2">  1       -2 0.83993335E-02 0.20824288E+02</pdfrwt>
<totfact> 0.30621791E+06</totfact>
</mgrwt>
</event>
<event>
 4    1  0.1433582E+000  0.2866981E+02  0.7818608E-02  0.1613275E+00
         -2   -1    0    0    0  501 -0.00000000000E+00  0.00000000000E+00  0.12621075210E+01  0.12621101990E+01  0.26000000000E-02 0. -1.
          2   -1    0    0  501    0  0.00000000000E+00 -0.00000000000E+00 -0.16281441804E+03  0.16281441806E+03  0.26000000000E-02 0.  1.
        -11    1    1    2    0    0 -0.13635767028E+02 -0.43407554368E+01 -0.85609348230E+02  0.86797101362E+02  0.51100000000E-03 0.  1.
         11    1    1    2    0    0  0.13635767028E+02  0.43407554368E+01 -0.75942962293E+02  0.77279426902E+02  0.51100000000E-03 0. -1.
<mgrwt>
<rscale>  0 0.28669812E+02</rscale>
<asrwt>0</asrwt>
<pdfrwt beam="2">  1        2 0.25048356E-01 0.28669812E+02</pdfrwt>
<pdfrwt beam="1">  1       -2 0.19417072E-03 0.28669812E+02</pdfrwt>
<totfact> 0.26478071E+06</totfact>
</mgrwt>
</event>
<event>
 4    1  0.1433582E+000  0.2688995E+02  0.7818608E-02  0.1635251E+00
         -2   -1    0    0    0  501 -0.00000000000E+00  0.00000000000E+00  0.29254557322E+01  0.29254568876E+01  0.26000000000E-02 0. -1.
          2   -1    0    0  501    0  0.00000000000E+00 -0.00000000000E+00 -0.61791171774E+02  0.61791171828E+02  0.26000000000E-02 0.  1.
        -11    1    1    2    0    0  0.12616017480E+02 -0.26260026815E+01 -0.20202966203E+02  0.23962880269E+02  0.51100000000E-03 0.  1.
         11    1    1    2    0    0 -0.12616017480E+02  0.26260026815E+01 -0.38662749838E+02  0.40753748447E+02  0.51100000000E-03 0. -1.
<mgrwt>
<rscale>  0 0.26889952E+02</rscale>
<asrwt>0</asrwt>
<pdfrwt beam="2">  1        2 0.95063332E-02 0.26889952E+02</pdfrwt>
<pdfrwt beam="1">  1       -2 0.45007026E-03 0.26889952E+02</pdfrwt>
<totfact> 0.24411835E+06</totfact>
</mgrwt>
</event>
<event>
 4    1  0.1433582E+000  0.2207879E+02  0.7818608E-02  0.1706893E+00
         -2   -1    0    0    0  501 -0.00000000000E+00  0.00000000000E+00  0.24061460166E+02  0.24061460306E+02  0.26000000000E-02 0. -1.
          2   -1    0    0  501    0  0.00000000000E+00 -0.00000000000E+00 -0.50648733854E+01  0.50648740527E+01  0.26000000000E-02 0.  1.
        -11    1    1    2    0    0 -0.10360927793E+02  0.38098711711E+01  0.94116104014E+01  0.14506631369E+02  0.51100000000E-03 0.  1.
         11    1    1    2    0    0  0.10360927793E+02 -0.38098711711E+01  0.95849763791E+01  0.14619702990E+02  0.51100000000E-03 0. -1.
<mgrwt>
<rscale>  0 0.22078792E+02</rscale>
<asrwt>0</asrwt>
<pdfrwt beam="2">  1        2 0.77921134E-03 0.22078792E+02</pdfrwt>
<pdfrwt beam="1">  1       -2 0.37017632E-02 0.22078792E+02</pdfrwt>
<totfact> 0.29657100E+06</totfact>
</mgrwt>
</event>
<event>
 4    1  0.1433582E+000  0.3509944E+02  0.7818608E-02  0.1547719E+00
          2   -1    0    0  501    0  0.00000000000E+00  0.00000000000E+00  0.29535296724E+02  0.29535296839E+02  0.26000000000E-02 0. -1.
         -2   -1    0    0    0  501 -0.00000000000E+00 -0.00000000000E+00 -0.10427954917E+02  0.10427955241E+02  0.26000000000E-02 0.  1.
        -11    1    1    2    0    0  0.11454932077E+02 -0.12689191005E+02  0.14073919288E+02  0.22142859834E+02  0.51100000000E-03 0. -1.
         11    1    1    2    0    0 -0.11454932077E+02  0.12689191005E+02  0.50334225194E+01  0.17820392246E+02  0.51100000000E-03 0.  1.
<mgrwt>
<rscale>  0 0.35099445E+02</rscale>
<asrwt>0</asrwt>
<pdfrwt beam="1">  1        2 0.45438919E-02 0.35099445E+02</pdfrwt>
<pdfrwt beam="2">  1       -2 0.16043008E-02 0.35099445E+02</pdfrwt>
<totfact> 0.11510725E+06</totfact>
</mgrwt>
</event>
<event>
 4    1  0.1433582E+000  0.2498504E+02  0.7818608E-02  0.1661217E+00
          2   -1    0    0  501    0  0.00000000000E+00  0.00000000000E+00  0.63394199870E+02  0.63394199924E+02  0.26000000000E-02 0. -1.
         -2   -1    0    0    0  501 -0.00000000000E+00 -0.00000000000E+00 -0.24617869551E+01  0.24617883281E+01  0.26000000000E-02 0.  1.
        -11    1    1    2    0    0  0.72820379835E+01 -0.96086192639E+01  0.21840430322E+02  0.24947104808E+02  0.51100000000E-03 0.  1.
         11    1    1    2    0    0 -0.72820379835E+01  0.96086192639E+01  0.39091982593E+02  0.40908883444E+02  0.51100000000E-03 0. -1.
<mgrwt>
<rscale>  0 0.24985040E+02</rscale>
<asrwt>0</asrwt>
<pdfrwt beam="1">  1        2 0.97529539E-02 0.24985040E+02</pdfrwt>
<pdfrwt beam="2">  1       -2 0.37873657E-03 0.24985040E+02</pdfrwt>
<totfact> 0.29088582E+06</totfact>
</mgrwt>
</event>
<event>
 4    1  0.1433582E+000  0.1058909E+03  0.7818608E-02  0.1268374E+00
         -2   -1    0    0    0  501 -0.00000000000E+00  0.00000000000E+00  0.10800938159E+03  0.10800938162E+03  0.26000000000E-02 0.  1.
          2   -1    0    0  501    0  0.00000000000E+00 -0.00000000000E+00 -0.25953516155E+02  0.25953516285E+02  0.26000000000E-02 0. -1.
        -11    1    1    2    0    0  0.74839677951E+01 -0.29032628006E+02  0.96235124589E+02  0.10079733363E+03  0.51100000000E-03 0.  1.
         11    1    1    2    0    0 -0.74839677951E+01  0.29032628006E+02 -0.14179259156E+02  0.33165564270E+02  0.51100000000E-03 0. -1.
<mgrwt>
<rscale>  0 0.10589095E+03</rscale>
<asrwt>0</asrwt>
<pdfrwt beam="2">  1        2 0.39928486E-02 0.10589095E+03</pdfrwt>
<pdfrwt beam="1">  1       -2 0.16616828E-01 0.10589095E+03</pdfrwt>
<totfact> 0.53681587E+04</totfact>
</mgrwt>
</event>
<event>
 4    1  0.1433582E+000  0.9274463E+02  0.7818608E-02  0.1296338E+00
         -2   -1    0    0    0  501 -0.00000000000E+00  0.00000000000E+00  0.94332682995E+02  0.94332683030E+02  0.26000000000E-02 0. -1.
          2   -1    0    0  501    0  0.00000000000E+00 -0.00000000000E+00 -0.22795827862E+02  0.22795828011E+02  0.26000000000E-02 0.  1.
        -11    1    1    2    0    0  0.38105435792E+02  0.13832316793E+02  0.64206002337E+02  0.75932654117E+02  0.51100000000E-03 0. -1.
         11    1    1    2    0    0 -0.38105435792E+02 -0.13832316793E+02  0.73308527947E+01  0.41195856924E+02  0.51100000000E-03 0.  1.
<mgrwt>
<rscale>  0 0.92744630E+02</rscale>
<asrwt>0</asrwt>
<pdfrwt beam="2">  1        2 0.35070504E-02 0.92744630E+02</pdfrwt>
<pdfrwt beam="1">  1       -2 0.14512721E-01 0.92744630E+02</pdfrwt>
<totfact> 0.77827196E+04</totfact>
</mgrwt>
</event>
<event>
 4    1  0.1433582E+000  0.2697789E+02  0.7818608E-02  0.1634117E+00
          2   -1    0    0  501    0  0.00000000000E+00  0.00000000000E+00  0.18882816521E+02  0.18882816700E+02  0.26000000000E-02 0.  1.
         -2   -1    0    0    0  501 -0.00000000000E+00 -0.00000000000E+00 -0.96358298495E+01  0.96358302003E+01  0.26000000000E-02 0. -1.
        -11    1    1    2    0    0  0.10403763918E+02  0.24900806419E+01 -0.40623912192E+01  0.11442981602E+02  0.51100000000E-03 0. -1.
         11    1    1    2    0    0 -0.10403763918E+02 -0.24900806419E+01  0.13309377891E+02  0.17075665298E+02  0.51100000000E-03 0.  1.
<mgrwt>
<rscale>  0 0.26977888E+02</rscale>
<asrwt>0</asrwt>
<pdfrwt beam="1">  1        2 0.29050487E-02 0.26977888E+02</pdfrwt>
<pdfrwt beam="2">  1       -2 0.14824354E-02 0.26977888E+02</pdfrwt>
<totfact> 0.20702173E+06</totfact>
</mgrwt>
</event>
<event>
 4    1  0.1433582E+000  0.3743680E+02  0.7818608E-02  0.1527968E+00
         -2   -1    0    0    0  501 -0.00000000000E+00  0.00000000000E+00  0.89398852487E+02  0.89398852525E+02  0.26000000000E-02 0. -1.
          2   -1    0    0  501    0  0.00000000000E+00 -0.00000000000E+00 -0.39192726359E+01  0.39192734983E+01  0.26000000000E-02 0.  1.
        -11    1    1    2    0    0  0.83025201650E+01  0.10184117909E+02  0.75971153362E+02  0.77099054742E+02  0.51100000000E-03 0. -1.
         11    1    1    2    0    0 -0.83025201650E+01 -0.10184117909E+02  0.95084264894E+01  0.16219071282E+02  0.51100000000E-03 0.  1.
<mgrwt>
<rscale>  0 0.37436801E+02</rscale>
<asrwt>0</asrwt>
<pdfrwt beam="2">  1        2 0.60296514E-03 0.37436801E+02</pdfrwt>
<pdfrwt beam="1">  1       -2 0.13753669E-01 0.37436801E+02</pdfrwt>
<totfact> 0.72796002E+05</totfact>
</mgrwt>
</event>
<event>
 4    1  0.1433582E+000  0.3147647E+02  0.7818608E-02  0.1582319E+00
          2   -1    0    0  501    0  0.00000000000E+00  0.00000000000E+00  0.76916546390E+02  0.76916546434E+02  0.26000000000E-02 0.  1.
         -2   -1    0    0    0  501 -0.00000000000E+00 -0.00000000000E+00 -0.32202702278E+01  0.32202712774E+01  0.26000000000E-02 0. -1.
        -11    1    1    2    0    0  0.80297225531E+01 -0.13531635516E+02  0.36001817692E+02  0.39290106660E+02  0.51100000000E-03 0.  1.
         11    1    1    2    0    0 -0.80297225531E+01  0.13531635516E+02  0.37694458471E+02  0.40846711051E+02  0.51100000000E-03 0. -1.
<mgrwt>
<rscale>  0 0.31476474E+02</rscale>
<asrwt>0</asrwt>
<pdfrwt beam="1">  1        2 0.11833315E-01 0.31476474E+02</pdfrwt>
<pdfrwt beam="2">  1       -2 0.49542628E-03 0.31476474E+02</pdfrwt>
<totfact> 0.17571329E+06</totfact>
</mgrwt>
</event>
<event>
 4    1  0.1433582E+000  0.2731414E+02  0.7818608E-02  0.1629828E+00
         -2   -1    0    0    0  501 -0.00000000000E+00  0.00000000000E+00  0.23807481291E+02  0.23807481433E+02  0.26000000000E-02 0.  1.
          2   -1    0    0  501    0  0.00000000000E+00 -0.00000000000E+00 -0.78343254560E+01  0.78343258875E+01  0.26000000000E-02 0. -1.
        -11    1    1    2    0    0 -0.10897980463E+02  0.62721939407E+01  0.18120604743E+01  0.12703934761E+02  0.51100000000E-03 0. -1.
         11    1    1    2    0    0  0.10897980463E+02 -0.62721939407E+01  0.14161095361E+02  0.18937872560E+02  0.51100000000E-03 0.  1.
<mgrwt>
<rscale>  0 0.27314140E+02</rscale>
<asrwt>0</asrwt>
<pdfrwt beam="2">  1        2 0.12052809E-02 0.27314140E+02</pdfrwt>
<pdfrwt beam="1">  1       -2 0.36626894E-02 0.27314140E+02</pdfrwt>
<totfact> 0.18460493E+06</totfact>
</mgrwt>
</event>
<event>
 4    1  0.1433582E+000  0.2253031E+02  0.7818608E-02  0.1699239E+00
          2   -1    0    0  501    0  0.00000000000E+00  0.00000000000E+00  0.38265758944E+02  0.38265759032E+02  0.26000000000E-02 0.  1.
         -2   -1    0    0    0  501 -0.00000000000E+00 -0.00000000000E+00 -0.33163779021E+01  0.33163789213E+01  0.26000000000E-02 0. -1.
        -11    1    1    2    0    0  0.10086885922E+02 -0.24839844316E+01  0.94323477334E+01  0.14031558370E+02  0.51100000000E-03 0. -1.
         11    1    1    2    0    0 -0.10086885922E+02  0.24839844316E+01  0.25517033309E+02  0.27550579584E+02  0.51100000000E-03 0.  1.
<mgrwt>
<rscale>  0 0.22530312E+02</rscale>
<asrwt>0</asrwt>
<pdfrwt beam="1">  1        2 0.58870399E-02 0.22530312E+02</pdfrwt>
<pdfrwt beam="2">  1       -2 0.51021208E-03 0.22530312E+02</pdfrwt>
<totfact> 0.34101279E+06</totfact>
</mgrwt>
</event>
<event>
 4    1  0.1433582E+000  0.2085232E+02  0.7818608E-02  0.1728891E+00
         -2   -1    0    0    0  501 -0.00000000000E+00  0.00000000000E+00  0.15070113107E+01  0.15070135535E+01  0.26000000000E-02 0. -1.
          2   -1    0    0  501    0  0.00000000000E+00 -0.00000000000E+00 -0.72132675955E+02  0.72132676002E+02  0.26000000000E-02 0.  1.
        -11    1    1    2    0    0 -0.27595476964E+01 -0.99188253149E+01 -0.29502873791E+02  0.31247684095E+02  0.51100000000E-03 0.  1.
         11    1    1    2    0    0  0.27595476964E+01  0.99188253149E+01 -0.41122790854E+02  0.42392005461E+02  0.51100000000E-03 0. -1.
<mgrwt>
<rscale>  0 0.20852323E+02</rscale>
<asrwt>0</asrwt>
<pdfrwt beam="2">  1        2 0.11097332E-01 0.20852323E+02</pdfrwt>
<pdfrwt beam="1">  1       -2 0.23184813E-03 0.20852323E+02</pdfrwt>
<totfact> 0.44923611E+06</totfact>
</mgrwt>
</event>
<event>
 4    1  0.1433582E+000  0.2432812E+02  0.7818608E-02  0.1670844E+00
          2   -1    0    0  501    0  0.00000000000E+00  0.00000000000E+00  0.94853994959E+01  0.94853998523E+01  0.26000000000E-02 0.  1.
         -2   -1    0    0    0  501 -0.00000000000E+00 -0.00000000000E+00 -0.15599170842E+02  0.15599171058E+02  0.26000000000E-02 0. -1.
        -11    1    1    2    0    0  0.89582924505E+01 -0.49561257955E+01  0.37162448362E+01  0.10891494960E+02  0.51100000000E-03 0.  1.
         11    1    1    2    0    0 -0.89582924505E+01  0.49561257955E+01 -0.98300161819E+01  0.14193075950E+02  0.51100000000E-03 0. -1.
<mgrwt>
<rscale>  0 0.24328122E+02</rscale>
<asrwt>0</asrwt>
<pdfrwt beam="1">  1        2 0.14592923E-02 0.24328122E+02</pdfrwt>
<pdfrwt beam="2">  1       -2 0.23998725E-02 0.24328122E+02</pdfrwt>
<totfact> 0.24876407E+06</totfact>
</mgrwt>
</event>
<event>
 4    1  0.1433582E+000  0.4092849E+02  0.7818608E-02  0.1501488E+00
          2   -1    0    0  501    0  0.00000000000E+00  0.00000000000E+00  0.23931711016E+02  0.23931711157E+02  0.26000000000E-02 0.  1.
         -2   -1    0    0    0  501 -0.00000000000E+00 -0.00000000000E+00 -0.17499182359E+02  0.17499182552E+02  0.26000000000E-02 0. -1.
        -11    1    1    2    0    0  0.19986544669E+02 -0.43795765236E+01  0.35986894333E+01  0.20774821882E+02  0.51100000000E-03 0. -1.
         11    1    1    2    0    0 -0.19986544669E+02  0.43795765236E+01  0.28338392238E+01  0.20656071827E+02  0.51100000000E-03 0.  1.
<mgrwt>
<rscale>  0 0.40928493E+02</rscale>
<asrwt>0</asrwt>
<pdfrwt beam="1">  1        2 0.36818017E-02 0.40928493E+02</pdfrwt>
<pdfrwt beam="2">  1       -2 0.26921819E-02 0.40928493E+02</pdfrwt>
<totfact> 0.76143261E+05</totfact>
</mgrwt>
</event>
<event>
 4    1  0.1433582E+000  0.2506796E+02  0.7818608E-02  0.1660028E+00
          2   -1    0    0  501    0  0.00000000000E+00  0.00000000000E+00  0.18298167585E+02  0.18298167770E+02  0.26000000000E-02 0. -1.
         -2   -1    0    0    0  501 -0.00000000000E+00 -0.00000000000E+00 -0.85855916795E+01  0.85855920732E+01  0.26000000000E-02 0.  1.
        -11    1    1    2    0    0 -0.59061619441E+01  0.99360092492E+01  0.10054399941E+02  0.15319855977E+02  0.51100000000E-03 0.  1.
         11    1    1    2    0    0  0.59061619441E+01 -0.99360092492E+01 -0.34182403484E+00  0.11563903867E+02  0.51100000000E-03 0. -1.
<mgrwt>
<rscale>  0 0.25067956E+02</rscale>
<asrwt>0</asrwt>
<pdfrwt beam="1">  1        2 0.28151027E-02 0.25067956E+02</pdfrwt>
<pdfrwt beam="2">  1       -2 0.13208603E-02 0.25067956E+02</pdfrwt>
<totfact> 0.24562553E+06</totfact>
</mgrwt>
</event>
<event>
 4    1  0.1433582E+000  0.5004114E+02  0.7818608E-02  0.1445120E+00
         -2   -1    0    0    0  501 -0.00000000000E+00  0.00000000000E+00  0.30573632781E+01  0.30573643836E+01  0.26000000000E-02 0. -1.
          2   -1    0    0  501    0  0.00000000000E+00 -0.00000000000E+00 -0.20476101990E+03  0.20476101992E+03  0.26000000000E-02 0.  1.
        -11    1    1    2    0    0  0.24254413622E+02 -0.17492047075E+01 -0.12531289837E+03  0.12765053386E+03  0.51100000000E-03 0.  1.
         11    1    1    2    0    0 -0.24254413622E+02  0.17492047075E+01 -0.76390758254E+02  0.80167850440E+02  0.51100000000E-03 0. -1.
<mgrwt>
<rscale>  0 0.50041141E+02</rscale>
<asrwt>0</asrwt>
<pdfrwt beam="2">  1        2 0.31501685E-01 0.50041141E+02</pdfrwt>
<pdfrwt beam="1">  1       -2 0.47036383E-03 0.50041141E+02</pdfrwt>
<totfact> 0.74044013E+05</totfact>
</mgrwt>
</event>
<event>
 4    1  0.1433582E+000  0.2514416E+02  0.7818608E-02  0.1658940E+00
          2   -1    0    0  501    0  0.00000000000E+00  0.00000000000E+00  0.46632883052E+02  0.46632883124E+02  0.26000000000E-02 0.  1.
         -2   -1    0    0    0  501 -0.00000000000E+00 -0.00000000000E+00 -0.33893917911E+01  0.33893927884E+01  0.26000000000E-02 0. -1.
        -11    1    1    2    0    0  0.10606858447E+02  0.27064389459E+01  0.93215839623E+01  0.14377836614E+02  0.51100000000E-03 0.  1.
         11    1    1    2    0    0 -0.10606858447E+02 -0.27064389459E+01  0.33921907298E+02  0.35644439299E+02  0.51100000000E-03 0. -1.
<mgrwt>
<rscale>  0 0.25144155E+02</rscale>
<asrwt>0</asrwt>
<pdfrwt beam="1">  1        2 0.71742896E-02 0.25144155E+02</pdfrwt>
<pdfrwt beam="2">  1       -2 0.52144499E-03 0.25144155E+02</pdfrwt>
<totfact> 0.27238501E+06</totfact>
</mgrwt>
</event>
<event>
 4    1  0.1433582E+000  0.2479114E+02  0.7818608E-02  0.1664020E+00
          2   -1    0    0  501    0  0.00000000000E+00  0.00000000000E+00  0.25381616098E+01  0.25381629415E+01  0.26000000000E-02 0. -1.
         -2   -1    0    0    0  501 -0.00000000000E+00 -0.00000000000E+00 -0.60535992317E+02  0.60535992373E+02  0.26000000000E-02 0.  1.
        -11    1    1    2    0    0 -0.25809966535E+01  0.11951098028E+02 -0.23809771568E+02  0.26765565755E+02  0.51100000000E-03 0.  1.
         11    1    1    2    0    0  0.25809966535E+01 -0.11951098028E+02 -0.34188059139E+02  0.36308589559E+02  0.51100000000E-03 0. -1.
<mgrwt>
<rscale>  0 0.24791142E+02</rscale>
<asrwt>0</asrwt>
<pdfrwt beam="1">  1        2 0.39048655E-03 0.24791142E+02</pdfrwt>
<pdfrwt beam="2">  1       -2 0.93132286E-02 0.24791142E+02</pdfrwt>
<totfact> 0.20420393E+06</totfact>
</mgrwt>
</event>
<event>
 4    1  0.1433582E+000  0.4160532E+02  0.7818608E-02  0.1496720E+00
          2   -1    0    0  501    0  0.00000000000E+00  0.00000000000E+00  0.13856655850E+03  0.13856655852E+03  0.26000000000E-02 0.  1.
         -2   -1    0    0    0  501 -0.00000000000E+00 -0.00000000000E+00 -0.31230516923E+01  0.31230527746E+01  0.26000000000E-02 0. -1.
        -11    1    1    2    0    0  0.10077191921E+02  0.17790797953E+02  0.80773695889E+02  0.83321379229E+02  0.51100000000E-03 0.  1.
         11    1    1    2    0    0 -0.10077191921E+02 -0.17790797953E+02  0.54669810915E+02  0.58368232066E+02  0.51100000000E-03 0. -1.
<mgrwt>
<rscale>  0 0.41605317E+02</rscale>
<asrwt>0</asrwt>
<pdfrwt beam="1">  1        2 0.21317934E-01 0.41605317E+02</pdfrwt>
<pdfrwt beam="2">  1       -2 0.48046954E-03 0.41605317E+02</pdfrwt>
<totfact> 0.10359961E+06</totfact>
</mgrwt>
</event>
<event>
 4    1  0.1433582E+000  0.6524883E+02  0.7818608E-02  0.1377038E+00
          2   -1    0    0  501    0  0.00000000000E+00  0.00000000000E+00  0.22070791926E+02  0.22070792079E+02  0.26000000000E-02 0.  1.
         -2   -1    0    0    0  501 -0.00000000000E+00 -0.00000000000E+00 -0.48224474463E+02  0.48224474533E+02  0.26000000000E-02 0. -1.
        -11    1    1    2    0    0 -0.20427246790E+02 -0.11582065270E+02 -0.37476561086E+02  0.44225663120E+02  0.51100000000E-03 0. -1.
         11    1    1    2    0    0  0.20427246790E+02  0.11582065270E+02  0.11322878549E+02  0.26069603492E+02  0.51100000000E-03 0.  1.
<mgrwt>
<rscale>  0 0.65248827E+02</rscale>
<asrwt>0</asrwt>
<pdfrwt beam="1">  1        2 0.33955065E-02 0.65248827E+02</pdfrwt>
<pdfrwt beam="2">  1       -2 0.74191499E-02 0.65248827E+02</pdfrwt>
<totfact> 0.21634254E+05</totfact>
</mgrwt>
</event>
<event>
 4    1  0.1433582E+000  0.3361000E+02  0.7818608E-02  0.1561302E+00
          2   -1    0    0  501    0  0.00000000000E+00  0.00000000000E+00  0.75852787045E+01  0.75852791501E+01  0.26000000000E-02 0. -1.
         -2   -1    0    0    0  501 -0.00000000000E+00 -0.00000000000E+00 -0.37231057092E+02  0.37231057183E+02  0.26000000000E-02 0.  1.
        -11    1    1    2    0    0  0.17646813762E+00  0.16643424396E+02 -0.11731981781E+02  0.20363548644E+02  0.51100000000E-03 0. -1.
         11    1    1    2    0    0 -0.17646813762E+00 -0.16643424396E+02 -0.17913796606E+02  0.24452787688E+02  0.51100000000E-03 0.  1.
<mgrwt>
<rscale>  0 0.33609996E+02</rscale>
<asrwt>0</asrwt>
<pdfrwt beam="1">  1        2 0.11669660E-02 0.33609996E+02</pdfrwt>
<pdfrwt beam="2">  1       -2 0.57278549E-02 0.33609996E+02</pdfrwt>
<totfact> 0.10901494E+06</totfact>
</mgrwt>
</event>
<event>
 4    1  0.1433582E+000  0.3812747E+02  0.7818608E-02  0.1522461E+00
          2   -1    0    0  501    0  0.00000000000E+00  0.00000000000E+00  0.29167779260E+01  0.29167790848E+01  0.26000000000E-02 0. -1.
         -2   -1    0    0    0  501 -0.00000000000E+00 -0.00000000000E+00 -0.12459839458E+03  0.12459839461E+03  0.26000000000E-02 0.  1.
        -11    1    1    2    0    0 -0.16030275380E+02 -0.92747242754E+01 -0.45721967305E+02  0.49330401718E+02  0.51100000000E-03 0. -1.
         11    1    1    2    0    0  0.16030275380E+02  0.92747242754E+01 -0.75959649351E+02  0.78184771976E+02  0.51100000000E-03 0.  1.
<mgrwt>
<rscale>  0 0.38127466E+02</rscale>
<asrwt>0</asrwt>
<pdfrwt beam="1">  1        2 0.44873525E-03 0.38127466E+02</pdfrwt>
<pdfrwt beam="2">  1       -2 0.19168980E-01 0.38127466E+02</pdfrwt>
<totfact> 0.64034881E+05</totfact>
</mgrwt>
</event>
<event>
 4    1  0.1433582E+000  0.3078028E+02  0.7818608E-02  0.1589620E+00
          2   -1    0    0  501    0  0.00000000000E+00  0.00000000000E+00  0.66297764377E+02  0.66297764428E+02  0.26000000000E-02 0. -1.
         -2   -1    0    0    0  501 -0.00000000000E+00 -0.00000000000E+00 -0.35726147019E+01  0.35726156480E+01  0.26000000000E-02 0.  1.
        -11    1    1    2    0    0 -0.66345293072E+01  0.12749196219E+02  0.43857203732E+02  0.46152067157E+02  0.51100000000E-03 0. -1.
         11    1    1    2    0    0  0.66345293072E+01 -0.12749196219E+02  0.18867945942E+02  0.23718312919E+02  0.51100000000E-03 0.  1.
<mgrwt>
<rscale>  0 0.30780280E+02</rscale>
<asrwt>0</asrwt>
<pdfrwt beam="1">  1        2 0.10199656E-01 0.30780280E+02</pdfrwt>
<pdfrwt beam="2">  1       -2 0.54963312E-03 0.30780280E+02</pdfrwt>
<totfact> 0.17985440E+06</totfact>
</mgrwt>
</event>
<event>
 4    1  0.1433582E+000  0.4487828E+02  0.7818608E-02  0.1475103E+00
         -2   -1    0    0    0  501 -0.00000000000E+00  0.00000000000E+00  0.26453829459E+01  0.26453842236E+01  0.26000000000E-02 0.  1.
          2   -1    0    0  501    0  0.00000000000E+00 -0.00000000000E+00 -0.19033724844E+03  0.19033724846E+03  0.26000000000E-02 0. -1.
        -11    1    1    2    0    0  0.33479074648E+01  0.21821960071E+02 -0.11110475050E+03  0.11327697034E+03  0.51100000000E-03 0. -1.
         11    1    1    2    0    0 -0.33479074648E+01 -0.21821960071E+02 -0.76587115002E+02  0.79705662348E+02  0.51100000000E-03 0.  1.
<mgrwt>
<rscale>  0 0.44878281E+02</rscale>
<asrwt>0</asrwt>
<pdfrwt beam="2">  1        2 0.29282643E-01 0.44878281E+02</pdfrwt>
<pdfrwt beam="1">  1       -2 0.40698224E-03 0.44878281E+02</pdfrwt>
<totfact> 0.94771164E+05</totfact>
</mgrwt>
</event>
<event>
 4    1  0.1433582E+000  0.2593773E+02  0.7818608E-02  0.1647887E+00
          2   -1    0    0  501    0  0.00000000000E+00  0.00000000000E+00  0.29317339186E+01  0.29317350715E+01  0.26000000000E-02 0. -1.
         -2   -1    0    0    0  501 -0.00000000000E+00 -0.00000000000E+00 -0.57369280582E+02  0.57369280641E+02  0.26000000000E-02 0.  1.
        -11    1    1    2    0    0  0.10843773297E+02 -0.26592271101E+01 -0.11879673298E+02  0.16302930598E+02  0.51100000000E-03 0. -1.
         11    1    1    2    0    0 -0.10843773297E+02  0.26592271101E+01 -0.42557873365E+02  0.43998085115E+02  0.51100000000E-03 0.  1.
<mgrwt>
<rscale>  0 0.25937733E+02</rscale>
<asrwt>0</asrwt>
<pdfrwt beam="1">  1        2 0.45103612E-03 0.25937733E+02</pdfrwt>
<pdfrwt beam="2">  1       -2 0.88260424E-02 0.25937733E+02</pdfrwt>
<totfact> 0.18594907E+06</totfact>
</mgrwt>
</event>
<event>
 4    1  0.1433582E+000  0.2129003E+02  0.7818608E-02  0.1720828E+00
          2   -1    0    0  501    0  0.00000000000E+00  0.00000000000E+00  0.17546249527E+01  0.17546268790E+01  0.26000000000E-02 0.  1.
         -2   -1    0    0    0  501 -0.00000000000E+00 -0.00000000000E+00 -0.64581497809E+02  0.64581497862E+02  0.26000000000E-02 0. -1.
        -11    1    1    2    0    0 -0.82807685272E+01  0.61082227860E+01 -0.22917521342E+02  0.25121590271E+02  0.51100000000E-03 0.  1.
         11    1    1    2    0    0  0.82807685272E+01 -0.61082227860E+01 -0.39909351515E+02  0.41214534470E+02  0.51100000000E-03 0. -1.
<mgrwt>
<rscale>  0 0.21290033E+02</rscale>
<asrwt>0</asrwt>
<pdfrwt beam="1">  1        2 0.26994250E-03 0.21290033E+02</pdfrwt>
<pdfrwt beam="2">  1       -2 0.99356134E-02 0.21290033E+02</pdfrwt>
<totfact> 0.28374039E+06</totfact>
</mgrwt>
</event>
<event>
 4    1  0.1433582E+000  0.2452954E+02  0.7818608E-02  0.1667853E+00
         -2   -1    0    0    0  501 -0.00000000000E+00  0.00000000000E+00  0.64064677631E+02  0.64064677684E+02  0.26000000000E-02 0.  1.
          2   -1    0    0  501    0  0.00000000000E+00 -0.00000000000E+00 -0.23480108084E+01  0.23480122479E+01  0.26000000000E-02 0. -1.
        -11    1    1    2    0    0 -0.35079254663E+01  0.11636001832E+02  0.35325658746E+02  0.37357786950E+02  0.51100000000E-03 0.  1.
         11    1    1    2    0    0  0.35079254663E+01 -0.11636001832E+02  0.26391008077E+02  0.29054902982E+02  0.51100000000E-03 0. -1.
<mgrwt>
<rscale>  0 0.24529542E+02</rscale>
<asrwt>0</asrwt>
<pdfrwt beam="2">  1        2 0.36123259E-03 0.24529542E+02</pdfrwt>
<pdfrwt beam="1">  1       -2 0.98561032E-02 0.24529542E+02</pdfrwt>
<totfact> 0.20715169E+06</totfact>
</mgrwt>
</event>
<event>
 4    1  0.1433582E+000  0.2270121E+02  0.7818608E-02  0.1696400E+00
          2   -1    0    0  501    0  0.00000000000E+00  0.00000000000E+00  0.25786871262E+02  0.25786871393E+02  0.26000000000E-02 0.  1.
         -2   -1    0    0    0  501 -0.00000000000E+00 -0.00000000000E+00 -0.49961956488E+01  0.49961963253E+01  0.26000000000E-02 0. -1.
        -11    1    1    2    0    0  0.68683930493E+01 -0.86118151729E+01  0.66822267041E+01  0.12883723749E+02  0.51100000000E-03 0. -1.
         11    1    1    2    0    0 -0.68683930493E+01  0.86118151729E+01  0.14108448909E+02  0.17899343969E+02  0.51100000000E-03 0.  1.
<mgrwt>
<rscale>  0 0.22701213E+02</rscale>
<asrwt>0</asrwt>
<pdfrwt beam="1">  1        2 0.39672111E-02 0.22701213E+02</pdfrwt>
<pdfrwt beam="2">  1       -2 0.76864553E-03 0.22701213E+02</pdfrwt>
<totfact> 0.32002593E+06</totfact>
</mgrwt>
</event>
<event>
 4    1  0.1433582E+000  0.3018251E+02  0.7818608E-02  0.1596080E+00
         -2   -1    0    0    0  501 -0.00000000000E+00  0.00000000000E+00  0.20610168620E+02  0.20610168784E+02  0.26000000000E-02 0.  1.
          2   -1    0    0  501    0  0.00000000000E+00 -0.00000000000E+00 -0.11050172985E+02  0.11050173291E+02  0.26000000000E-02 0. -1.
        -11    1    1    2    0    0 -0.99950165274E+01 -0.88622221342E+00 -0.70440190434E+01  0.12259851130E+02  0.51100000000E-03 0. -1.
         11    1    1    2    0    0  0.99950165274E+01  0.88622221342E+00  0.16604014678E+02  0.19400490944E+02  0.51100000000E-03 0.  1.
<mgrwt>
<rscale>  0 0.30182507E+02</rscale>
<asrwt>0</asrwt>
<pdfrwt beam="2">  1        2 0.17000267E-02 0.30182507E+02</pdfrwt>
<pdfrwt beam="1">  1       -2 0.31707952E-02 0.30182507E+02</pdfrwt>
<totfact> 0.14946928E+06</totfact>
</mgrwt>
</event>
<event>
 4    1  0.1433582E+000  0.7075624E+02  0.7818608E-02  0.1357540E+00
          2   -1    0    0  501    0  0.00000000000E+00  0.00000000000E+00  0.19196468161E+03  0.19196468163E+03  0.26000000000E-02 0. -1.
         -2   -1    0    0    0  501 -0.00000000000E+00 -0.00000000000E+00 -0.65200086699E+01  0.65200091883E+01  0.26000000000E-02 0.  1.
        -11    1    1    2    0    0 -0.23102971694E+01 -0.29812769254E+02  0.14575992046E+03  0.14879547405E+03  0.51100000000E-03 0. -1.
         11    1    1    2    0    0  0.23102971694E+01  0.29812769254E+02  0.39684752480E+02  0.49689216771E+02  0.51100000000E-03 0.  1.
<mgrwt>
<rscale>  0 0.70756242E+02</rscale>
<asrwt>0</asrwt>
<pdfrwt beam="1">  1        2 0.29533027E-01 0.70756242E+02</pdfrwt>
<pdfrwt beam="2">  1       -2 0.10030783E-02 0.70756242E+02</pdfrwt>
<totfact> 0.29867164E+05</totfact>
</mgrwt>
</event>
<event>
 4    1  0.1433582E+000  0.3660246E+02  0.7818608E-02  0.1534814E+00
         -2   -1    0    0    0  501 -0.00000000000E+00  0.00000000000E+00  0.71074930794E+01  0.71074935550E+01  0.26000000000E-02 0.  1.
          2   -1    0    0  501    0  0.00000000000E+00 -0.00000000000E+00 -0.47124215014E+02  0.47124215086E+02  0.26000000000E-02 0. -1.
        -11    1    1    2    0    0 -0.70016986869E+00 -0.17897814635E+02 -0.25574490173E+02  0.31223013218E+02  0.51100000000E-03 0. -1.
         11    1    1    2    0    0  0.70016986869E+00  0.17897814635E+02 -0.14442231762E+02  0.23008695423E+02  0.51100000000E-03 0.  1.
<mgrwt>
<rscale>  0 0.36602461E+02</rscale>
<asrwt>0</asrwt>
<pdfrwt beam="2">  1        2 0.72498791E-02 0.36602461E+02</pdfrwt>
<pdfrwt beam="1">  1       -2 0.10934605E-02 0.36602461E+02</pdfrwt>
<totfact> 0.11125067E+06</totfact>
</mgrwt>
</event>
<event>
 4    1  0.1433582E+000  0.6148557E+02  0.7818608E-02  0.1391701E+00
          2   -1    0    0  501    0  0.00000000000E+00  0.00000000000E+00  0.32763151594E+02  0.32763151697E+02  0.26000000000E-02 0.  1.
         -2   -1    0    0    0  501 -0.00000000000E+00 -0.00000000000E+00 -0.28847009051E+02  0.28847009168E+02  0.26000000000E-02 0. -1.
        -11    1    1    2    0    0  0.21465867783E+02  0.21962473794E+02  0.54624423389E+00  0.30715340106E+02  0.51100000000E-03 0. -1.
         11    1    1    2    0    0 -0.21465867783E+02 -0.21962473794E+02  0.33698983094E+01  0.30894820759E+02  0.51100000000E-03 0.  1.
<mgrwt>
<rscale>  0 0.61485574E+02</rscale>
<asrwt>0</asrwt>
<pdfrwt beam="1">  1        2 0.50404849E-02 0.61485574E+02</pdfrwt>
<pdfrwt beam="2">  1       -2 0.44380014E-02 0.61485574E+02</pdfrwt>
<totfact> 0.27492715E+05</totfact>
</mgrwt>
</event>
<event>
 4    1  0.1433582E+000  0.2673621E+02  0.7818608E-02  0.1637248E+00
         -2   -1    0    0    0  501 -0.00000000000E+00  0.00000000000E+00  0.10113357047E+02  0.10113357381E+02  0.26000000000E-02 0. -1.
          2   -1    0    0  501    0  0.00000000000E+00 -0.00000000000E+00 -0.17670315384E+02  0.17670315576E+02  0.26000000000E-02 0.  1.
        -11    1    1    2    0    0  0.96570069438E+01  0.62296324105E+01 -0.10875394569E+02  0.15822146200E+02  0.51100000000E-03 0.  1.
         11    1    1    2    0    0 -0.96570069438E+01 -0.62296324105E+01  0.33184362315E+01  0.11961526757E+02  0.51100000000E-03 0. -1.
<mgrwt>
<rscale>  0 0.26736209E+02</rscale>
<asrwt>0</asrwt>
<pdfrwt beam="2">  1        2 0.27185101E-02 0.26736209E+02</pdfrwt>
<pdfrwt beam="1">  1       -2 0.15559011E-02 0.26736209E+02</pdfrwt>
<totfact> 0.21013186E+06</totfact>
</mgrwt>
</event>
<event>
 4    1  0.1433582E+000  0.4319225E+02  0.7818608E-02  0.1485953E+00
         -2   -1    0    0    0  501 -0.00000000000E+00  0.00000000000E+00  0.56470346931E+01  0.56470352916E+01  0.26000000000E-02 0.  1.
          2   -1    0    0  501    0  0.00000000000E+00 -0.00000000000E+00 -0.82590690105E+02  0.82590690146E+02  0.26000000000E-02 0. -1.
        -11    1    1    2    0    0  0.21414079093E+01  0.16179478130E+02 -0.67365156901E+02  0.69313963275E+02  0.51100000000E-03 0. -1.
         11    1    1    2    0    0 -0.21414079093E+01 -0.16179478130E+02 -0.95784985117E+01  0.18923762163E+02  0.51100000000E-03 0.  1.
<mgrwt>
<rscale>  0 0.43192246E+02</rscale>
<asrwt>0</asrwt>
<pdfrwt beam="2">  1        2 0.12706259E-01 0.43192246E+02</pdfrwt>
<pdfrwt beam="1">  1       -2 0.86877468E-03 0.43192246E+02</pdfrwt>
<totfact> 0.82517681E+05</totfact>
</mgrwt>
</event>
<event>
 4    1  0.1433582E+000  0.5340963E+02  0.7818608E-02  0.1427773E+00
         -2   -1    0    0    0  501 -0.00000000000E+00  0.00000000000E+00  0.47607111816E+01  0.47607118916E+01  0.26000000000E-02 0.  1.
          2   -1    0    0  501    0  0.00000000000E+00 -0.00000000000E+00 -0.14979844369E+03  0.14979844371E+03  0.26000000000E-02 0. -1.
        -11    1    1    2    0    0 -0.99958667455E+00  0.23935299051E+02 -0.38370342976E+02  0.45234731507E+02  0.51100000000E-03 0. -1.
         11    1    1    2    0    0  0.99958667455E+00 -0.23935299051E+02 -0.10666738953E+03  0.10932442409E+03  0.51100000000E-03 0.  1.
<mgrwt>
<rscale>  0 0.53409631E+02</rscale>
<asrwt>0</asrwt>
<pdfrwt beam="2">  1        2 0.23045911E-01 0.53409631E+02</pdfrwt>
<pdfrwt beam="1">  1       -2 0.73241728E-03 0.53409631E+02</pdfrwt>
<totfact> 0.56828876E+05</totfact>
</mgrwt>
</event>
<event>
 4    1  0.1433582E+000  0.3846505E+02  0.7818608E-02  0.1519821E+00
          2   -1    0    0  501    0  0.00000000000E+00  0.00000000000E+00  0.25580243883E+02  0.25580244015E+02  0.26000000000E-02 0.  1.
         -2   -1    0    0    0  501 -0.00000000000E+00 -0.00000000000E+00 -0.14459984194E+02  0.14459984428E+02  0.26000000000E-02 0. -1.
        -11    1    1    2    0    0  0.16595878424E+02 -0.31309676891E+01  0.15138225059E+02  0.22680211585E+02  0.51100000000E-03 0.  1.
         11    1    1    2    0    0 -0.16595878424E+02  0.31309676891E+01 -0.40179653701E+01  0.17360016858E+02  0.51100000000E-03 0. -1.
<mgrwt>
<rscale>  0 0.38465045E+02</rscale>
<asrwt>0</asrwt>
<pdfrwt beam="1">  1        2 0.39354221E-02 0.38465045E+02</pdfrwt>
<pdfrwt beam="2">  1       -2 0.22246130E-02 0.38465045E+02</pdfrwt>
<totfact> 0.89897798E+05</totfact>
</mgrwt>
</event>
<event>
 4    1  0.1433582E+000  0.5336728E+02  0.7818608E-02  0.1427982E+00
         -2   -1    0    0    0  501 -0.00000000000E+00  0.00000000000E+00  0.30603809962E+02  0.30603810073E+02  0.26000000000E-02 0. -1.
          2   -1    0    0  501    0  0.00000000000E+00 -0.00000000000E+00 -0.23265622519E+02  0.23265622664E+02  0.26000000000E-02 0.  1.
        -11    1    1    2    0    0 -0.17330029985E+02 -0.35829249128E+01 -0.16490036614E+02  0.24188604714E+02  0.51100000000E-03 0.  1.
         11    1    1    2    0    0  0.17330029985E+02  0.35829249128E+01  0.23828224057E+02  0.29680828024E+02  0.51100000000E-03 0. -1.
<mgrwt>
<rscale>  0 0.53367282E+02</rscale>
<asrwt>0</asrwt>
<pdfrwt beam="2">  1        2 0.35793266E-02 0.53367282E+02</pdfrwt>
<pdfrwt beam="1">  1       -2 0.47082784E-02 0.53367282E+02</pdfrwt>
<totfact> 0.37903880E+05</totfact>
</mgrwt>
</event>
<event>
 4    1  0.1433582E+000  0.5897034E+02  0.7818608E-02  0.1402204E+00
          2   -1    0    0  501    0  0.00000000000E+00  0.00000000000E+00  0.19902948360E+03  0.19902948362E+03  0.26000000000E-02 0. -1.
         -2   -1    0    0    0  501 -0.00000000000E+00 -0.00000000000E+00 -0.43680716256E+01  0.43680723994E+01  0.26000000000E-02 0.  1.
        -11    1    1    2    0    0 -0.21214732207E+02  0.20169777809E+02  0.10952057179E+03  0.11336507595E+03  0.51100000000E-03 0. -1.
         11    1    1    2    0    0  0.21214732207E+02 -0.20169777809E+02  0.85140840190E+02  0.90032480073E+02  0.51100000000E-03 0.  1.
<mgrwt>
<rscale>  0 0.58970336E+02</rscale>
<asrwt>0</asrwt>
<pdfrwt beam="1">  1        2 0.30619926E-01 0.58970336E+02</pdfrwt>
<pdfrwt beam="2">  1       -2 0.67201096E-03 0.58970336E+02</pdfrwt>
<totfact> 0.48418083E+05</totfact>
</mgrwt>
</event>
<event>
 4    1  0.1433582E+000  0.7061059E+02  0.7818608E-02  0.1358029E+00
          2   -1    0    0  501    0  0.00000000000E+00  0.00000000000E+00  0.19505733589E+02  0.19505733763E+02  0.26000000000E-02 0. -1.
         -2   -1    0    0    0  501 -0.00000000000E+00 -0.00000000000E+00 -0.63902429948E+02  0.63902430001E+02  0.26000000000E-02 0.  1.
        -11    1    1    2    0    0  0.17760206194E+02 -0.27255029678E+02 -0.38403425200E+02  0.50329758932E+02  0.51100000000E-03 0. -1.
         11    1    1    2    0    0 -0.17760206194E+02  0.27255029678E+02 -0.59932711588E+01  0.33078404832E+02  0.51100000000E-03 0.  1.
<mgrwt>
<rscale>  0 0.70610588E+02</rscale>
<asrwt>0</asrwt>
<pdfrwt beam="1">  1        2 0.30008821E-02 0.70610588E+02</pdfrwt>
<pdfrwt beam="2">  1       -2 0.98311430E-02 0.70610588E+02</pdfrwt>
<totfact> 0.16830007E+05</totfact>
</mgrwt>
</event>
<event>
 4    1  0.1433582E+000  0.2308092E+02  0.7818608E-02  0.1690202E+00
         -2   -1    0    0    0  501 -0.00000000000E+00  0.00000000000E+00  0.96752752090E+01  0.96752755584E+01  0.26000000000E-02 0.  1.
          2   -1    0    0  501    0  0.00000000000E+00 -0.00000000000E+00 -0.13765213018E+02  0.13765213263E+02  0.26000000000E-02 0. -1.
        -11    1    1    2    0    0 -0.11342636910E+02  0.16331418829E+01 -0.66002859037E+00  0.11478597584E+02  0.51100000000E-03 0. -1.
         11    1    1    2    0    0  0.11342636910E+02 -0.16331418829E+01 -0.34299092184E+01  0.11961891238E+02  0.51100000000E-03 0.  1.
<mgrwt>
<rscale>  0 0.23080921E+02</rscale>
<asrwt>0</asrwt>
<pdfrwt beam="2">  1        2 0.21177251E-02 0.23080921E+02</pdfrwt>
<pdfrwt beam="1">  1       -2 0.14885039E-02 0.23080921E+02</pdfrwt>
<totfact> 0.29059848E+06</totfact>
</mgrwt>
</event>
<event>
 4    1  0.1433582E+000  0.4632773E+02  0.7818608E-02  0.1466219E+00
          2   -1    0    0  501    0  0.00000000000E+00  0.00000000000E+00  0.81081598675E+02  0.81081598717E+02  0.26000000000E-02 0. -1.
         -2   -1    0    0    0  501 -0.00000000000E+00 -0.00000000000E+00 -0.66175872747E+01  0.66175877855E+01  0.26000000000E-02 0.  1.
        -11    1    1    2    0    0 -0.46440932859E+01 -0.22151730723E+02  0.27900793341E+02  0.35926606377E+02  0.51100000000E-03 0.  1.
         11    1    1    2    0    0  0.46440932859E+01  0.22151730723E+02  0.46563218060E+02  0.51772580126E+02  0.51100000000E-03 0. -1.
<mgrwt>
<rscale>  0 0.46327727E+02</rscale>
<asrwt>0</asrwt>
<pdfrwt beam="1">  1        2 0.12474092E-01 0.46327727E+02</pdfrwt>
<pdfrwt beam="2">  1       -2 0.10180904E-02 0.46327727E+02</pdfrwt>
<totfact> 0.68932526E+05</totfact>
</mgrwt>
</event>
<event>
 4    1  0.1433582E+000  0.5784076E+02  0.7818608E-02  0.1407123E+00
          2   -1    0    0  501    0  0.00000000000E+00  0.00000000000E+00  0.20629304808E+02  0.20629304972E+02  0.26000000000E-02 0. -1.
         -2   -1    0    0    0  501 -0.00000000000E+00 -0.00000000000E+00 -0.40543707488E+02  0.40543707572E+02  0.26000000000E-02 0.  1.
        -11    1    1    2    0    0  0.24392176825E+02  0.73441923638E+01  0.45236892810E+01  0.25872363957E+02  0.51100000000E-03 0. -1.
         11    1    1    2    0    0 -0.24392176825E+02 -0.73441923638E+01 -0.24438091961E+02  0.35300648587E+02  0.51100000000E-03 0.  1.
<mgrwt>
<rscale>  0 0.57840764E+02</rscale>
<asrwt>0</asrwt>
<pdfrwt beam="1">  1        2 0.31737392E-02 0.57840764E+02</pdfrwt>
<pdfrwt beam="2">  1       -2 0.62374935E-02 0.57840764E+02</pdfrwt>
<totfact> 0.29843313E+05</totfact>
</mgrwt>
</event>
<event>
 4    1  0.1433582E+000  0.3844459E+02  0.7818608E-02  0.1519980E+00
         -2   -1    0    0    0  501 -0.00000000000E+00  0.00000000000E+00  0.62368750581E+01  0.62368756000E+01  0.26000000000E-02 0.  1.
          2   -1    0    0  501    0  0.00000000000E+00 -0.00000000000E+00 -0.59243878244E+02  0.59243878301E+02  0.26000000000E-02 0. -1.
        -11    1    1    2    0    0  0.13290258915E+02  0.13780712198E+02 -0.23574270463E+02  0.30369149459E+02  0.51100000000E-03 0.  1.
         11    1    1    2    0    0 -0.13290258915E+02 -0.13780712198E+02 -0.29432732722E+02  0.35111604442E+02  0.51100000000E-03 0. -1.
<mgrwt>
<rscale>  0 0.38444593E+02</rscale>
<asrwt>0</asrwt>
<pdfrwt beam="2">  1        2 0.91144425E-02 0.38444593E+02</pdfrwt>
<pdfrwt beam="1">  1       -2 0.95951933E-03 0.38444593E+02</pdfrwt>
<totfact> 0.10268053E+06</totfact>
</mgrwt>
</event>
<event>
 4    1  0.1433582E+000  0.4798199E+02  0.7818608E-02  0.1456540E+00
          2   -1    0    0  501    0  0.00000000000E+00  0.00000000000E+00  0.34377868203E+02  0.34377868301E+02  0.26000000000E-02 0. -1.
         -2   -1    0    0    0  501 -0.00000000000E+00 -0.00000000000E+00 -0.16742396220E+02  0.16742396422E+02  0.26000000000E-02 0.  1.
        -11    1    1    2    0    0  0.35658759359E+01 -0.23447194829E+02  0.12671128799E+02  0.26889476043E+02  0.51100000000E-03 0.  1.
         11    1    1    2    0    0 -0.35658759359E+01  0.23447194829E+02  0.49643431834E+01  0.24230788680E+02  0.51100000000E-03 0. -1.
<mgrwt>
<rscale>  0 0.47981992E+02</rscale>
<asrwt>0</asrwt>
<pdfrwt beam="1">  1        2 0.52889028E-02 0.47981992E+02</pdfrwt>
<pdfrwt beam="2">  1       -2 0.25757533E-02 0.47981992E+02</pdfrwt>
<totfact> 0.53417465E+05</totfact>
</mgrwt>
</event>
<event>
 4    1  0.1433582E+000  0.5680629E+02  0.7818608E-02  0.1411745E+00
          2   -1    0    0  501    0  0.00000000000E+00  0.00000000000E+00  0.30515145251E+02  0.30515145361E+02  0.26000000000E-02 0.  1.
         -2   -1    0    0    0  501 -0.00000000000E+00 -0.00000000000E+00 -0.26437317973E+02  0.26437318101E+02  0.26000000000E-02 0. -1.
        -11    1    1    2    0    0  0.11246157454E+02  0.91916736235E+01  0.26510238659E+02  0.30228391877E+02  0.51100000000E-03 0.  1.
         11    1    1    2    0    0 -0.11246157454E+02 -0.91916736235E+01 -0.22432411381E+02  0.26724071585E+02  0.51100000000E-03 0. -1.
<mgrwt>
<rscale>  0 0.56806289E+02</rscale>
<asrwt>0</asrwt>
<pdfrwt beam="1">  1        2 0.46946377E-02 0.56806289E+02</pdfrwt>
<pdfrwt beam="2">  1       -2 0.40672797E-02 0.56806289E+02</pdfrwt>
<totfact> 0.33580410E+05</totfact>
</mgrwt>
</event>
<event>
 4    1  0.1433582E+000  0.3069603E+02  0.7818608E-02  0.1590520E+00
          2   -1    0    0  501    0  0.00000000000E+00  0.00000000000E+00  0.54952729040E+02  0.54952729101E+02  0.26000000000E-02 0. -1.
         -2   -1    0    0    0  501 -0.00000000000E+00 -0.00000000000E+00 -0.42866204684E+01  0.42866212569E+01  0.26000000000E-02 0.  1.
        -11    1    1    2    0    0 -0.93586473897E+01 -0.46215529856E+01  0.47048896411E+02  0.48192755542E+02  0.51100000000E-03 0. -1.
         11    1    1    2    0    0  0.93586473897E+01  0.46215529856E+01  0.36172121603E+01  0.11046594816E+02  0.51100000000E-03 0.  1.
<mgrwt>
<rscale>  0 0.30696027E+02</rscale>
<asrwt>0</asrwt>
<pdfrwt beam="1">  1        2 0.84542659E-02 0.30696027E+02</pdfrwt>
<pdfrwt beam="2">  1       -2 0.65948015E-03 0.30696027E+02</pdfrwt>
<totfact> 0.17490464E+06</totfact>
</mgrwt>
</event>
<event>
 4    1  0.1433582E+000  0.2242808E+02  0.7818608E-02  0.1700952E+00
         -2   -1    0    0    0  501 -0.00000000000E+00  0.00000000000E+00  0.18552396544E+01  0.18552414763E+01  0.26000000000E-02 0.  1.
          2   -1    0    0  501    0  0.00000000000E+00 -0.00000000000E+00 -0.67783511497E+02  0.67783511546E+02  0.26000000000E-02 0. -1.
        -11    1    1    2    0    0  0.10821795245E+02 -0.90795847613E+00 -0.24281797038E+02  0.26599648655E+02  0.51100000000E-03 0.  1.
         11    1    1    2    0    0 -0.10821795245E+02  0.90795847613E+00 -0.41646474804E+02  0.43039104367E+02  0.51100000000E-03 0. -1.
<mgrwt>
<rscale>  0 0.22428083E+02</rscale>
<asrwt>0</asrwt>
<pdfrwt beam="2">  1        2 0.10428231E-01 0.22428083E+02</pdfrwt>
<pdfrwt beam="1">  1       -2 0.28542168E-03 0.22428083E+02</pdfrwt>
<totfact> 0.37690425E+06</totfact>
</mgrwt>
</event>
<event>
 4    1  0.1433582E+000  0.3832865E+02  0.7818608E-02  0.1520884E+00
         -2   -1    0    0    0  501 -0.00000000000E+00  0.00000000000E+00  0.39964566136E+02  0.39964566220E+02  0.26000000000E-02 0.  1.
          2   -1    0    0  501    0  0.00000000000E+00 -0.00000000000E+00 -0.91899247708E+01  0.91899251386E+01  0.26000000000E-02 0. -1.
        -11    1    1    2    0    0  0.72983465810E+01  0.11692795440E+02 -0.16882211644E+01  0.13886591338E+02  0.51100000000E-03 0. -1.
         11    1    1    2    0    0 -0.72983465810E+01 -0.11692795440E+02  0.32462862529E+02  0.35267900021E+02  0.51100000000E-03 0.  1.
<mgrwt>
<rscale>  0 0.38328651E+02</rscale>
<asrwt>0</asrwt>
<pdfrwt beam="2">  1        2 0.14138346E-02 0.38328651E+02</pdfrwt>
<pdfrwt beam="1">  1       -2 0.61483949E-02 0.38328651E+02</pdfrwt>
<totfact> 0.79428360E+05</totfact>
</mgrwt>
</event>
<event>
 4    1  0.1433582E+000  0.2721271E+02  0.7818608E-02  0.1631114E+00
          2   -1    0    0  501    0  0.00000000000E+00  0.00000000000E+00  0.95598168340E+02  0.95598168375E+02  0.26000000000E-02 0. -1.
         -2   -1    0    0    0  501 -0.00000000000E+00 -0.00000000000E+00 -0.19365732904E+01  0.19365750357E+01  0.26000000000E-02 0.  1.
        -11    1    1    2    0    0 -0.11410154329E+02  0.65684977327E+01  0.59140791856E+02  0.60588530646E+02  0.51100000000E-03 0. -1.
         11    1    1    2    0    0  0.11410154329E+02 -0.65684977327E+01  0.34520803194E+02  0.36946212765E+02  0.51100000000E-03 0.  1.
<mgrwt>
<rscale>  0 0.27212714E+02</rscale>
<asrwt>0</asrwt>
<pdfrwt beam="1">  1        2 0.14707408E-01 0.27212714E+02</pdfrwt>
<pdfrwt beam="2">  1       -2 0.29793454E-03 0.27212714E+02</pdfrwt>
<totfact> 0.25978109E+06</totfact>
</mgrwt>
</event>
<event>
 4    1  0.1433582E+000  0.3104178E+02  0.7818608E-02  0.1586851E+00
          2   -1    0    0  501    0  0.00000000000E+00  0.00000000000E+00  0.27932641239E+02  0.27932641360E+02  0.26000000000E-02 0. -1.
         -2   -1    0    0    0  501 -0.00000000000E+00 -0.00000000000E+00 -0.86242485151E+01  0.86242489071E+01  0.26000000000E-02 0.  1.
        -11    1    1    2    0    0 -0.12197135262E+02 -0.95896301296E+01  0.91730299658E+01  0.18024305636E+02  0.51100000000E-03 0. -1.
         11    1    1    2    0    0  0.12197135262E+02  0.95896301296E+01  0.10135362758E+02  0.18532584632E+02  0.51100000000E-03 0.  1.
<mgrwt>
<rscale>  0 0.31041781E+02</rscale>
<asrwt>0</asrwt>
<pdfrwt beam="1">  1        2 0.42973295E-02 0.31041781E+02</pdfrwt>
<pdfrwt beam="2">  1       -2 0.13268075E-02 0.31041781E+02</pdfrwt>
<totfact> 0.15430681E+06</totfact>
</mgrwt>
</event>
<event>
 4    1  0.1433582E+000  0.2795703E+02  0.7818608E-02  0.1621835E+00
          2   -1    0    0  501    0  0.00000000000E+00  0.00000000000E+00  0.13928049068E+03  0.13928049070E+03  0.26000000000E-02 0.  1.
         -2   -1    0    0    0  501 -0.00000000000E+00 -0.00000000000E+00 -0.14029154118E+01  0.14029178210E+01  0.26000000000E-02 0. -1.
        -11    1    1    2    0    0  0.94592804869E+01 -0.10281250754E+02  0.66595665485E+02  0.68045314064E+02  0.51100000000E-03 0. -1.
         11    1    1    2    0    0 -0.94592804869E+01  0.10281250754E+02  0.71281909783E+02  0.72638094461E+02  0.51100000000E-03 0.  1.
<mgrwt>
<rscale>  0 0.27957033E+02</rscale>
<asrwt>0</asrwt>
<pdfrwt beam="1">  1        2 0.21427769E-01 0.27957033E+02</pdfrwt>
<pdfrwt beam="2">  1       -2 0.21583332E-03 0.27957033E+02</pdfrwt>
<totfact> 0.26851214E+06</totfact>
</mgrwt>
</event>
<event>
 4    1  0.1433582E+000  0.2146971E+02  0.7818608E-02  0.1717588E+00
         -2   -1    0    0    0  501 -0.00000000000E+00  0.00000000000E+00  0.19743562825E+02  0.19743562996E+02  0.26000000000E-02 0.  1.
          2   -1    0    0  501    0  0.00000000000E+00 -0.00000000000E+00 -0.58366936486E+01  0.58366942277E+01  0.26000000000E-02 0. -1.
        -11    1    1    2    0    0  0.33554384476E+01 -0.10032320694E+02  0.47789958194E+01  0.11607981176E+02  0.51100000000E-03 0.  1.
         11    1    1    2    0    0 -0.33554384476E+01  0.10032320694E+02  0.91278733565E+01  0.13972276048E+02  0.51100000000E-03 0. -1.
<mgrwt>
<rscale>  0 0.21469712E+02</rscale>
<asrwt>0</asrwt>
<pdfrwt beam="2">  1        2 0.89795293E-03 0.21469712E+02</pdfrwt>
<pdfrwt beam="1">  1       -2 0.30374713E-02 0.21469712E+02</pdfrwt>
<totfact> 0.32100429E+06</totfact>
</mgrwt>
</event>
<event>
 4    1  0.1433582E+000  0.1332870E+03  0.7818608E-02  0.1222658E+00
         -2   -1    0    0    0  501 -0.00000000000E+00  0.00000000000E+00  0.85221884375E+02  0.85221884415E+02  0.26000000000E-02 0.  1.
          2   -1    0    0  501    0  0.00000000000E+00 -0.00000000000E+00 -0.52115207299E+02  0.52115207363E+02  0.26000000000E-02 0. -1.
        -11    1    1    2    0    0  0.40364380900E+02 -0.36063463024E+02  0.56612703733E+02  0.78325314139E+02  0.51100000000E-03 0.  1.
         11    1    1    2    0    0 -0.40364380900E+02  0.36063463024E+02 -0.23506026657E+02  0.59011777639E+02  0.51100000000E-03 0. -1.
<mgrwt>
<rscale>  0 0.13328700E+03</rscale>
<asrwt>0</asrwt>
<pdfrwt beam="2">  1        2 0.80177244E-02 0.13328700E+03</pdfrwt>
<pdfrwt beam="1">  1       -2 0.13111059E-01 0.13328700E+03</pdfrwt>
<totfact> 0.33134811E+04</totfact>
</mgrwt>
</event>
<event>
 4    1  0.1433582E+000  0.2192901E+02  0.7818608E-02  0.1709483E+00
         -2   -1    0    0    0  501 -0.00000000000E+00  0.00000000000E+00  0.69619306027E+02  0.69619306075E+02  0.26000000000E-02 0. -1.
          2   -1    0    0  501    0  0.00000000000E+00 -0.00000000000E+00 -0.17268237048E+01  0.17268256622E+01  0.26000000000E-02 0.  1.
        -11    1    1    2    0    0 -0.89362840238E+01 -0.52774629478E+01  0.22438050400E+02  0.24721951649E+02  0.51100000000E-03 0.  1.
         11    1    1    2    0    0  0.89362840238E+01  0.52774629478E+01  0.45454431922E+02  0.46624180088E+02  0.51100000000E-03 0. -1.
<mgrwt>
<rscale>  0 0.21929007E+02</rscale>
<asrwt>0</asrwt>
<pdfrwt beam="2">  1        2 0.26566534E-03 0.21929007E+02</pdfrwt>
<pdfrwt beam="1">  1       -2 0.10710662E-01 0.21929007E+02</pdfrwt>
<totfact> 0.26221647E+06</totfact>
</mgrwt>
</event>
<event>
 4    1  0.1433582E+000  0.2370707E+02  0.7818608E-02  0.1680299E+00
          2   -1    0    0  501    0  0.00000000000E+00  0.00000000000E+00  0.64502762753E+02  0.64502762805E+02  0.26000000000E-02 0. -1.
         -2   -1    0    0    0  501 -0.00000000000E+00 -0.00000000000E+00 -0.21782974785E+01  0.21782990301E+01  0.26000000000E-02 0.  1.
        -11    1    1    2    0    0  0.73223841401E+01 -0.87722236179E+01  0.40028753460E+02  0.41627759014E+02  0.51100000000E-03 0.  1.
         11    1    1    2    0    0 -0.73223841401E+01  0.87722236179E+01  0.22295711815E+02  0.25053302822E+02  0.51100000000E-03 0. -1.
<mgrwt>
<rscale>  0 0.23707067E+02</rscale>
<asrwt>0</asrwt>
<pdfrwt beam="1">  1        2 0.99235010E-02 0.23707067E+02</pdfrwt>
<pdfrwt beam="2">  1       -2 0.33512285E-03 0.23707067E+02</pdfrwt>
<totfact> 0.32920830E+06</totfact>
</mgrwt>
</event>
<event>
 4    1  0.1433582E+000  0.2755616E+02  0.7818608E-02  0.1626787E+00
          2   -1    0    0  501    0  0.00000000000E+00  0.00000000000E+00  0.96294709496E+02  0.96294709531E+02  0.26000000000E-02 0. -1.
         -2   -1    0    0    0  501 -0.00000000000E+00 -0.00000000000E+00 -0.19714004138E+01  0.19714021283E+01  0.26000000000E-02 0.  1.
        -11    1    1    2    0    0  0.46545111677E+01 -0.12925443981E+02  0.43414878928E+02  0.45536614816E+02  0.51100000000E-03 0. -1.
         11    1    1    2    0    0 -0.46545111677E+01  0.12925443981E+02  0.50908430154E+02  0.52729496843E+02  0.51100000000E-03 0.  1.
<mgrwt>
<rscale>  0 0.27556162E+02</rscale>
<asrwt>0</asrwt>
<pdfrwt beam="1">  1        2 0.14814575E-01 0.27556162E+02</pdfrwt>
<pdfrwt beam="2">  1       -2 0.30329241E-03 0.27556162E+02</pdfrwt>
<totfact> 0.25273365E+06</totfact>
</mgrwt>
</event>
<event>
 4    1  0.1433582E+000  0.2305859E+02  0.7818608E-02  0.1690562E+00
         -2   -1    0    0    0  501 -0.00000000000E+00  0.00000000000E+00  0.34412007901E+02  0.34412007999E+02  0.26000000000E-02 0.  1.
          2   -1    0    0  501    0  0.00000000000E+00 -0.00000000000E+00 -0.38627381707E+01  0.38627390457E+01  0.26000000000E-02 0. -1.
        -11    1    1    2    0    0 -0.56737196278E+01 -0.84078266200E+01  0.61766809230E+01  0.11875774938E+02  0.51100000000E-03 0. -1.
         11    1    1    2    0    0  0.56737196278E+01  0.84078266200E+01  0.24372588807E+02  0.26398972107E+02  0.51100000000E-03 0.  1.
<mgrwt>
<rscale>  0 0.23058586E+02</rscale>
<asrwt>0</asrwt>
<pdfrwt beam="2">  1        2 0.59426747E-03 0.23058586E+02</pdfrwt>
<pdfrwt beam="1">  1       -2 0.52941552E-02 0.23058586E+02</pdfrwt>
<totfact> 0.25962888E+06</totfact>
</mgrwt>
</event>
<event>
 4    1  0.1433582E+000  0.3322550E+02  0.7818608E-02  0.1564948E+00
         -2   -1    0    0    0  501 -0.00000000000E+00  0.00000000000E+00  0.28554913661E+02  0.28554913779E+02  0.26000000000E-02 0. -1.
          2   -1    0    0  501    0  0.00000000000E+00 -0.00000000000E+00 -0.96650065270E+01  0.96650068767E+01  0.26000000000E-02 0.  1.
        -11    1    1    2    0    0 -0.67537363086E+01 -0.89515249235E+01  0.23544724320E+02  0.26078665537E+02  0.51100000000E-03 0. -1.
         11    1    1    2    0    0  0.67537363086E+01  0.89515249235E+01 -0.46548171862E+01  0.12141255120E+02  0.51100000000E-03 0.  1.
<mgrwt>
<rscale>  0 0.33225498E+02</rscale>
<asrwt>0</asrwt>
<pdfrwt beam="2">  1        2 0.14869241E-02 0.33225498E+02</pdfrwt>
<pdfrwt beam="1">  1       -2 0.43930636E-02 0.33225498E+02</pdfrwt>
<totfact> 0.11571917E+06</totfact>
</mgrwt>
</event>
<event>
 4    1  0.1433582E+000  0.3492929E+02  0.7818608E-02  0.1549229E+00
         -2   -1    0    0    0  501 -0.00000000000E+00  0.00000000000E+00  0.47204039369E+01  0.47204046529E+01  0.26000000000E-02 0. -1.
          2   -1    0    0  501    0  0.00000000000E+00 -0.00000000000E+00 -0.64616055444E+02  0.64616055496E+02  0.26000000000E-02 0.  1.
        -11    1    1    2    0    0 -0.52293265720E+01 -0.14529195252E+02 -0.13751635089E+02  0.20677302507E+02  0.51100000000E-03 0. -1.
         11    1    1    2    0    0  0.52293265720E+01  0.14529195252E+02 -0.46144016418E+02  0.48659157642E+02  0.51100000000E-03 0.  1.
<mgrwt>
<rscale>  0 0.34929295E+02</rscale>
<asrwt>0</asrwt>
<pdfrwt beam="2">  1        2 0.99409311E-02 0.34929295E+02</pdfrwt>
<pdfrwt beam="1">  1       -2 0.72621609E-03 0.34929295E+02</pdfrwt>
<totfact> 0.13203592E+06</totfact>
</mgrwt>
</event>
<event>
 4    1  0.1433582E+000  0.3534531E+02  0.7818608E-02  0.1545555E+00
         -2   -1    0    0    0  501 -0.00000000000E+00  0.00000000000E+00  0.14601920039E+02  0.14601920271E+02  0.26000000000E-02 0.  1.
          2   -1    0    0  501    0  0.00000000000E+00 -0.00000000000E+00 -0.21389149100E+02  0.21389149258E+02  0.26000000000E-02 0. -1.
        -11    1    1    2    0    0  0.10216318369E+02  0.54133154859E+01 -0.17003643919E+02  0.20562126650E+02  0.51100000000E-03 0. -1.
         11    1    1    2    0    0 -0.10216318369E+02 -0.54133154859E+01  0.10216414858E+02  0.15428942879E+02  0.51100000000E-03 0.  1.
<mgrwt>
<rscale>  0 0.35345305E+02</rscale>
<asrwt>0</asrwt>
<pdfrwt beam="2">  1        2 0.32906384E-02 0.35345305E+02</pdfrwt>
<pdfrwt beam="1">  1       -2 0.22464493E-02 0.35345305E+02</pdfrwt>
<totfact> 0.10863458E+06</totfact>
</mgrwt>
</event>
<event>
 4    1  0.1433582E+000  0.2173782E+02  0.7818608E-02  0.1712826E+00
          2   -1    0    0  501    0  0.00000000000E+00  0.00000000000E+00  0.16230911846E+02  0.16230912054E+02  0.26000000000E-02 0. -1.
         -2   -1    0    0    0  501 -0.00000000000E+00 -0.00000000000E+00 -0.72782849311E+01  0.72782853955E+01  0.26000000000E-02 0.  1.
        -11    1    1    2    0    0  0.92858234190E+01 -0.46166466761E+01  0.95636147653E+00  0.10414152420E+02  0.51100000000E-03 0.  1.
         11    1    1    2    0    0 -0.92858234190E+01  0.46166466761E+01  0.79962654385E+01  0.13095045029E+02  0.51100000000E-03 0. -1.
<mgrwt>
<rscale>  0 0.21737820E+02</rscale>
<asrwt>0</asrwt>
<pdfrwt beam="1">  1        2 0.24970634E-02 0.21737820E+02</pdfrwt>
<pdfrwt beam="2">  1       -2 0.11197362E-02 0.21737820E+02</pdfrwt>
<totfact> 0.33855147E+06</totfact>
</mgrwt>
</event>
<event>
 4    1  0.1433582E+000  0.4572141E+02  0.7818608E-02  0.1469888E+00
          2   -1    0    0  501    0  0.00000000000E+00  0.00000000000E+00  0.13023687062E+02  0.13023687321E+02  0.26000000000E-02 0. -1.
         -2   -1    0    0    0  501 -0.00000000000E+00 -0.00000000000E+00 -0.40127790240E+02  0.40127790324E+02  0.26000000000E-02 0.  1.
        -11    1    1    2    0    0 -0.12135356743E+02 -0.11560087902E+02  0.45214542365E+01  0.17359322114E+02  0.51100000000E-03 0. -1.
         11    1    1    2    0    0  0.12135356743E+02  0.11560087902E+02 -0.31625557415E+02  0.35792155532E+02  0.51100000000E-03 0.  1.
<mgrwt>
<rscale>  0 0.45721408E+02</rscale>
<asrwt>0</asrwt>
<pdfrwt beam="1">  1        2 0.20036442E-02 0.45721408E+02</pdfrwt>
<pdfrwt beam="2">  1       -2 0.61735062E-02 0.45721408E+02</pdfrwt>
<totfact> 0.52333496E+05</totfact>
</mgrwt>
</event>
<event>
 4    1  0.1433582E+000  0.2232510E+02  0.7818608E-02  0.1702690E+00
          2   -1    0    0  501    0  0.00000000000E+00  0.00000000000E+00  0.11138178897E+03  0.11138178900E+03  0.26000000000E-02 0. -1.
         -2   -1    0    0    0  501 -0.00000000000E+00 -0.00000000000E+00 -0.11186954764E+01  0.11186984978E+01  0.26000000000E-02 0.  1.
        -11    1    1    2    0    0 -0.97677592692E+01 -0.50513951889E+01  0.64794140867E+02  0.65720669545E+02  0.51100000000E-03 0. -1.
         11    1    1    2    0    0  0.97677592692E+01  0.50513951889E+01  0.45468952623E+02  0.46779817949E+02  0.51100000000E-03 0.  1.
<mgrwt>
<rscale>  0 0.22325096E+02</rscale>
<asrwt>0</asrwt>
<pdfrwt beam="1">  1        2 0.17135662E-01 0.22325096E+02</pdfrwt>
<pdfrwt beam="2">  1       -2 0.17210722E-03 0.22325096E+02</pdfrwt>
<totfact> 0.42358698E+06</totfact>
</mgrwt>
</event>
<event>
 4    1  0.1433582E+000  0.2162673E+02  0.7818608E-02  0.1714789E+00
          2   -1    0    0  501    0  0.00000000000E+00  0.00000000000E+00  0.12604964557E+02  0.12604964826E+02  0.26000000000E-02 0. -1.
         -2   -1    0    0    0  501 -0.00000000000E+00 -0.00000000000E+00 -0.92764134598E+01  0.92764138242E+01  0.26000000000E-02 0.  1.
        -11    1    1    2    0    0  0.39144423303E+01  0.10055126830E+02  0.94853150813E+00  0.10831811788E+02  0.51100000000E-03 0. -1.
         11    1    1    2    0    0 -0.39144423303E+01 -0.10055126830E+02  0.23800195895E+01  0.11049566862E+02  0.51100000000E-03 0.  1.
<mgrwt>
<rscale>  0 0.21626731E+02</rscale>
<asrwt>0</asrwt>
<pdfrwt beam="1">  1        2 0.19392254E-02 0.21626731E+02</pdfrwt>
<pdfrwt beam="2">  1       -2 0.14271406E-02 0.21626731E+02</pdfrwt>
<totfact> 0.33556310E+06</totfact>
</mgrwt>
</event>
<event>
 4    1  0.1433582E+000  0.2206354E+02  0.7818608E-02  0.1707155E+00
          2   -1    0    0  501    0  0.00000000000E+00  0.00000000000E+00  0.17819341034E+02  0.17819341224E+02  0.26000000000E-02 0. -1.
         -2   -1    0    0    0  501 -0.00000000000E+00 -0.00000000000E+00 -0.68296529640E+01  0.68296534589E+01  0.26000000000E-02 0.  1.
        -11    1    1    2    0    0  0.77690301068E+01 -0.75131187461E+01  0.30230818557E+01  0.11222468813E+02  0.51100000000E-03 0.  1.
         11    1    1    2    0    0 -0.77690301068E+01  0.75131187461E+01  0.79666062143E+01  0.13426525870E+02  0.51100000000E-03 0. -1.
<mgrwt>
<rscale>  0 0.22063538E+02</rscale>
<asrwt>0</asrwt>
<pdfrwt beam="1">  1        2 0.27414371E-02 0.22063538E+02</pdfrwt>
<pdfrwt beam="2">  1       -2 0.10507159E-02 0.22063538E+02</pdfrwt>
<totfact> 0.32981143E+06</totfact>
</mgrwt>
</event>
<event>
 4    1  0.1433582E+000  0.2242322E+02  0.7818608E-02  0.1701034E+00
          2   -1    0    0  501    0  0.00000000000E+00  0.00000000000E+00  0.14299215770E+02  0.14299216006E+02  0.26000000000E-02 0.  1.
         -2   -1    0    0    0  501 -0.00000000000E+00 -0.00000000000E+00 -0.87907060206E+01  0.87907064051E+01  0.26000000000E-02 0. -1.
        -11    1    1    2    0    0 -0.76709206423E+01  0.70540636391E+01  0.70120930813E+01  0.12560743886E+02  0.51100000000E-03 0.  1.
         11    1    1    2    0    0  0.76709206423E+01 -0.70540636391E+01 -0.15035833321E+01  0.10529178526E+02  0.51100000000E-03 0. -1.
<mgrwt>
<rscale>  0 0.22423221E+02</rscale>
<asrwt>0</asrwt>
<pdfrwt beam="1">  1        2 0.21998794E-02 0.22423221E+02</pdfrwt>
<pdfrwt beam="2">  1       -2 0.13524164E-02 0.22423221E+02</pdfrwt>
<totfact> 0.31179888E+06</totfact>
</mgrwt>
</event>
<event>
 4    1  0.1433582E+000  0.1870333E+03  0.7818608E-02  0.1161165E+00
          2   -1    0    0  501    0  0.00000000000E+00  0.00000000000E+00  0.31818141087E+02  0.31818141193E+02  0.26000000000E-02 0. -1.
         -2   -1    0    0    0  501 -0.00000000000E+00 -0.00000000000E+00 -0.27485460294E+03  0.27485460295E+03  0.26000000000E-02 0.  1.
        -11    1    1    2    0    0  0.85071255858E+01  0.91738807238E+02 -0.14780324083E+03  0.17416709775E+03  0.51100000000E-03 0.  1.
         11    1    1    2    0    0 -0.85071255858E+01 -0.91738807238E+02 -0.95233221025E+02  0.13250564639E+03  0.51100000000E-03 0. -1.
<mgrwt>
<rscale>  0 0.18703329E+03</rscale>
<asrwt>0</asrwt>
<pdfrwt beam="1">  1        2 0.48950988E-02 0.18703329E+03</pdfrwt>
<pdfrwt beam="2">  1       -2 0.42285322E-01 0.18703329E+03</pdfrwt>
<totfact> 0.83581975E+03</totfact>
</mgrwt>
</event>
<event>
 4    1  0.1433582E+000  0.2156882E+02  0.7818608E-02  0.1715817E+00
         -2   -1    0    0    0  501 -0.00000000000E+00  0.00000000000E+00  0.10502674675E+03  0.10502674678E+03  0.26000000000E-02 0.  1.
          2   -1    0    0  501    0  0.00000000000E+00 -0.00000000000E+00 -0.11073686546E+01  0.11073717068E+01  0.26000000000E-02 0. -1.
        -11    1    1    2    0    0  0.17708732881E+01  0.10637985259E+02  0.51823313187E+02  0.52933529190E+02  0.51100000000E-03 0. -1.
         11    1    1    2    0    0 -0.17708732881E+01 -0.10637985259E+02  0.52096064909E+02  0.53200589300E+02  0.51100000000E-03 0.  1.
<mgrwt>
<rscale>  0 0.21568819E+02</rscale>
<asrwt>0</asrwt>
<pdfrwt beam="2">  1        2 0.17036461E-03 0.21568819E+02</pdfrwt>
<pdfrwt beam="1">  1       -2 0.16157965E-01 0.21568819E+02</pdfrwt>
<totfact> 0.24883373E+06</totfact>
</mgrwt>
</event>
<event>
 4    1  0.1433582E+000  0.6634005E+02  0.7818608E-02  0.1373000E+00
          2   -1    0    0  501    0  0.00000000000E+00  0.00000000000E+00  0.99087537437E+02  0.99087537471E+02  0.26000000000E-02 0. -1.
         -2   -1    0    0    0  501 -0.00000000000E+00 -0.00000000000E+00 -0.11103825203E+02  0.11103825507E+02  0.26000000000E-02 0.  1.
        -11    1    1    2    0    0 -0.23273755111E+02  0.96396944788E+00  0.83216053226E+02  0.86414746593E+02  0.51100000000E-03 0. -1.
         11    1    1    2    0    0  0.23273755111E+02 -0.96396944788E+00  0.47676590085E+01  0.23776616385E+02  0.51100000000E-03 0.  1.
<mgrwt>
<rscale>  0 0.66340055E+02</rscale>
<asrwt>0</asrwt>
<pdfrwt beam="1">  1        2 0.15244236E-01 0.66340055E+02</pdfrwt>
<pdfrwt beam="2">  1       -2 0.17082809E-02 0.66340055E+02</pdfrwt>
<totfact> 0.28783624E+05</totfact>
</mgrwt>
</event>
<event>
 4    1  0.1433582E+000  0.3348412E+02  0.7818608E-02  0.1562489E+00
         -2   -1    0    0    0  501 -0.00000000000E+00  0.00000000000E+00  0.24520621904E+01  0.24520635688E+01  0.26000000000E-02 0.  1.
          2   -1    0    0  501    0  0.00000000000E+00 -0.00000000000E+00 -0.11431054140E+03  0.11431054143E+03  0.26000000000E-02 0. -1.
        -11    1    1    2    0    0 -0.15315997584E+02 -0.34665618168E+00 -0.79476016800E+02  0.80939095616E+02  0.51100000000E-03 0. -1.
         11    1    1    2    0    0  0.15315997584E+02  0.34665618168E+00 -0.32382462411E+02  0.35823509383E+02  0.51100000000E-03 0.  1.
<mgrwt>
<rscale>  0 0.33484124E+02</rscale>
<asrwt>0</asrwt>
<pdfrwt beam="2">  1        2 0.17586233E-01 0.33484124E+02</pdfrwt>
<pdfrwt beam="1">  1       -2 0.37724053E-03 0.33484124E+02</pdfrwt>
<totfact> 0.16640415E+06</totfact>
</mgrwt>
</event>
<event>
 4    1  0.1433582E+000  0.3675550E+02  0.7818608E-02  0.1533542E+00
          2   -1    0    0  501    0  0.00000000000E+00  0.00000000000E+00  0.33715402516E+02  0.33715402616E+02  0.26000000000E-02 0.  1.
         -2   -1    0    0    0  501 -0.00000000000E+00 -0.00000000000E+00 -0.10017427746E+02  0.10017428083E+02  0.26000000000E-02 0. -1.
        -11    1    1    2    0    0 -0.13995544491E+02  0.10175374153E+02  0.44827786119E+01  0.17874809344E+02  0.51100000000E-03 0. -1.
         11    1    1    2    0    0  0.13995544491E+02 -0.10175374153E+02  0.19215196158E+02  0.25858021355E+02  0.51100000000E-03 0.  1.
<mgrwt>
<rscale>  0 0.36755496E+02</rscale>
<asrwt>0</asrwt>
<pdfrwt beam="1">  1        2 0.51869851E-02 0.36755496E+02</pdfrwt>
<pdfrwt beam="2">  1       -2 0.15411428E-02 0.36755496E+02</pdfrwt>
<totfact> 0.10458332E+06</totfact>
</mgrwt>
</event>
<event>
 4    1  0.1433582E+000  0.2506070E+02  0.7818608E-02  0.1660132E+00
         -2   -1    0    0    0  501 -0.00000000000E+00  0.00000000000E+00  0.23154778449E+01  0.23154793047E+01  0.26000000000E-02 0.  1.
          2   -1    0    0  501    0  0.00000000000E+00 -0.00000000000E+00 -0.67808708573E+02  0.67808708623E+02  0.26000000000E-02 0. -1.
        -11    1    1    2    0    0  0.11629700100E+02  0.46433082543E+01 -0.31497177828E+02  0.33895168496E+02  0.51100000000E-03 0. -1.
         11    1    1    2    0    0 -0.11629700100E+02 -0.46433082543E+01 -0.33996052899E+02  0.36229019431E+02  0.51100000000E-03 0.  1.
<mgrwt>
<rscale>  0 0.25060696E+02</rscale>
<asrwt>0</asrwt>
<pdfrwt beam="2">  1        2 0.10432108E-01 0.25060696E+02</pdfrwt>
<pdfrwt beam="1">  1       -2 0.35622753E-03 0.25060696E+02</pdfrwt>
<totfact> 0.29249504E+06</totfact>
</mgrwt>
</event>
<event>
 4    1  0.1433582E+000  0.7917889E+02  0.7818608E-02  0.1331398E+00
          2   -1    0    0  501    0  0.00000000000E+00  0.00000000000E+00  0.41779218988E+02  0.41779219069E+02  0.26000000000E-02 0. -1.
         -2   -1    0    0    0  501 -0.00000000000E+00 -0.00000000000E+00 -0.37514442304E+02  0.37514442394E+02  0.26000000000E-02 0.  1.
        -11    1    1    2    0    0 -0.26455535006E+02  0.28824894823E+02  0.81871602519E+01  0.39972484127E+02  0.51100000000E-03 0. -1.
         11    1    1    2    0    0  0.26455535006E+02 -0.28824894823E+02 -0.39223835674E+01  0.39321177336E+02  0.51100000000E-03 0.  1.
<mgrwt>
<rscale>  0 0.79178889E+02</rscale>
<asrwt>0</asrwt>
<pdfrwt beam="1">  1        2 0.64275721E-02 0.79178889E+02</pdfrwt>
<pdfrwt beam="2">  1       -2 0.57714527E-02 0.79178889E+02</pdfrwt>
<totfact> 0.14410212E+05</totfact>
</mgrwt>
</event>
<event>
 4    1  0.1433582E+000  0.4704929E+02  0.7818608E-02  0.1461939E+00
         -2   -1    0    0    0  501 -0.00000000000E+00  0.00000000000E+00  0.43169554830E+01  0.43169562659E+01  0.26000000000E-02 0.  1.
          2   -1    0    0  501    0  0.00000000000E+00 -0.00000000000E+00 -0.12819427600E+03  0.12819427603E+03  0.26000000000E-02 0. -1.
        -11    1    1    2    0    0 -0.17847764680E+02  0.74362155090E+01 -0.99679824518E+02  0.10153771428E+03  0.51100000000E-03 0. -1.
         11    1    1    2    0    0  0.17847764680E+02 -0.74362155090E+01 -0.24197496003E+02  0.30973518016E+02  0.51100000000E-03 0.  1.
<mgrwt>
<rscale>  0 0.47049295E+02</rscale>
<asrwt>0</asrwt>
<pdfrwt beam="2">  1        2 0.19722193E-01 0.47049295E+02</pdfrwt>
<pdfrwt beam="1">  1       -2 0.66414716E-03 0.47049295E+02</pdfrwt>
<totfact> 0.74670948E+05</totfact>
</mgrwt>
</event>
<event>
 4    1  0.1433582E+000  0.2976275E+02  0.7818608E-02  0.1600726E+00
         -2   -1    0    0    0  501 -0.00000000000E+00  0.00000000000E+00  0.25665456395E+01  0.25665469565E+01  0.26000000000E-02 0.  1.
          2   -1    0    0  501    0  0.00000000000E+00 -0.00000000000E+00 -0.86285326779E+02  0.86285326818E+02  0.26000000000E-02 0. -1.
        -11    1    1    2    0    0  0.90286055919E+01  0.10222622058E+02 -0.59630949429E+02  0.61170808812E+02  0.51100000000E-03 0. -1.
         11    1    1    2    0    0 -0.90286055919E+01 -0.10222622058E+02 -0.24087831711E+02  0.27681064963E+02  0.51100000000E-03 0.  1.
<mgrwt>
<rscale>  0 0.29762748E+02</rscale>
<asrwt>0</asrwt>
<pdfrwt beam="2">  1        2 0.13274663E-01 0.29762748E+02</pdfrwt>
<pdfrwt beam="1">  1       -2 0.39485335E-03 0.29762748E+02</pdfrwt>
<totfact> 0.20575468E+06</totfact>
</mgrwt>
</event>
<event>
 4    1  0.1433582E+000  0.6482328E+02  0.7818608E-02  0.1378637E+00
         -2   -1    0    0    0  501 -0.00000000000E+00  0.00000000000E+00  0.17708914686E+02  0.17708914877E+02  0.26000000000E-02 0.  1.
          2   -1    0    0  501    0  0.00000000000E+00 -0.00000000000E+00 -0.59321222433E+02  0.59321222490E+02  0.26000000000E-02 0. -1.
        -11    1    1    2    0    0  0.15564787299E+02  0.15360822621E+02 -0.49233766641E+02  0.53871896691E+02  0.51100000000E-03 0. -1.
         11    1    1    2    0    0 -0.15564787299E+02 -0.15360822621E+02  0.76214588934E+01  0.23158240675E+02  0.51100000000E-03 0.  1.
<mgrwt>
<rscale>  0 0.64823282E+02</rscale>
<asrwt>0</asrwt>
<pdfrwt beam="2">  1        2 0.91263418E-02 0.64823282E+02</pdfrwt>
<pdfrwt beam="1">  1       -2 0.27244485E-02 0.64823282E+02</pdfrwt>
<totfact> 0.26928047E+05</totfact>
</mgrwt>
</event>
<event>
 4    1  0.1433582E+000  0.3731828E+02  0.7818608E-02  0.1528927E+00
         -2   -1    0    0    0  501 -0.00000000000E+00  0.00000000000E+00  0.33193217419E+01  0.33193227601E+01  0.26000000000E-02 0. -1.
          2   -1    0    0  501    0  0.00000000000E+00 -0.00000000000E+00 -0.10488996246E+03  0.10488996249E+03  0.26000000000E-02 0.  1.
        -11    1    1    2    0    0  0.17428728811E+02  0.54039600429E+01 -0.62090247203E+02  0.64716011698E+02  0.51100000000E-03 0.  1.
         11    1    1    2    0    0 -0.17428728811E+02 -0.54039600429E+01 -0.39480393516E+02  0.43493273555E+02  0.51100000000E-03 0. -1.
<mgrwt>
<rscale>  0 0.37318285E+02</rscale>
<asrwt>0</asrwt>
<pdfrwt beam="2">  1        2 0.16136915E-01 0.37318285E+02</pdfrwt>
<pdfrwt beam="1">  1       -2 0.51066504E-03 0.37318285E+02</pdfrwt>
<totfact> 0.12530718E+06</totfact>
</mgrwt>
</event>
<event>
 4    1  0.1433582E+000  0.5605947E+02  0.7818608E-02  0.1415154E+00
         -2   -1    0    0    0  501 -0.00000000000E+00  0.00000000000E+00  0.10489450963E+03  0.10489450966E+03  0.26000000000E-02 0.  1.
          2   -1    0    0  501    0  0.00000000000E+00 -0.00000000000E+00 -0.74900588227E+01  0.74900592740E+01  0.26000000000E-02 0. -1.
        -11    1    1    2    0    0 -0.74595425640E+01  0.25010985806E+02  0.28211496396E+02  0.38432833820E+02  0.51100000000E-03 0. -1.
         11    1    1    2    0    0  0.74595425640E+01 -0.25010985806E+02  0.69192954410E+02  0.73951735115E+02  0.51100000000E-03 0.  1.
<mgrwt>
<rscale>  0 0.56059471E+02</rscale>
<asrwt>0</asrwt>
<pdfrwt beam="2">  1        2 0.11523168E-02 0.56059471E+02</pdfrwt>
<pdfrwt beam="1">  1       -2 0.16137616E-01 0.56059471E+02</pdfrwt>
<totfact> 0.26340293E+05</totfact>
</mgrwt>
</event>
<event>
 4    1  0.1433582E+000  0.2138912E+02  0.7818608E-02  0.1719036E+00
          2   -1    0    0  501    0  0.00000000000E+00  0.00000000000E+00  0.10988403177E+03  0.10988403180E+03  0.26000000000E-02 0.  1.
         -2   -1    0    0    0  501 -0.00000000000E+00 -0.00000000000E+00 -0.10408554292E+01  0.10408586766E+01  0.26000000000E-02 0. -1.
        -11    1    1    2    0    0 -0.48945690859E+00  0.10641063690E+02  0.59346331480E+02  0.60294766480E+02  0.51100000000E-03 0. -1.
         11    1    1    2    0    0  0.48945690859E+00 -0.10641063690E+02  0.49496844861E+02  0.50630123997E+02  0.51100000000E-03 0.  1.
<mgrwt>
<rscale>  0 0.21389116E+02</rscale>
<asrwt>0</asrwt>
<pdfrwt beam="1">  1        2 0.16905219E-01 0.21389116E+02</pdfrwt>
<pdfrwt beam="2">  1       -2 0.16013202E-03 0.21389116E+02</pdfrwt>
<totfact> 0.46467964E+06</totfact>
</mgrwt>
</event>
<event>
 4    1  0.1433582E+000  0.2312845E+02  0.7818608E-02  0.1689436E+00
          2   -1    0    0  501    0  0.00000000000E+00  0.00000000000E+00  0.24722521845E+01  0.24722535516E+01  0.26000000000E-02 0.  1.
         -2   -1    0    0    0  501 -0.00000000000E+00 -0.00000000000E+00 -0.54092896386E+02  0.54092896449E+02  0.26000000000E-02 0. -1.
        -11    1    1    2    0    0  0.25866927026E+01  0.11197716176E+02 -0.28953297446E+02  0.31150814756E+02  0.51100000000E-03 0.  1.
         11    1    1    2    0    0 -0.25866927026E+01 -0.11197716176E+02 -0.22667346756E+02  0.25414335244E+02  0.51100000000E-03 0. -1.
<mgrwt>
<rscale>  0 0.23128452E+02</rscale>
<asrwt>0</asrwt>
<pdfrwt beam="1">  1        2 0.38034664E-03 0.23128452E+02</pdfrwt>
<pdfrwt beam="2">  1       -2 0.83219833E-02 0.23128452E+02</pdfrwt>
<totfact> 0.24297263E+06</totfact>
</mgrwt>
</event>
<event>
 4    1  0.1433582E+000  0.4188220E+02  0.7818608E-02  0.1494800E+00
         -2   -1    0    0    0  501 -0.00000000000E+00  0.00000000000E+00  0.26321894596E+02  0.26321894725E+02  0.26000000000E-02 0.  1.
          2   -1    0    0  501    0  0.00000000000E+00 -0.00000000000E+00 -0.16660261675E+02  0.16660261878E+02  0.26000000000E-02 0. -1.
        -11    1    1    2    0    0 -0.16211996787E+02  0.13183661380E+02  0.34192321476E+01  0.21173778972E+02  0.51100000000E-03 0. -1.
         11    1    1    2    0    0  0.16211996787E+02 -0.13183661380E+02  0.62424007734E+01  0.21808377631E+02  0.51100000000E-03 0.  1.
<mgrwt>
<rscale>  0 0.41882200E+02</rscale>
<asrwt>0</asrwt>
<pdfrwt beam="2">  1        2 0.25631172E-02 0.41882200E+02</pdfrwt>
<pdfrwt beam="1">  1       -2 0.40495223E-02 0.41882200E+02</pdfrwt>
<totfact> 0.68354710E+05</totfact>
</mgrwt>
</event>
<event>
 4    1  0.1433582E+000  0.6430075E+02  0.7818608E-02  0.1380621E+00
         -2   -1    0    0    0  501 -0.00000000000E+00  0.00000000000E+00  0.58615468454E+02  0.58615468511E+02  0.26000000000E-02 0.  1.
          2   -1    0    0  501    0  0.00000000000E+00 -0.00000000000E+00 -0.17634363502E+02  0.17634363693E+02  0.26000000000E-02 0. -1.
        -11    1    1    2    0    0 -0.30200233989E+02  0.10269782458E+02  0.15728894197E+02  0.35565723353E+02  0.51100000000E-03 0. -1.
         11    1    1    2    0    0  0.30200233989E+02 -0.10269782458E+02  0.25252210755E+02  0.40684108851E+02  0.51100000000E-03 0.  1.
<mgrwt>
<rscale>  0 0.64300746E+02</rscale>
<asrwt>0</asrwt>
<pdfrwt beam="2">  1        2 0.27129790E-02 0.64300746E+02</pdfrwt>
<pdfrwt beam="1">  1       -2 0.90177646E-02 0.64300746E+02</pdfrwt>
<totfact> 0.21539262E+05</totfact>
</mgrwt>
</event>
<event>
 4    1  0.1433582E+000  0.6543906E+02  0.7818608E-02  0.1376328E+00
         -2   -1    0    0    0  501 -0.00000000000E+00  0.00000000000E+00  0.34290418858E+02  0.34290418957E+02  0.26000000000E-02 0. -1.
          2   -1    0    0  501    0  0.00000000000E+00 -0.00000000000E+00 -0.31220603397E+02  0.31220603506E+02  0.26000000000E-02 0.  1.
        -11    1    1    2    0    0 -0.15719935422E+02 -0.76060716905E+01 -0.26164978388E+02  0.31457507697E+02  0.51100000000E-03 0.  1.
         11    1    1    2    0    0  0.15719935422E+02  0.76060716905E+01  0.29234793848E+02  0.34053514765E+02  0.51100000000E-03 0. -1.
<mgrwt>
<rscale>  0 0.65439058E+02</rscale>
<asrwt>0</asrwt>
<pdfrwt beam="2">  1        2 0.48031698E-02 0.65439058E+02</pdfrwt>
<pdfrwt beam="1">  1       -2 0.52754491E-02 0.65439058E+02</pdfrwt>
<totfact> 0.22980576E+05</totfact>
</mgrwt>
</event>
<event>
 4    1  0.1433582E+000  0.2427516E+02  0.7818608E-02  0.1671637E+00
         -2   -1    0    0    0  501 -0.00000000000E+00  0.00000000000E+00  0.25716069896E+02  0.25716070027E+02  0.26000000000E-02 0. -1.
          2   -1    0    0  501    0  0.00000000000E+00 -0.00000000000E+00 -0.57287483289E+01  0.57287489189E+01  0.26000000000E-02 0.  1.
        -11    1    1    2    0    0 -0.11840487618E+02  0.23471372906E+01  0.83476478384E+01  0.14676151579E+02  0.51100000000E-03 0.  1.
         11    1    1    2    0    0  0.11840487618E+02 -0.23471372906E+01  0.11639673729E+02  0.16768667367E+02  0.51100000000E-03 0. -1.
<mgrwt>
<rscale>  0 0.24275165E+02</rscale>
<asrwt>0</asrwt>
<pdfrwt beam="2">  1        2 0.88134595E-03 0.24275165E+02</pdfrwt>
<pdfrwt beam="1">  1       -2 0.39563185E-02 0.24275165E+02</pdfrwt>
<totfact> 0.23877113E+06</totfact>
</mgrwt>
</event>
<event>
 4    1  0.1433582E+000  0.3254274E+02  0.7818608E-02  0.1571571E+00
          2   -1    0    0  501    0  0.00000000000E+00  0.00000000000E+00  0.44745992084E+01  0.44745999638E+01  0.26000000000E-02 0.  1.
         -2   -1    0    0    0  501 -0.00000000000E+00 -0.00000000000E+00 -0.59168965085E+02  0.59168965142E+02  0.26000000000E-02 0. -1.
        -11    1    1    2    0    0  0.64548294623E+01 -0.86674783674E+01 -0.35577832124E+01  0.11377514064E+02  0.51100000000E-03 0.  1.
         11    1    1    2    0    0 -0.64548294623E+01  0.86674783674E+01 -0.51136582664E+02  0.52266051041E+02  0.51100000000E-03 0. -1.
<mgrwt>
<rscale>  0 0.32542737E+02</rscale>
<asrwt>0</asrwt>
<pdfrwt beam="1">  1        2 0.68839998E-03 0.32542737E+02</pdfrwt>
<pdfrwt beam="2">  1       -2 0.91029172E-02 0.32542737E+02</pdfrwt>
<totfact> 0.10973723E+06</totfact>
</mgrwt>
</event>
<event>
 4    1  0.1433582E+000  0.2291233E+02  0.7818608E-02  0.1692935E+00
         -2   -1    0    0    0  501 -0.00000000000E+00  0.00000000000E+00  0.25015291579E+02  0.25015291714E+02  0.26000000000E-02 0. -1.
          2   -1    0    0  501    0  0.00000000000E+00 -0.00000000000E+00 -0.52465389739E+01  0.52465396181E+01  0.26000000000E-02 0.  1.
        -11    1    1    2    0    0 -0.11335638597E+02  0.16442221831E+01  0.10159985623E+02  0.15310959379E+02  0.51100000000E-03 0.  1.
         11    1    1    2    0    0  0.11335638597E+02 -0.16442221831E+01  0.96087669818E+01  0.14950871953E+02  0.51100000000E-03 0. -1.
<mgrwt>
<rscale>  0 0.22912330E+02</rscale>
<asrwt>0</asrwt>
<pdfrwt beam="2">  1        2 0.80715991E-03 0.22912330E+02</pdfrwt>
<pdfrwt beam="1">  1       -2 0.38485064E-02 0.22912330E+02</pdfrwt>
<totfact> 0.27223484E+06</totfact>
</mgrwt>
</event>
<event>
 4    1  0.1433582E+000  0.3011535E+02  0.7818608E-02  0.1596817E+00
         -2   -1    0    0    0  501 -0.00000000000E+00  0.00000000000E+00  0.68070014452E+02  0.68070014502E+02  0.26000000000E-02 0. -1.
          2   -1    0    0  501    0  0.00000000000E+00 -0.00000000000E+00 -0.33308873379E+01  0.33308883527E+01  0.26000000000E-02 0.  1.
        -11    1    1    2    0    0  0.87844227154E+01  0.82207668489E+01  0.53837334038E+02  0.55165257423E+02  0.51100000000E-03 0. -1.
         11    1    1    2    0    0 -0.87844227154E+01 -0.82207668489E+01  0.10901793077E+02  0.16235645431E+02  0.51100000000E-03 0.  1.
<mgrwt>
<rscale>  0 0.30115351E+02</rscale>
<asrwt>0</asrwt>
<pdfrwt beam="2">  1        2 0.51244427E-03 0.30115351E+02</pdfrwt>
<pdfrwt beam="1">  1       -2 0.10472310E-01 0.30115351E+02</pdfrwt>
<totfact> 0.12821817E+06</totfact>
</mgrwt>
</event>
<event>
 4    1  0.1433582E+000  0.3755666E+02  0.7818608E-02  0.1527002E+00
          2   -1    0    0  501    0  0.00000000000E+00  0.00000000000E+00  0.18433191214E+02  0.18433191397E+02  0.26000000000E-02 0.  1.
         -2   -1    0    0    0  501 -0.00000000000E+00 -0.00000000000E+00 -0.19129926393E+02  0.19129926569E+02  0.26000000000E-02 0. -1.
        -11    1    1    2    0    0  0.12935220315E+02  0.16615011988E+00  0.13265663138E+02  0.18529040698E+02  0.51100000000E-03 0.  1.
         11    1    1    2    0    0 -0.12935220315E+02 -0.16615011988E+00 -0.13962398316E+02  0.19034077268E+02  0.51100000000E-03 0. -1.
<mgrwt>
<rscale>  0 0.37556656E+02</rscale>
<asrwt>0</asrwt>
<pdfrwt beam="1">  1        2 0.28358756E-02 0.37556656E+02</pdfrwt>
<pdfrwt beam="2">  1       -2 0.29430656E-02 0.37556656E+02</pdfrwt>
<totfact> 0.91588476E+05</totfact>
</mgrwt>
</event>
<event>
 4    1  0.1433582E+000  0.3955928E+02  0.7818608E-02  0.1511480E+00
         -2   -1    0    0    0  501 -0.00000000000E+00  0.00000000000E+00  0.30368695309E+01  0.30368706439E+01  0.26000000000E-02 0.  1.
          2   -1    0    0  501    0  0.00000000000E+00 -0.00000000000E+00 -0.12882805514E+03  0.12882805516E+03  0.26000000000E-02 0. -1.
        -11    1    1    2    0    0 -0.72467430467E+01 -0.17879319111E+02 -0.77443952117E+02  0.79810720185E+02  0.51100000000E-03 0. -1.
         11    1    1    2    0    0  0.72467430467E+01  0.17879319111E+02 -0.48347233489E+02  0.52054205622E+02  0.51100000000E-03 0.  1.
<mgrwt>
<rscale>  0 0.39559276E+02</rscale>
<asrwt>0</asrwt>
<pdfrwt beam="2">  1        2 0.19819697E-01 0.39559276E+02</pdfrwt>
<pdfrwt beam="1">  1       -2 0.46721089E-03 0.39559276E+02</pdfrwt>
<totfact> 0.11481868E+06</totfact>
</mgrwt>
</event>
<event>
 4    1  0.1433582E+000  0.3601635E+02  0.7818608E-02  0.1539756E+00
          2   -1    0    0  501    0  0.00000000000E+00  0.00000000000E+00  0.57660807321E+01  0.57660813183E+01  0.26000000000E-02 0.  1.
         -2   -1    0    0    0  501 -0.00000000000E+00 -0.00000000000E+00 -0.56241725850E+02  0.56241725910E+02  0.26000000000E-02 0. -1.
        -11    1    1    2    0    0 -0.18587294538E+01 -0.17843270908E+02 -0.22539068097E+02  0.28807061336E+02  0.51100000000E-03 0. -1.
         11    1    1    2    0    0  0.18587294538E+01  0.17843270908E+02 -0.27936577021E+02  0.33200745892E+02  0.51100000000E-03 0.  1.
<mgrwt>
<rscale>  0 0.36016349E+02</rscale>
<asrwt>0</asrwt>
<pdfrwt beam="1">  1        2 0.88708943E-03 0.36016349E+02</pdfrwt>
<pdfrwt beam="2">  1       -2 0.86525729E-02 0.36016349E+02</pdfrwt>
<totfact> 0.87270803E+05</totfact>
</mgrwt>
</event>
<event>
 4    1  0.1433582E+000  0.5076523E+02  0.7818608E-02  0.1441257E+00
         -2   -1    0    0    0  501 -0.00000000000E+00  0.00000000000E+00  0.14776068689E+02  0.14776068917E+02  0.26000000000E-02 0. -1.
          2   -1    0    0  501    0  0.00000000000E+00 -0.00000000000E+00 -0.43602741410E+02  0.43602741487E+02  0.26000000000E-02 0.  1.
        -11    1    1    2    0    0  0.12621953387E+02  0.10364330509E+02 -0.36757942967E+02  0.40222871922E+02  0.51100000000E-03 0.  1.
         11    1    1    2    0    0 -0.12621953387E+02 -0.10364330509E+02  0.79312702466E+01  0.18155938483E+02  0.51100000000E-03 0. -1.
<mgrwt>
<rscale>  0 0.50765229E+02</rscale>
<asrwt>0</asrwt>
<pdfrwt beam="2">  1        2 0.67081140E-02 0.50765229E+02</pdfrwt>
<pdfrwt beam="1">  1       -2 0.22732414E-02 0.50765229E+02</pdfrwt>
<totfact> 0.48091264E+05</totfact>
</mgrwt>
</event>
<event>
 4    1  0.1433582E+000  0.2528236E+02  0.7818608E-02  0.1656979E+00
          2   -1    0    0  501    0  0.00000000000E+00  0.00000000000E+00  0.33283074531E+02  0.33283074633E+02  0.26000000000E-02 0. -1.
         -2   -1    0    0    0  501 -0.00000000000E+00 -0.00000000000E+00 -0.48012211969E+01  0.48012219009E+01  0.26000000000E-02 0.  1.
        -11    1    1    2    0    0 -0.23530518402E+01 -0.12415059749E+02  0.13700195396E+02  0.18637755114E+02  0.51100000000E-03 0. -1.
         11    1    1    2    0    0  0.23530518402E+01  0.12415059749E+02  0.14781657938E+02  0.19446541420E+02  0.51100000000E-03 0.  1.
<mgrwt>
<rscale>  0 0.25282359E+02</rscale>
<asrwt>0</asrwt>
<pdfrwt beam="1">  1        2 0.51204731E-02 0.25282359E+02</pdfrwt>
<pdfrwt beam="2">  1       -2 0.73864947E-03 0.25282359E+02</pdfrwt>
<totfact> 0.25677286E+06</totfact>
</mgrwt>
</event>
<event>
 4    1  0.1433582E+000  0.5425872E+02  0.7818608E-02  0.1423637E+00
          2   -1    0    0  501    0  0.00000000000E+00  0.00000000000E+00  0.46144080025E+02  0.46144080098E+02  0.26000000000E-02 0.  1.
         -2   -1    0    0    0  501 -0.00000000000E+00 -0.00000000000E+00 -0.15950086777E+02  0.15950086989E+02  0.26000000000E-02 0. -1.
        -11    1    1    2    0    0 -0.12641287276E+01 -0.26510705262E+02  0.86651963416E+01  0.27919547683E+02  0.51100000000E-03 0.  1.
         11    1    1    2    0    0  0.12641287276E+01  0.26510705262E+02  0.21528796906E+02  0.34174619404E+02  0.51100000000E-03 0. -1.
<mgrwt>
<rscale>  0 0.54258717E+02</rscale>
<asrwt>0</asrwt>
<pdfrwt beam="1">  1        2 0.70990892E-02 0.54258717E+02</pdfrwt>
<pdfrwt beam="2">  1       -2 0.24538596E-02 0.54258717E+02</pdfrwt>
<totfact> 0.40871756E+05</totfact>
</mgrwt>
</event>
<event>
 4    1  0.1433582E+000  0.5714195E+02  0.7818608E-02  0.1410233E+00
          2   -1    0    0  501    0  0.00000000000E+00  0.00000000000E+00  0.21352732727E+02  0.21352732886E+02  0.26000000000E-02 0. -1.
         -2   -1    0    0    0  501 -0.00000000000E+00 -0.00000000000E+00 -0.38229326390E+02  0.38229326479E+02  0.26000000000E-02 0.  1.
        -11    1    1    2    0    0 -0.61095362053E+00  0.28000227678E+02 -0.25477578519E+01  0.28122536954E+02  0.51100000000E-03 0.  1.
         11    1    1    2    0    0  0.61095362053E+00 -0.28000227678E+02 -0.14328835811E+02  0.31459522411E+02  0.51100000000E-03 0. -1.
<mgrwt>
<rscale>  0 0.57141949E+02</rscale>
<asrwt>0</asrwt>
<pdfrwt beam="1">  1        2 0.32850358E-02 0.57141949E+02</pdfrwt>
<pdfrwt beam="2">  1       -2 0.58814348E-02 0.57141949E+02</pdfrwt>
<totfact> 0.31043461E+05</totfact>
</mgrwt>
</event>
<event>
 4    1  0.1433582E+000  0.1107584E+03  0.7818608E-02  0.1259172E+00
          2   -1    0    0  501    0  0.00000000000E+00  0.00000000000E+00  0.16713959688E+03  0.16713959690E+03  0.26000000000E-02 0.  1.
         -2   -1    0    0    0  501 -0.00000000000E+00 -0.00000000000E+00 -0.18349052018E+02  0.18349052202E+02  0.26000000000E-02 0. -1.
        -11    1    1    2    0    0 -0.17432105902E+02 -0.22362068364E+02 -0.52710474370E+01  0.28839631742E+02  0.51100000000E-03 0. -1.
         11    1    1    2    0    0  0.17432105902E+02  0.22362068364E+02  0.15406159230E+03  0.15664901736E+03  0.51100000000E-03 0.  1.
<mgrwt>
<rscale>  0 0.11075835E+03</rscale>
<asrwt>0</asrwt>
<pdfrwt beam="1">  1        2 0.25713785E-01 0.11075835E+03</pdfrwt>
<pdfrwt beam="2">  1       -2 0.28229310E-02 0.11075835E+03</pdfrwt>
<totfact> 0.85144193E+04</totfact>
</mgrwt>
</event>
<event>
 4    1  0.1433582E+000  0.4177743E+02  0.7818608E-02  0.1495524E+00
          2   -1    0    0  501    0  0.00000000000E+00  0.00000000000E+00  0.36711272357E+02  0.36711272449E+02  0.26000000000E-02 0.  1.
         -2   -1    0    0    0  501 -0.00000000000E+00 -0.00000000000E+00 -0.11885678260E+02  0.11885678544E+02  0.26000000000E-02 0. -1.
        -11    1    1    2    0    0 -0.77145605472E+01  0.19114711379E+02  0.16349232688E+02  0.26309390819E+02  0.51100000000E-03 0.  1.
         11    1    1    2    0    0  0.77145605472E+01 -0.19114711379E+02  0.84763614086E+01  0.22287560174E+02  0.51100000000E-03 0. -1.
<mgrwt>
<rscale>  0 0.41777428E+02</rscale>
<asrwt>0</asrwt>
<pdfrwt beam="1">  1        2 0.56478880E-02 0.41777428E+02</pdfrwt>
<pdfrwt beam="2">  1       -2 0.18285660E-02 0.41777428E+02</pdfrwt>
<totfact> 0.76891587E+05</totfact>
</mgrwt>
</event>
<event>
 4    1  0.1433582E+000  0.2249928E+02  0.7818608E-02  0.1699758E+00
         -2   -1    0    0    0  501 -0.00000000000E+00  0.00000000000E+00  0.26312524952E+01  0.26312537797E+01  0.26000000000E-02 0. -1.
          2   -1    0    0  501    0  0.00000000000E+00 -0.00000000000E+00 -0.48096624681E+02  0.48096624751E+02  0.26000000000E-02 0.  1.
        -11    1    1    2    0    0  0.33915363147E+01  0.95848237596E+01 -0.33588520435E+02  0.35093590161E+02  0.51100000000E-03 0. -1.
         11    1    1    2    0    0 -0.33915363147E+01 -0.95848237596E+01 -0.11876851750E+02  0.15634288370E+02  0.51100000000E-03 0.  1.
<mgrwt>
<rscale>  0 0.22499280E+02</rscale>
<asrwt>0</asrwt>
<pdfrwt beam="2">  1        2 0.73994801E-02 0.22499280E+02</pdfrwt>
<pdfrwt beam="1">  1       -2 0.40480822E-03 0.22499280E+02</pdfrwt>
<totfact> 0.35326336E+06</totfact>
</mgrwt>
</event>
<event>
 4    1  0.1433582E+000  0.3943811E+02  0.7818608E-02  0.1512388E+00
         -2   -1    0    0    0  501 -0.00000000000E+00  0.00000000000E+00  0.36961797464E+01  0.36961806608E+01  0.26000000000E-02 0.  1.
          2   -1    0    0  501    0  0.00000000000E+00 -0.00000000000E+00 -0.10520080897E+03  0.10520080900E+03  0.26000000000E-02 0. -1.
        -11    1    1    2    0    0 -0.57949601328E+00 -0.18255314115E+02 -0.30228345276E+02  0.35317774101E+02  0.51100000000E-03 0.  1.
         11    1    1    2    0    0  0.57949601328E+00  0.18255314115E+02 -0.71276283949E+02  0.73579215564E+02  0.51100000000E-03 0. -1.
<mgrwt>
<rscale>  0 0.39438111E+02</rscale>
<asrwt>0</asrwt>
<pdfrwt beam="2">  1        2 0.16184738E-01 0.39438111E+02</pdfrwt>
<pdfrwt beam="1">  1       -2 0.56864319E-03 0.39438111E+02</pdfrwt>
<totfact> 0.10957155E+06</totfact>
</mgrwt>
</event>
<event>
 4    1  0.1433582E+000  0.2388887E+02  0.7818608E-02  0.1677494E+00
          2   -1    0    0  501    0  0.00000000000E+00  0.00000000000E+00  0.10399419991E+02  0.10399420317E+02  0.26000000000E-02 0.  1.
         -2   -1    0    0    0  501 -0.00000000000E+00 -0.00000000000E+00 -0.13718983281E+02  0.13718983528E+02  0.26000000000E-02 0. -1.
        -11    1    1    2    0    0  0.11052771417E+02 -0.91061855066E+00 -0.61382229555E+01  0.12675597164E+02  0.51100000000E-03 0. -1.
         11    1    1    2    0    0 -0.11052771417E+02  0.91061855066E+00  0.28186596659E+01  0.11442806680E+02  0.51100000000E-03 0.  1.
<mgrwt>
<rscale>  0 0.23888866E+02</rscale>
<asrwt>0</asrwt>
<pdfrwt beam="1">  1        2 0.15999108E-02 0.23888866E+02</pdfrwt>
<pdfrwt beam="2">  1       -2 0.21106129E-02 0.23888866E+02</pdfrwt>
<totfact> 0.26180638E+06</totfact>
</mgrwt>
</event>
<event>
 4    1  0.1433582E+000  0.3049091E+02  0.7818608E-02  0.1592725E+00
          2   -1    0    0  501    0  0.00000000000E+00  0.00000000000E+00  0.68928190523E+01  0.68928195426E+01  0.26000000000E-02 0. -1.
         -2   -1    0    0    0  501 -0.00000000000E+00 -0.00000000000E+00 -0.33719711646E+02  0.33719711746E+02  0.26000000000E-02 0.  1.
        -11    1    1    2    0    0  0.10770621233E+01 -0.11896000994E+02 -0.26031850885E+02  0.28641441361E+02  0.51100000000E-03 0.  1.
         11    1    1    2    0    0 -0.10770621233E+01  0.11896000994E+02 -0.79504170841E+00  0.11971089928E+02  0.51100000000E-03 0. -1.
<mgrwt>
<rscale>  0 0.30490909E+02</rscale>
<asrwt>0</asrwt>
<pdfrwt beam="1">  1        2 0.10604338E-02 0.30490909E+02</pdfrwt>
<pdfrwt beam="2">  1       -2 0.51876479E-02 0.30490909E+02</pdfrwt>
<totfact> 0.13824537E+06</totfact>
</mgrwt>
</event>
<event>
 4    1  0.1433582E+000  0.5309017E+02  0.7818608E-02  0.1429353E+00
          2   -1    0    0  501    0  0.00000000000E+00  0.00000000000E+00  0.87329165952E+02  0.87329165991E+02  0.26000000000E-02 0. -1.
         -2   -1    0    0    0  501 -0.00000000000E+00 -0.00000000000E+00 -0.80687980817E+01  0.80687985006E+01  0.26000000000E-02 0.  1.
        -11    1    1    2    0    0 -0.71674095171E+01  0.18499265136E+02  0.71321329307E+02  0.74029227904E+02  0.51100000000E-03 0. -1.
         11    1    1    2    0    0  0.71674095171E+01 -0.18499265136E+02  0.79390385638E+01  0.21368736587E+02  0.51100000000E-03 0.  1.
<mgrwt>
<rscale>  0 0.53090166E+02</rscale>
<asrwt>0</asrwt>
<pdfrwt beam="1">  1        2 0.13435257E-01 0.53090166E+02</pdfrwt>
<pdfrwt beam="2">  1       -2 0.12413536E-02 0.53090166E+02</pdfrwt>
<totfact> 0.49656925E+05</totfact>
</mgrwt>
</event>
<event>
 4    1  0.1433582E+000  0.4981886E+02  0.7818608E-02  0.1446321E+00
          2   -1    0    0  501    0  0.00000000000E+00  0.00000000000E+00  0.90202993924E+02  0.90202993961E+02  0.26000000000E-02 0.  1.
         -2   -1    0    0    0  501 -0.00000000000E+00 -0.00000000000E+00 -0.68787042055E+01  0.68787046969E+01  0.26000000000E-02 0. -1.
        -11    1    1    2    0    0 -0.15104879536E+02 -0.80617614945E+01  0.76918442928E+02  0.78800991408E+02  0.51100000000E-03 0.  1.
         11    1    1    2    0    0  0.15104879536E+02  0.80617614945E+01  0.64058467903E+01  0.18280707250E+02  0.51100000000E-03 0. -1.
<mgrwt>
<rscale>  0 0.49818861E+02</rscale>
<asrwt>0</asrwt>
<pdfrwt beam="1">  1        2 0.13877384E-01 0.49818861E+02</pdfrwt>
<pdfrwt beam="2">  1       -2 0.10582622E-02 0.49818861E+02</pdfrwt>
<totfact> 0.58863663E+05</totfact>
</mgrwt>
</event>
<event>
 4    1  0.1433582E+000  0.3199903E+02  0.7818608E-02  0.1576988E+00
         -2   -1    0    0    0  501 -0.00000000000E+00  0.00000000000E+00  0.20451970105E+02  0.20451970270E+02  0.26000000000E-02 0.  1.
          2   -1    0    0  501    0  0.00000000000E+00 -0.00000000000E+00 -0.12516370266E+02  0.12516370536E+02  0.26000000000E-02 0. -1.
        -11    1    1    2    0    0  0.14054381372E+02  0.36804044570E+01  0.10872556927E+02  0.18146170591E+02  0.51100000000E-03 0.  1.
         11    1    1    2    0    0 -0.14054381372E+02 -0.36804044570E+01 -0.29369570882E+01  0.14822170216E+02  0.51100000000E-03 0. -1.
<mgrwt>
<rscale>  0 0.31999027E+02</rscale>
<asrwt>0</asrwt>
<pdfrwt beam="2">  1        2 0.19255955E-02 0.31999027E+02</pdfrwt>
<pdfrwt beam="1">  1       -2 0.31464570E-02 0.31999027E+02</pdfrwt>
<totfact> 0.13097971E+06</totfact>
</mgrwt>
</event>
<event>
 4    1  0.1433582E+000  0.5565228E+02  0.7818608E-02  0.1417039E+00
         -2   -1    0    0    0  501 -0.00000000000E+00  0.00000000000E+00  0.45660581630E+01  0.45660589033E+01  0.26000000000E-02 0.  1.
          2   -1    0    0  501    0  0.00000000000E+00 -0.00000000000E+00 -0.16957604928E+03  0.16957604930E+03  0.26000000000E-02 0. -1.
        -11    1    1    2    0    0 -0.58147108420E+01  0.27130663122E+02 -0.89076443860E+02  0.93297891695E+02  0.51100000000E-03 0. -1.
         11    1    1    2    0    0  0.58147108420E+01 -0.27130663122E+02 -0.75933547252E+02  0.80844216504E+02  0.51100000000E-03 0.  1.
<mgrwt>
<rscale>  0 0.55652284E+02</rscale>
<asrwt>0</asrwt>
<pdfrwt beam="2">  1        2 0.26088618E-01 0.55652284E+02</pdfrwt>
<pdfrwt beam="1">  1       -2 0.70247067E-03 0.55652284E+02</pdfrwt>
<totfact> 0.53227513E+05</totfact>
</mgrwt>
</event>
<event>
 4    1  0.1433582E+000  0.3283019E+02  0.7818608E-02  0.1568759E+00
         -2   -1    0    0    0  501 -0.00000000000E+00  0.00000000000E+00  0.18001337468E+02  0.18001337656E+02  0.26000000000E-02 0.  1.
          2   -1    0    0  501    0  0.00000000000E+00 -0.00000000000E+00 -0.14968625891E+02  0.14968626117E+02  0.26000000000E-02 0. -1.
        -11    1    1    2    0    0 -0.77991212812E+01  0.77205402044E+01 -0.10743085719E+02  0.15357308515E+02  0.51100000000E-03 0. -1.
         11    1    1    2    0    0  0.77991212812E+01 -0.77205402044E+01  0.13775797296E+02  0.17612655257E+02  0.51100000000E-03 0.  1.
<mgrwt>
<rscale>  0 0.32830187E+02</rscale>
<asrwt>0</asrwt>
<pdfrwt beam="2">  1        2 0.23028656E-02 0.32830187E+02</pdfrwt>
<pdfrwt beam="1">  1       -2 0.27694366E-02 0.32830187E+02</pdfrwt>
<totfact> 0.12529906E+06</totfact>
</mgrwt>
</event>
<event>
 4    1  0.1433582E+000  0.3246104E+02  0.7818608E-02  0.1572377E+00
          2   -1    0    0  501    0  0.00000000000E+00  0.00000000000E+00  0.17471272748E+03  0.17471272750E+03  0.26000000000E-02 0.  1.
         -2   -1    0    0    0  501 -0.00000000000E+00 -0.00000000000E+00 -0.15077867548E+01  0.15077889965E+01  0.26000000000E-02 0. -1.
        -11    1    1    2    0    0  0.11011712639E+02  0.11916928926E+02  0.88765272935E+02  0.90236049834E+02  0.51100000000E-03 0. -1.
         11    1    1    2    0    0 -0.11011712639E+02 -0.11916928926E+02  0.84439667793E+02  0.85984466664E+02  0.51100000000E-03 0.  1.
<mgrwt>
<rscale>  0 0.32461037E+02</rscale>
<asrwt>0</asrwt>
<pdfrwt beam="1">  1        2 0.26878881E-01 0.32461037E+02</pdfrwt>
<pdfrwt beam="2">  1       -2 0.23196737E-03 0.32461037E+02</pdfrwt>
<totfact> 0.20204058E+06</totfact>
</mgrwt>
</event>
<event>
 4    1  0.1433582E+000  0.4213622E+02  0.7818608E-02  0.1493055E+00
          2   -1    0    0  501    0  0.00000000000E+00  0.00000000000E+00  0.37028036124E+01  0.37028045252E+01  0.26000000000E-02 0.  1.
         -2   -1    0    0    0  501 -0.00000000000E+00 -0.00000000000E+00 -0.11987274703E+03  0.11987274706E+03  0.26000000000E-02 0. -1.
        -11    1    1    2    0    0  0.18994476049E+02  0.42586848246E+01 -0.34451417796E+02  0.39570528241E+02  0.51100000000E-03 0.  1.
         11    1    1    2    0    0 -0.18994476049E+02 -0.42586848246E+01 -0.81718525618E+02  0.84005023339E+02  0.51100000000E-03 0. -1.
<mgrwt>
<rscale>  0 0.42136222E+02</rscale>
<asrwt>0</asrwt>
<pdfrwt beam="1">  1        2 0.56966226E-03 0.42136222E+02</pdfrwt>
<pdfrwt beam="2">  1       -2 0.18441958E-01 0.42136222E+02</pdfrwt>
<totfact> 0.50945965E+05</totfact>
</mgrwt>
</event>
<event>
 4    1  0.1433582E+000  0.2700198E+02  0.7818608E-02  0.1633807E+00
         -2   -1    0    0    0  501 -0.00000000000E+00  0.00000000000E+00  0.52319062158E+02  0.52319062223E+02  0.26000000000E-02 0. -1.
          2   -1    0    0  501    0  0.00000000000E+00 -0.00000000000E+00 -0.34839436475E+01  0.34839446177E+01  0.26000000000E-02 0.  1.
        -11    1    1    2    0    0  0.13271630123E+02  0.79910081103E+00  0.29265094016E+02  0.32143746768E+02  0.51100000000E-03 0. -1.
         11    1    1    2    0    0 -0.13271630123E+02 -0.79910081103E+00  0.19570024494E+02  0.23659260073E+02  0.51100000000E-03 0.  1.
<mgrwt>
<rscale>  0 0.27001977E+02</rscale>
<asrwt>0</asrwt>
<pdfrwt beam="2">  1        2 0.53599146E-03 0.27001977E+02</pdfrwt>
<pdfrwt beam="1">  1       -2 0.80490858E-02 0.27001977E+02</pdfrwt>
<totfact> 0.17213702E+06</totfact>
</mgrwt>
</event>
<event>
 4    1  0.1433582E+000  0.4176710E+02  0.7818608E-02  0.1495596E+00
         -2   -1    0    0    0  501 -0.00000000000E+00  0.00000000000E+00  0.66720160186E+01  0.66720165251E+01  0.26000000000E-02 0. -1.
          2   -1    0    0  501    0  0.00000000000E+00 -0.00000000000E+00 -0.65365938128E+02  0.65365938180E+02  0.26000000000E-02 0.  1.
        -11    1    1    2    0    0 -0.16294799486E+02  0.55673022634E+01 -0.49725877213E+02  0.52622981763E+02  0.51100000000E-03 0.  1.
         11    1    1    2    0    0  0.16294799486E+02 -0.55673022634E+01 -0.89680448964E+01  0.19414972941E+02  0.51100000000E-03 0. -1.
<mgrwt>
<rscale>  0 0.41767097E+02</rscale>
<asrwt>0</asrwt>
<pdfrwt beam="2">  1        2 0.10056298E-01 0.41767097E+02</pdfrwt>
<pdfrwt beam="1">  1       -2 0.10264641E-02 0.41767097E+02</pdfrwt>
<totfact> 0.85256027E+05</totfact>
</mgrwt>
</event>
<event>
 4    1  0.1433582E+000  0.2474238E+02  0.7818608E-02  0.1664730E+00
          2   -1    0    0  501    0  0.00000000000E+00  0.00000000000E+00  0.12298435113E+02  0.12298435388E+02  0.26000000000E-02 0. -1.
         -2   -1    0    0    0  501 -0.00000000000E+00 -0.00000000000E+00 -0.12444371997E+02  0.12444372268E+02  0.26000000000E-02 0.  1.
        -11    1    1    2    0    0 -0.31450995656E+01 -0.99077902287E+01 -0.67805697064E+01  0.12410966292E+02  0.51100000000E-03 0.  1.
         11    1    1    2    0    0  0.31450995656E+01  0.99077902287E+01  0.66346328229E+01  0.12331841365E+02  0.51100000000E-03 0. -1.
<mgrwt>
<rscale>  0 0.24742377E+02</rscale>
<asrwt>0</asrwt>
<pdfrwt beam="1">  1        2 0.18920670E-02 0.24742377E+02</pdfrwt>
<pdfrwt beam="2">  1       -2 0.19145188E-02 0.24742377E+02</pdfrwt>
<totfact> 0.24441240E+06</totfact>
</mgrwt>
</event>
<event>
 4    1  0.1433582E+000  0.2178186E+02  0.7818608E-02  0.1712052E+00
          2   -1    0    0  501    0  0.00000000000E+00  0.00000000000E+00  0.38875908749E+01  0.38875917444E+01  0.26000000000E-02 0. -1.
         -2   -1    0    0    0  501 -0.00000000000E+00 -0.00000000000E+00 -0.30510499383E+02  0.30510499493E+02  0.26000000000E-02 0.  1.
        -11    1    1    2    0    0 -0.89726109587E+01 -0.47669228900E+01 -0.19504901398E+02  0.21992555106E+02  0.51100000000E-03 0.  1.
         11    1    1    2    0    0  0.89726109587E+01  0.47669228900E+01 -0.71180071093E+01  0.12405536132E+02  0.51100000000E-03 0. -1.
<mgrwt>
<rscale>  0 0.21781860E+02</rscale>
<asrwt>0</asrwt>
<pdfrwt beam="1">  1        2 0.59809100E-03 0.21781860E+02</pdfrwt>
<pdfrwt beam="2">  1       -2 0.46939229E-02 0.21781860E+02</pdfrwt>
<totfact> 0.29848447E+06</totfact>
</mgrwt>
</event>
<event>
 4    1  0.1433582E+000  0.5078338E+02  0.7818608E-02  0.1441161E+00
         -2   -1    0    0    0  501 -0.00000000000E+00  0.00000000000E+00  0.12806770951E+02  0.12806771214E+02  0.26000000000E-02 0. -1.
          2   -1    0    0  501    0  0.00000000000E+00 -0.00000000000E+00 -0.50343521844E+02  0.50343521912E+02  0.26000000000E-02 0.  1.
        -11    1    1    2    0    0  0.61522254340E+00 -0.25174883047E+02 -0.22814074807E+02  0.33979924143E+02  0.51100000000E-03 0.  1.
         11    1    1    2    0    0 -0.61522254340E+00  0.25174883047E+02 -0.14722676086E+02  0.29170368983E+02  0.51100000000E-03 0. -1.
<mgrwt>
<rscale>  0 0.50783382E+02</rscale>
<asrwt>0</asrwt>
<pdfrwt beam="2">  1        2 0.77451571E-02 0.50783382E+02</pdfrwt>
<pdfrwt beam="1">  1       -2 0.19702725E-02 0.50783382E+02</pdfrwt>
<totfact> 0.49351218E+05</totfact>
</mgrwt>
</event>
<event>
 4    1  0.1433582E+000  0.2479153E+02  0.7818608E-02  0.1664014E+00
          2   -1    0    0  501    0  0.00000000000E+00  0.00000000000E+00  0.35251920048E+01  0.35251929636E+01  0.26000000000E-02 0. -1.
         -2   -1    0    0    0  501 -0.00000000000E+00 -0.00000000000E+00 -0.43587684930E+02  0.43587685007E+02  0.26000000000E-02 0.  1.
        -11    1    1    2    0    0  0.31865842305E+00  0.10287094219E+02 -0.33160138668E+02  0.34720608396E+02  0.51100000000E-03 0.  1.
         11    1    1    2    0    0 -0.31865842305E+00 -0.10287094219E+02 -0.69023542569E+01  0.12392269575E+02  0.51100000000E-03 0. -1.
<mgrwt>
<rscale>  0 0.24791529E+02</rscale>
<asrwt>0</asrwt>
<pdfrwt beam="1">  1        2 0.54233734E-03 0.24791529E+02</pdfrwt>
<pdfrwt beam="2">  1       -2 0.67057974E-02 0.24791529E+02</pdfrwt>
<totfact> 0.21441323E+06</totfact>
</mgrwt>
</event>
<event>
 4    1  0.1433582E+000  0.2443643E+02  0.7818608E-02  0.1669231E+00
          2   -1    0    0  501    0  0.00000000000E+00  0.00000000000E+00  0.13122929665E+02  0.13122929923E+02  0.26000000000E-02 0. -1.
         -2   -1    0    0    0  501 -0.00000000000E+00 -0.00000000000E+00 -0.11375871365E+02  0.11375871662E+02  0.26000000000E-02 0.  1.
        -11    1    1    2    0    0 -0.17615687572E+01  0.11938713099E+02  0.27885805055E+01  0.12385966916E+02  0.51100000000E-03 0.  1.
         11    1    1    2    0    0  0.17615687572E+01 -0.11938713099E+02 -0.10415222051E+01  0.12112834669E+02  0.51100000000E-03 0. -1.
<mgrwt>
<rscale>  0 0.24436429E+02</rscale>
<asrwt>0</asrwt>
<pdfrwt beam="1">  1        2 0.20189123E-02 0.24436429E+02</pdfrwt>
<pdfrwt beam="2">  1       -2 0.17501341E-02 0.24436429E+02</pdfrwt>
<totfact> 0.25315387E+06</totfact>
</mgrwt>
</event>
<event>
 4    1  0.1433582E+000  0.2078314E+02  0.7818608E-02  0.1730188E+00
          2   -1    0    0  501    0  0.00000000000E+00  0.00000000000E+00  0.85305847364E+01  0.85305851326E+01  0.26000000000E-02 0.  1.
         -2   -1    0    0    0  501 -0.00000000000E+00 -0.00000000000E+00 -0.12658541743E+02  0.12658542010E+02  0.26000000000E-02 0. -1.
        -11    1    1    2    0    0  0.83102018775E+01 -0.62304535904E+01 -0.23971066257E+01  0.10659461882E+02  0.51100000000E-03 0.  1.
         11    1    1    2    0    0 -0.83102018775E+01  0.62304535904E+01 -0.17308503807E+01  0.10529665260E+02  0.51100000000E-03 0. -1.
<mgrwt>
<rscale>  0 0.20783144E+02</rscale>
<asrwt>0</asrwt>
<pdfrwt beam="1">  1        2 0.13123977E-02 0.20783144E+02</pdfrwt>
<pdfrwt beam="2">  1       -2 0.19474680E-02 0.20783144E+02</pdfrwt>
<totfact> 0.35700248E+06</totfact>
</mgrwt>
</event>
<event>
 4    1  0.1433582E+000  0.2332940E+02  0.7818608E-02  0.1686226E+00
          2   -1    0    0  501    0  0.00000000000E+00  0.00000000000E+00  0.88955810482E+02  0.88955810519E+02  0.26000000000E-02 0. -1.
         -2   -1    0    0    0  501 -0.00000000000E+00 -0.00000000000E+00 -0.15295813308E+01  0.15295835405E+01  0.26000000000E-02 0.  1.
        -11    1    1    2    0    0 -0.10040659935E+02  0.37391022319E+01  0.25825450555E+02  0.27959786015E+02  0.51100000000E-03 0.  1.
         11    1    1    2    0    0  0.10040659935E+02 -0.37391022319E+01  0.61600778596E+02  0.62525608045E+02  0.51100000000E-03 0. -1.
<mgrwt>
<rscale>  0 0.23329402E+02</rscale>
<asrwt>0</asrwt>
<pdfrwt beam="1">  1        2 0.13685515E-01 0.23329402E+02</pdfrwt>
<pdfrwt beam="2">  1       -2 0.23532028E-03 0.23329402E+02</pdfrwt>
<totfact> 0.36413505E+06</totfact>
</mgrwt>
</event>
<event>
 4    1  0.1433582E+000  0.2498947E+02  0.7818608E-02  0.1661153E+00
         -2   -1    0    0    0  501 -0.00000000000E+00  0.00000000000E+00  0.16067324822E+01  0.16067345859E+01  0.26000000000E-02 0.  1.
          2   -1    0    0  501    0  0.00000000000E+00 -0.00000000000E+00 -0.97165088163E+02  0.97165088197E+02  0.26000000000E-02 0. -1.
        -11    1    1    2    0    0 -0.12322354412E+02 -0.11198712199E+01 -0.40905990089E+02  0.42736337644E+02  0.51100000000E-03 0. -1.
         11    1    1    2    0    0  0.12322354412E+02  0.11198712199E+01 -0.54652365591E+02  0.56035485139E+02  0.51100000000E-03 0.  1.
<mgrwt>
<rscale>  0 0.24989470E+02</rscale>
<asrwt>0</asrwt>
<pdfrwt beam="2">  1        2 0.14948471E-01 0.24989470E+02</pdfrwt>
<pdfrwt beam="1">  1       -2 0.24718985E-03 0.24989470E+02</pdfrwt>
<totfact> 0.31750436E+06</totfact>
</mgrwt>
</event>
<event>
 4    1  0.1433582E+000  0.3010487E+02  0.7818608E-02  0.1596932E+00
          2   -1    0    0  501    0  0.00000000000E+00  0.00000000000E+00  0.16120594533E+02  0.16120594743E+02  0.26000000000E-02 0. -1.
         -2   -1    0    0    0  501 -0.00000000000E+00 -0.00000000000E+00 -0.14055051843E+02  0.14055052083E+02  0.26000000000E-02 0.  1.
        -11    1    1    2    0    0  0.13210587983E+02  0.72071062613E+01  0.69466110405E+00  0.15064679547E+02  0.51100000000E-03 0.  1.
         11    1    1    2    0    0 -0.13210587983E+02 -0.72071062613E+01  0.13708815862E+01  0.15110967279E+02  0.51100000000E-03 0. -1.
<mgrwt>
<rscale>  0 0.30104870E+02</rscale>
<asrwt>0</asrwt>
<pdfrwt beam="1">  1        2 0.24800915E-02 0.30104870E+02</pdfrwt>
<pdfrwt beam="2">  1       -2 0.21623157E-02 0.30104870E+02</pdfrwt>
<totfact> 0.15638612E+06</totfact>
</mgrwt>
</event>
<event>
 4    1  0.1433582E+000  0.6364239E+02  0.7818608E-02  0.1383152E+00
         -2   -1    0    0    0  501 -0.00000000000E+00  0.00000000000E+00  0.14024548151E+02  0.14024548392E+02  0.26000000000E-02 0. -1.
          2   -1    0    0  501    0  0.00000000000E+00 -0.00000000000E+00 -0.72201146298E+02  0.72201146345E+02  0.26000000000E-02 0.  1.
        -11    1    1    2    0    0 -0.78766070261E+01  0.29985749593E+02 -0.38801932220E+02  0.49666649386E+02  0.51100000000E-03 0.  1.
         11    1    1    2    0    0  0.78766070261E+01 -0.29985749593E+02 -0.19374665927E+02  0.36559045351E+02  0.51100000000E-03 0. -1.
<mgrwt>
<rscale>  0 0.63642390E+02</rscale>
<asrwt>0</asrwt>
<pdfrwt beam="2">  1        2 0.11107868E-01 0.63642390E+02</pdfrwt>
<pdfrwt beam="1">  1       -2 0.21576229E-02 0.63642390E+02</pdfrwt>
<totfact> 0.29596696E+05</totfact>
</mgrwt>
</event>
<event>
 4    1  0.1433582E+000  0.3814594E+02  0.7818608E-02  0.1522316E+00
         -2   -1    0    0    0  501 -0.00000000000E+00  0.00000000000E+00  0.11032129439E+03  0.11032129442E+03  0.26000000000E-02 0. -1.
          2   -1    0    0  501    0  0.00000000000E+00 -0.00000000000E+00 -0.32974421944E+01  0.32974432194E+01  0.26000000000E-02 0.  1.
        -11    1    1    2    0    0 -0.17737538225E+02 -0.53998256955E+01  0.66832231113E+02  0.69356510117E+02  0.51100000000E-03 0.  1.
         11    1    1    2    0    0  0.17737538225E+02  0.53998256955E+01  0.40191621086E+02  0.44262227527E+02  0.51100000000E-03 0. -1.
<mgrwt>
<rscale>  0 0.38145938E+02</rscale>
<asrwt>0</asrwt>
<pdfrwt beam="2">  1        2 0.50729882E-03 0.38145938E+02</pdfrwt>
<pdfrwt beam="1">  1       -2 0.16972509E-01 0.38145938E+02</pdfrwt>
<totfact> 0.66135822E+05</totfact>
</mgrwt>
</event>
<event>
 4    1  0.1433582E+000  0.2758011E+02  0.7818608E-02  0.1626489E+00
         -2   -1    0    0    0  501 -0.00000000000E+00  0.00000000000E+00  0.40220014480E+02  0.40220014564E+02  0.26000000000E-02 0. -1.
          2   -1    0    0  501    0  0.00000000000E+00 -0.00000000000E+00 -0.47281330861E+01  0.47281338010E+01  0.26000000000E-02 0.  1.
        -11    1    1    2    0    0 -0.64241614224E+01 -0.95129717745E+01  0.30200230637E+02  0.32308209680E+02  0.51100000000E-03 0. -1.
         11    1    1    2    0    0  0.64241614224E+01  0.95129717745E+01  0.52916507575E+01  0.12639938685E+02  0.51100000000E-03 0.  1.
<mgrwt>
<rscale>  0 0.27580109E+02</rscale>
<asrwt>0</asrwt>
<pdfrwt beam="2">  1        2 0.72740513E-03 0.27580109E+02</pdfrwt>
<pdfrwt beam="1">  1       -2 0.61876948E-02 0.27580109E+02</pdfrwt>
<totfact> 0.17015314E+06</totfact>
</mgrwt>
</event>
<event>
 4    1  0.1433582E+000  0.8206342E+02  0.7818608E-02  0.1323296E+00
          2   -1    0    0  501    0  0.00000000000E+00  0.00000000000E+00  0.11824593969E+03  0.11824593972E+03  0.26000000000E-02 0. -1.
         -2   -1    0    0    0  501 -0.00000000000E+00 -0.00000000000E+00 -0.14238130831E+02  0.14238131068E+02  0.26000000000E-02 0.  1.
        -11    1    1    2    0    0  0.22072094959E+02  0.32337878261E+02  0.32186366879E+02  0.50684099671E+02  0.51100000000E-03 0. -1.
         11    1    1    2    0    0 -0.22072094959E+02 -0.32337878261E+02  0.71821441981E+02  0.81799971117E+02  0.51100000000E-03 0.  1.
<mgrwt>
<rscale>  0 0.82063419E+02</rscale>
<asrwt>0</asrwt>
<pdfrwt beam="1">  1        2 0.18191683E-01 0.82063419E+02</pdfrwt>
<pdfrwt beam="2">  1       -2 0.21904817E-02 0.82063419E+02</pdfrwt>
<totfact> 0.17201839E+05</totfact>
</mgrwt>
</event>
<event>
 4    1  0.1433582E+000  0.2315945E+02  0.7818608E-02  0.1688938E+00
          2   -1    0    0  501    0  0.00000000000E+00  0.00000000000E+00  0.20882097383E+01  0.20882113569E+01  0.26000000000E-02 0. -1.
         -2   -1    0    0    0  501 -0.00000000000E+00 -0.00000000000E+00 -0.64212904046E+02  0.64212904099E+02  0.26000000000E-02 0.  1.
        -11    1    1    2    0    0 -0.33514956944E+01  0.10304474194E+02 -0.19371928121E+02  0.22196538270E+02  0.51100000000E-03 0. -1.
         11    1    1    2    0    0  0.33514956944E+01 -0.10304474194E+02 -0.42752766187E+02  0.44104577185E+02  0.51100000000E-03 0.  1.
<mgrwt>
<rscale>  0 0.23159453E+02</rscale>
<asrwt>0</asrwt>
<pdfrwt beam="1">  1        2 0.32126321E-03 0.23159453E+02</pdfrwt>
<pdfrwt beam="2">  1       -2 0.98789070E-02 0.23159453E+02</pdfrwt>
<totfact> 0.23557726E+06</totfact>
</mgrwt>
</event>
<event>
 4    1  0.1433582E+000  0.2811573E+02  0.7818608E-02  0.1619902E+00
          2   -1    0    0  501    0  0.00000000000E+00  0.00000000000E+00  0.54765780972E+02  0.54765781033E+02  0.26000000000E-02 0. -1.
         -2   -1    0    0    0  501 -0.00000000000E+00 -0.00000000000E+00 -0.36085234692E+01  0.36085244059E+01  0.26000000000E-02 0.  1.
        -11    1    1    2    0    0 -0.54937087862E+01 -0.10688078576E+02  0.40723299559E+02  0.42459427541E+02  0.51100000000E-03 0.  1.
         11    1    1    2    0    0  0.54937087862E+01  0.10688078576E+02  0.10433957943E+02  0.15914877898E+02  0.51100000000E-03 0. -1.
<mgrwt>
<rscale>  0 0.28115735E+02</rscale>
<asrwt>0</asrwt>
<pdfrwt beam="1">  1        2 0.84255048E-02 0.28115735E+02</pdfrwt>
<pdfrwt beam="2">  1       -2 0.55515754E-03 0.28115735E+02</pdfrwt>
<totfact> 0.21527052E+06</totfact>
</mgrwt>
</event>
<event>
 4    1  0.1433582E+000  0.2598056E+02  0.7818608E-02  0.1647304E+00
         -2   -1    0    0    0  501 -0.00000000000E+00  0.00000000000E+00  0.63563829101E+02  0.63563829155E+02  0.26000000000E-02 0.  1.
          2   -1    0    0  501    0  0.00000000000E+00 -0.00000000000E+00 -0.26547695788E+01  0.26547708520E+01  0.26000000000E-02 0. -1.
        -11    1    1    2    0    0  0.76411428818E+00  0.10165831063E+02  0.50974839361E+02  0.51984249922E+02  0.51100000000E-03 0.  1.
         11    1    1    2    0    0 -0.76411428818E+00 -0.10165831063E+02  0.99342201616E+01  0.14234350084E+02  0.51100000000E-03 0. -1.
<mgrwt>
<rscale>  0 0.25980559E+02</rscale>
<asrwt>0</asrwt>
<pdfrwt beam="2">  1        2 0.40842622E-03 0.25980559E+02</pdfrwt>
<pdfrwt beam="1">  1       -2 0.97790501E-02 0.25980559E+02</pdfrwt>
<totfact> 0.18211701E+06</totfact>
</mgrwt>
</event>
<event>
 4    1  0.1433582E+000  0.3623165E+02  0.7818608E-02  0.1537927E+00
         -2   -1    0    0    0  501 -0.00000000000E+00  0.00000000000E+00  0.25594735996E+02  0.25594736128E+02  0.26000000000E-02 0. -1.
          2   -1    0    0  501    0  0.00000000000E+00 -0.00000000000E+00 -0.12822292400E+02  0.12822292664E+02  0.26000000000E-02 0.  1.
        -11    1    1    2    0    0 -0.88805445136E+01  0.13059503007E+02 -0.30242611638E+01  0.16079827285E+02  0.51100000000E-03 0.  1.
         11    1    1    2    0    0  0.88805445136E+01 -0.13059503007E+02  0.15796704759E+02  0.22337201507E+02  0.51100000000E-03 0. -1.
<mgrwt>
<rscale>  0 0.36231654E+02</rscale>
<asrwt>0</asrwt>
<pdfrwt beam="2">  1        2 0.19726604E-02 0.36231654E+02</pdfrwt>
<pdfrwt beam="1">  1       -2 0.39376518E-02 0.36231654E+02</pdfrwt>
<totfact> 0.96010080E+05</totfact>
</mgrwt>
</event>
<event>
 4    1  0.1433582E+000  0.2723529E+02  0.7818608E-02  0.1630827E+00
          2   -1    0    0  501    0  0.00000000000E+00  0.00000000000E+00  0.12156291741E+03  0.12156291744E+03  0.26000000000E-02 0.  1.
         -2   -1    0    0    0  501 -0.00000000000E+00 -0.00000000000E+00 -0.15254666544E+01  0.15254688702E+01  0.26000000000E-02 0. -1.
        -11    1    1    2    0    0 -0.19499587704E+01  0.13252609826E+02  0.71094875039E+02  0.72345803358E+02  0.51100000000E-03 0. -1.
         11    1    1    2    0    0  0.19499587704E+01 -0.13252609826E+02  0.48942575716E+02  0.50742582950E+02  0.51100000000E-03 0.  1.
<mgrwt>
<rscale>  0 0.27235294E+02</rscale>
<asrwt>0</asrwt>
<pdfrwt beam="1">  1        2 0.18701987E-01 0.27235294E+02</pdfrwt>
<pdfrwt beam="2">  1       -2 0.23468736E-03 0.27235294E+02</pdfrwt>
<totfact> 0.27506443E+06</totfact>
</mgrwt>
</event>
<event>
 4    1  0.1433582E+000  0.4975132E+02  0.7818608E-02  0.1446687E+00
         -2   -1    0    0    0  501 -0.00000000000E+00  0.00000000000E+00  0.30331845481E+01  0.30331856624E+01  0.26000000000E-02 0. -1.
          2   -1    0    0  501    0  0.00000000000E+00 -0.00000000000E+00 -0.20400947737E+03  0.20400947738E+03  0.26000000000E-02 0.  1.
        -11    1    1    2    0    0  0.12293711745E+02 -0.19837628181E+02 -0.64657296171E+02  0.68740328693E+02  0.51100000000E-03 0. -1.
         11    1    1    2    0    0 -0.12293711745E+02  0.19837628181E+02 -0.13631899665E+03  0.13830233435E+03  0.51100000000E-03 0.  1.
<mgrwt>
<rscale>  0 0.49751322E+02</rscale>
<asrwt>0</asrwt>
<pdfrwt beam="2">  1        2 0.31386063E-01 0.49751322E+02</pdfrwt>
<pdfrwt beam="1">  1       -2 0.46664402E-03 0.49751322E+02</pdfrwt>
<totfact> 0.75035526E+05</totfact>
</mgrwt>
</event>
<event>
 4    1  0.1433582E+000  0.4545255E+02  0.7818608E-02  0.1471536E+00
         -2   -1    0    0    0  501 -0.00000000000E+00  0.00000000000E+00  0.46410962061E+02  0.46410962134E+02  0.26000000000E-02 0.  1.
          2   -1    0    0  501    0  0.00000000000E+00 -0.00000000000E+00 -0.11128483800E+02  0.11128484104E+02  0.26000000000E-02 0. -1.
        -11    1    1    2    0    0 -0.91741274302E+01  0.16263247663E+02  0.12415063782E+01  0.18713609406E+02  0.51100000000E-03 0. -1.
         11    1    1    2    0    0  0.91741274302E+01 -0.16263247663E+02  0.34040971883E+02  0.38825836831E+02  0.51100000000E-03 0.  1.
<mgrwt>
<rscale>  0 0.45452553E+02</rscale>
<asrwt>0</asrwt>
<pdfrwt beam="2">  1        2 0.17120745E-02 0.45452553E+02</pdfrwt>
<pdfrwt beam="1">  1       -2 0.71401479E-02 0.45452553E+02</pdfrwt>
<totfact> 0.51859669E+05</totfact>
</mgrwt>
</event>
<event>
 4    1  0.1433582E+000  0.2129169E+02  0.7818608E-02  0.1720798E+00
          2   -1    0    0  501    0  0.00000000000E+00  0.00000000000E+00  0.75337881302E+02  0.75337881347E+02  0.26000000000E-02 0.  1.
         -2   -1    0    0    0  501 -0.00000000000E+00 -0.00000000000E+00 -0.15043414130E+01  0.15043436598E+01  0.26000000000E-02 0. -1.
        -11    1    1    2    0    0 -0.94144196770E+01 -0.42167141116E+01  0.46412008328E+02  0.47544573750E+02  0.51100000000E-03 0. -1.
         11    1    1    2    0    0  0.94144196770E+01  0.42167141116E+01  0.27421531561E+02  0.29297651257E+02  0.51100000000E-03 0.  1.
<mgrwt>
<rscale>  0 0.21291687E+02</rscale>
<asrwt>0</asrwt>
<pdfrwt beam="1">  1        2 0.11590443E-01 0.21291687E+02</pdfrwt>
<pdfrwt beam="2">  1       -2 0.23143732E-03 0.21291687E+02</pdfrwt>
<totfact> 0.43237245E+06</totfact>
</mgrwt>
</event>
<event>
 4    1  0.1433582E+000  0.5326228E+02  0.7818608E-02  0.1428500E+00
          2   -1    0    0  501    0  0.00000000000E+00  0.00000000000E+00  0.21718783193E+02  0.21718783349E+02  0.26000000000E-02 0.  1.
         -2   -1    0    0    0  501 -0.00000000000E+00 -0.00000000000E+00 -0.32654576529E+02  0.32654576632E+02  0.26000000000E-02 0. -1.
        -11    1    1    2    0    0  0.59674223830E+01 -0.21508018658E+02 -0.20297197477E+02  0.30169209836E+02  0.51100000000E-03 0. -1.
         11    1    1    2    0    0 -0.59674223830E+01  0.21508018658E+02  0.93614041412E+01  0.24204150145E+02  0.51100000000E-03 0.  1.
<mgrwt>
<rscale>  0 0.53262282E+02</rscale>
<asrwt>0</asrwt>
<pdfrwt beam="1">  1        2 0.33413513E-02 0.53262282E+02</pdfrwt>
<pdfrwt beam="2">  1       -2 0.50237810E-02 0.53262282E+02</pdfrwt>
<totfact> 0.37673769E+05</totfact>
</mgrwt>
</event>
<event>
 4    1  0.1433582E+000  0.3042051E+02  0.7818608E-02  0.1593486E+00
          2   -1    0    0  501    0  0.00000000000E+00  0.00000000000E+00  0.15206521425E+02  0.15206521648E+02  0.26000000000E-02 0. -1.
         -2   -1    0    0    0  501 -0.00000000000E+00 -0.00000000000E+00 -0.15213990109E+02  0.15213990332E+02  0.26000000000E-02 0.  1.
        -11    1    1    2    0    0  0.10649997031E+02  0.87506559071E+01  0.64270867550E+01  0.15208677128E+02  0.51100000000E-03 0. -1.
         11    1    1    2    0    0 -0.10649997031E+02 -0.87506559071E+01 -0.64345554392E+01  0.15211834851E+02  0.51100000000E-03 0.  1.
<mgrwt>
<rscale>  0 0.30420511E+02</rscale>
<asrwt>0</asrwt>
<pdfrwt beam="1">  1        2 0.23394649E-02 0.30420511E+02</pdfrwt>
<pdfrwt beam="2">  1       -2 0.23406139E-02 0.30420511E+02</pdfrwt>
<totfact> 0.15152266E+06</totfact>
</mgrwt>
</event>
<event>
 4    1  0.1433582E+000  0.3385174E+02  0.7818608E-02  0.1559040E+00
         -2   -1    0    0    0  501 -0.00000000000E+00  0.00000000000E+00  0.33169056189E+01  0.33169066380E+01  0.26000000000E-02 0. -1.
          2   -1    0    0  501    0  0.00000000000E+00 -0.00000000000E+00 -0.86371159808E+02  0.86371159847E+02  0.26000000000E-02 0.  1.
        -11    1    1    2    0    0 -0.70762039668E+01  0.12414490791E+02 -0.65561599102E+02  0.67100786294E+02  0.51100000000E-03 0.  1.
         11    1    1    2    0    0  0.70762039668E+01 -0.12414490791E+02 -0.17492655087E+02  0.22587280191E+02  0.51100000000E-03 0. -1.
<mgrwt>
<rscale>  0 0.33851737E+02</rscale>
<asrwt>0</asrwt>
<pdfrwt beam="2">  1        2 0.13287869E-01 0.33851737E+02</pdfrwt>
<pdfrwt beam="1">  1       -2 0.51029332E-03 0.33851737E+02</pdfrwt>
<totfact> 0.15140629E+06</totfact>
</mgrwt>
</event>
<event>
 4    1  0.1433582E+000  0.2216047E+02  0.7818608E-02  0.1705491E+00
         -2   -1    0    0    0  501 -0.00000000000E+00  0.00000000000E+00  0.13219591846E+02  0.13219592102E+02  0.26000000000E-02 0. -1.
          2   -1    0    0  501    0  0.00000000000E+00 -0.00000000000E+00 -0.92870974916E+01  0.92870978555E+01  0.26000000000E-02 0.  1.
        -11    1    1    2    0    0 -0.64665509934E+01  0.83858890436E+01  0.52778995263E+01  0.11831975341E+02  0.51100000000E-03 0. -1.
         11    1    1    2    0    0  0.64665509934E+01 -0.83858890436E+01 -0.13454051717E+01  0.10674714616E+02  0.51100000000E-03 0.  1.
<mgrwt>
<rscale>  0 0.22160473E+02</rscale>
<asrwt>0</asrwt>
<pdfrwt beam="2">  1        2 0.14287843E-02 0.22160473E+02</pdfrwt>
<pdfrwt beam="1">  1       -2 0.20337834E-02 0.22160473E+02</pdfrwt>
<totfact> 0.30950239E+06</totfact>
</mgrwt>
</event>
<event>
 4    1  0.1433582E+000  0.5626583E+02  0.7818608E-02  0.1414206E+00
         -2   -1    0    0    0  501 -0.00000000000E+00  0.00000000000E+00  0.10421440514E+02  0.10421440839E+02  0.26000000000E-02 0. -1.
          2   -1    0    0  501    0  0.00000000000E+00 -0.00000000000E+00 -0.75945443662E+02  0.75945443707E+02  0.26000000000E-02 0.  1.
        -11    1    1    2    0    0 -0.18241569302E+02  0.11728113670E+02 -0.60270159416E+02  0.64053068756E+02  0.51100000000E-03 0.  1.
         11    1    1    2    0    0  0.18241569302E+02 -0.11728113670E+02 -0.52538437318E+01  0.22313815789E+02  0.51100000000E-03 0. -1.
<mgrwt>
<rscale>  0 0.56265831E+02</rscale>
<asrwt>0</asrwt>
<pdfrwt beam="2">  1        2 0.11683914E-01 0.56265831E+02</pdfrwt>
<pdfrwt beam="1">  1       -2 0.16032986E-02 0.56265831E+02</pdfrwt>
<totfact> 0.41333378E+05</totfact>
</mgrwt>
</event>
<event>
 4    1  0.1433582E+000  0.2053255E+02  0.7818608E-02  0.1734941E+00
          2   -1    0    0  501    0  0.00000000000E+00  0.00000000000E+00  0.11819854105E+02  0.11819854391E+02  0.26000000000E-02 0. -1.
         -2   -1    0    0    0  501 -0.00000000000E+00 -0.00000000000E+00 -0.89168906702E+01  0.89168910493E+01  0.26000000000E-02 0.  1.
        -11    1    1    2    0    0 -0.51266480368E+01 -0.87269185460E+01 -0.28454504713E+00  0.10125344120E+02  0.51100000000E-03 0.  1.
         11    1    1    2    0    0  0.51266480368E+01  0.87269185460E+01  0.31875084821E+01  0.10611401321E+02  0.51100000000E-03 0. -1.
<mgrwt>
<rscale>  0 0.20532545E+02</rscale>
<asrwt>0</asrwt>
<pdfrwt beam="1">  1        2 0.18184391E-02 0.20532545E+02</pdfrwt>
<pdfrwt beam="2">  1       -2 0.13718294E-02 0.20532545E+02</pdfrwt>
<totfact> 0.37626161E+06</totfact>
</mgrwt>
</event>
<event>
 4    1  0.1433582E+000  0.2669910E+02  0.7818608E-02  0.1637732E+00
          2   -1    0    0  501    0  0.00000000000E+00  0.00000000000E+00  0.10294995712E+03  0.10294995716E+03  0.26000000000E-02 0. -1.
         -2   -1    0    0    0  501 -0.00000000000E+00 -0.00000000000E+00 -0.17310386255E+01  0.17310405781E+01  0.26000000000E-02 0.  1.
        -11    1    1    2    0    0 -0.78439277197E+01 -0.92618725939E+01  0.72404481779E+02  0.73414701988E+02  0.51100000000E-03 0. -1.
         11    1    1    2    0    0  0.78439277197E+01  0.92618725939E+01  0.28814436718E+02  0.31266295746E+02  0.51100000000E-03 0.  1.
<mgrwt>
<rscale>  0 0.26699098E+02</rscale>
<asrwt>0</asrwt>
<pdfrwt beam="1">  1        2 0.15838455E-01 0.26699098E+02</pdfrwt>
<pdfrwt beam="2">  1       -2 0.26631379E-03 0.26699098E+02</pdfrwt>
<totfact> 0.27631507E+06</totfact>
</mgrwt>
</event>
<event>
 4    1  0.1433582E+000  0.2364937E+02  0.7818608E-02  0.1681195E+00
         -2   -1    0    0    0  501 -0.00000000000E+00  0.00000000000E+00  0.15413152176E+01  0.15413174105E+01  0.26000000000E-02 0. -1.
          2   -1    0    0  501    0  0.00000000000E+00 -0.00000000000E+00 -0.90716702411E+02  0.90716702448E+02  0.26000000000E-02 0.  1.
        -11    1    1    2    0    0  0.93615646943E+01 -0.61919198627E+01 -0.59102833763E+02  0.60159153287E+02  0.51100000000E-03 0. -1.
         11    1    1    2    0    0 -0.93615646943E+01  0.61919198627E+01 -0.30072553430E+02  0.32098866571E+02  0.51100000000E-03 0.  1.
<mgrwt>
<rscale>  0 0.23649367E+02</rscale>
<asrwt>0</asrwt>
<pdfrwt beam="2">  1        2 0.13956412E-01 0.23649367E+02</pdfrwt>
<pdfrwt beam="1">  1       -2 0.23712566E-03 0.23649367E+02</pdfrwt>
<totfact> 0.35456056E+06</totfact>
</mgrwt>
</event>
<event>
 4    1  0.1433582E+000  0.2694302E+02  0.7818608E-02  0.1634566E+00
         -2   -1    0    0    0  501 -0.00000000000E+00  0.00000000000E+00  0.46474485177E+02  0.46474485250E+02  0.26000000000E-02 0.  1.
          2   -1    0    0  501    0  0.00000000000E+00 -0.00000000000E+00 -0.39049729033E+01  0.39049737688E+01  0.26000000000E-02 0. -1.
        -11    1    1    2    0    0  0.10996135980E+02 -0.77790309477E+00  0.68055959119E+01  0.12955164055E+02  0.51100000000E-03 0.  1.
         11    1    1    2    0    0 -0.10996135980E+02  0.77790309477E+00  0.35763916362E+02  0.37424294964E+02  0.51100000000E-03 0. -1.
<mgrwt>
<rscale>  0 0.26943024E+02</rscale>
<asrwt>0</asrwt>
<pdfrwt beam="2">  1        2 0.60076521E-03 0.26943024E+02</pdfrwt>
<pdfrwt beam="1">  1       -2 0.71499200E-02 0.26943024E+02</pdfrwt>
<totfact> 0.17600561E+06</totfact>
</mgrwt>
</event>
<event>
 4    1  0.1433582E+000  0.5562144E+02  0.7818608E-02  0.1417183E+00
          2   -1    0    0  501    0  0.00000000000E+00  0.00000000000E+00  0.13472552277E+02  0.13472552528E+02  0.26000000000E-02 0. -1.
         -2   -1    0    0    0  501 -0.00000000000E+00 -0.00000000000E+00 -0.57408285455E+02  0.57408285514E+02  0.26000000000E-02 0.  1.
        -11    1    1    2    0    0  0.22105093764E+01  0.27593314560E+02 -0.18558246029E+02  0.33326953897E+02  0.51100000000E-03 0. -1.
         11    1    1    2    0    0 -0.22105093764E+01 -0.27593314560E+02 -0.25377487149E+02  0.37553884145E+02  0.51100000000E-03 0.  1.
<mgrwt>
<rscale>  0 0.55621440E+02</rscale>
<asrwt>0</asrwt>
<pdfrwt beam="1">  1        2 0.20727004E-02 0.55621440E+02</pdfrwt>
<pdfrwt beam="2">  1       -2 0.88320438E-02 0.55621440E+02</pdfrwt>
<totfact> 0.30744671E+05</totfact>
</mgrwt>
</event>
<event>
 4    1  0.1433582E+000  0.2883772E+02  0.7818608E-02  0.1611303E+00
         -2   -1    0    0    0  501 -0.00000000000E+00  0.00000000000E+00  0.32803433974E+02  0.32803434077E+02  0.26000000000E-02 0. -1.
          2   -1    0    0  501    0  0.00000000000E+00 -0.00000000000E+00 -0.63378559913E+01  0.63378565246E+01  0.26000000000E-02 0.  1.
        -11    1    1    2    0    0  0.51945950252E+01 -0.12787192577E+02  0.75698678163E+01  0.15741633031E+02  0.51100000000E-03 0.  1.
         11    1    1    2    0    0 -0.51945950252E+01  0.12787192577E+02  0.18895710166E+02  0.23399657571E+02  0.51100000000E-03 0. -1.
<mgrwt>
<rscale>  0 0.28837715E+02</rscale>
<asrwt>0</asrwt>
<pdfrwt beam="2">  1        2 0.97505481E-03 0.28837715E+02</pdfrwt>
<pdfrwt beam="1">  1       -2 0.50466822E-02 0.28837715E+02</pdfrwt>
<totfact> 0.15759989E+06</totfact>
</mgrwt>
</event>
<event>
 4    1  0.1433582E+000  0.2236340E+02  0.7818608E-02  0.1702042E+00
          2   -1    0    0  501    0  0.00000000000E+00  0.00000000000E+00  0.77785181490E+01  0.77785185835E+01  0.26000000000E-02 0.  1.
         -2   -1    0    0    0  501 -0.00000000000E+00 -0.00000000000E+00 -0.16073802586E+02  0.16073802796E+02  0.26000000000E-02 0. -1.
        -11    1    1    2    0    0  0.10949079375E+02 -0.14231134667E+01 -0.60324353475E+01  0.12581648047E+02  0.51100000000E-03 0.  1.
         11    1    1    2    0    0 -0.10949079375E+02  0.14231134667E+01 -0.22628490891E+01  0.11270673332E+02  0.51100000000E-03 0. -1.
<mgrwt>
<rscale>  0 0.22363396E+02</rscale>
<asrwt>0</asrwt>
<pdfrwt beam="1">  1        2 0.11966952E-02 0.22363396E+02</pdfrwt>
<pdfrwt beam="2">  1       -2 0.24728927E-02 0.22363396E+02</pdfrwt>
<totfact> 0.29863151E+06</totfact>
</mgrwt>
</event>
<event>
 4    1  0.1433582E+000  0.3921836E+02  0.7818608E-02  0.1514044E+00
         -2   -1    0    0    0  501 -0.00000000000E+00  0.00000000000E+00  0.13358981252E+02  0.13358981505E+02  0.26000000000E-02 0.  1.
          2   -1    0    0  501    0  0.00000000000E+00 -0.00000000000E+00 -0.28783625814E+02  0.28783625932E+02  0.26000000000E-02 0. -1.
        -11    1    1    2    0    0 -0.79678049006E+01  0.17379006407E+02 -0.12396745959E+02  0.22785852831E+02  0.51100000000E-03 0. -1.
         11    1    1    2    0    0  0.79678049006E+01 -0.17379006407E+02 -0.30278986038E+01  0.19356754605E+02  0.51100000000E-03 0.  1.
<mgrwt>
<rscale>  0 0.39218359E+02</rscale>
<asrwt>0</asrwt>
<pdfrwt beam="2">  1        2 0.44282501E-02 0.39218359E+02</pdfrwt>
<pdfrwt beam="1">  1       -2 0.20552279E-02 0.39218359E+02</pdfrwt>
<totfact> 0.86996579E+05</totfact>
</mgrwt>
</event>
<event>
 4    1  0.1433582E+000  0.6097180E+02  0.7818608E-02  0.1393798E+00
          2   -1    0    0  501    0  0.00000000000E+00  0.00000000000E+00  0.11591839047E+02  0.11591839338E+02  0.26000000000E-02 0. -1.
         -2   -1    0    0    0  501 -0.00000000000E+00 -0.00000000000E+00 -0.80176245648E+02  0.80176245691E+02  0.26000000000E-02 0.  1.
        -11    1    1    2    0    0 -0.25725428215E+02 -0.84192235668E+01 -0.13182849391E+02  0.30107615327E+02  0.51100000000E-03 0. -1.
         11    1    1    2    0    0  0.25725428215E+02  0.84192235668E+01 -0.55401557210E+02  0.61660469702E+02  0.51100000000E-03 0.  1.
<mgrwt>
<rscale>  0 0.60971802E+02</rscale>
<asrwt>0</asrwt>
<pdfrwt beam="1">  1        2 0.17833599E-02 0.60971802E+02</pdfrwt>
<pdfrwt beam="2">  1       -2 0.12334807E-01 0.60971802E+02</pdfrwt>
<totfact> 0.22900777E+05</totfact>
</mgrwt>
</event>
<event>
 4    1  0.1433582E+000  0.2900261E+02  0.7818608E-02  0.1609382E+00
         -2   -1    0    0    0  501 -0.00000000000E+00  0.00000000000E+00  0.10513355639E+02  0.10513355961E+02  0.26000000000E-02 0.  1.
          2   -1    0    0  501    0  0.00000000000E+00 -0.00000000000E+00 -0.20001975258E+02  0.20001975427E+02  0.26000000000E-02 0. -1.
        -11    1    1    2    0    0  0.13860637604E+02  0.82870611997E+00 -0.91437721213E+01  0.16625660813E+02  0.51100000000E-03 0. -1.
         11    1    1    2    0    0 -0.13860637604E+02 -0.82870611997E+00 -0.34484749728E+00  0.13889670575E+02  0.51100000000E-03 0.  1.
<mgrwt>
<rscale>  0 0.29002613E+02</rscale>
<asrwt>0</asrwt>
<pdfrwt beam="2">  1        2 0.30772270E-02 0.29002613E+02</pdfrwt>
<pdfrwt beam="1">  1       -2 0.16174394E-02 0.29002613E+02</pdfrwt>
<totfact> 0.17509152E+06</totfact>
</mgrwt>
</event>
<event>
 4    1  0.1433582E+000  0.2882128E+02  0.7818608E-02  0.1611496E+00
         -2   -1    0    0    0  501 -0.00000000000E+00  0.00000000000E+00  0.44705084012E+02  0.44705084087E+02  0.26000000000E-02 0.  1.
          2   -1    0    0  501    0  0.00000000000E+00 -0.00000000000E+00 -0.46452543735E+01  0.46452551011E+01  0.26000000000E-02 0. -1.
        -11    1    1    2    0    0 -0.86778995770E+01  0.75499422833E+01  0.51656203814E+01  0.12609171414E+02  0.51100000000E-03 0. -1.
         11    1    1    2    0    0  0.86778995770E+01 -0.75499422833E+01  0.34894209257E+02  0.36741167775E+02  0.51100000000E-03 0.  1.
<mgrwt>
<rscale>  0 0.28821277E+02</rscale>
<asrwt>0</asrwt>
<pdfrwt beam="2">  1        2 0.71465457E-03 0.28821277E+02</pdfrwt>
<pdfrwt beam="1">  1       -2 0.68777054E-02 0.28821277E+02</pdfrwt>
<totfact> 0.15170403E+06</totfact>
</mgrwt>
</event>
<event>
 4    1  0.1433582E+000  0.6657265E+02  0.7818608E-02  0.1372152E+00
         -2   -1    0    0    0  501 -0.00000000000E+00  0.00000000000E+00  0.10519472898E+03  0.10519472902E+03  0.26000000000E-02 0.  1.
          2   -1    0    0  501    0  0.00000000000E+00 -0.00000000000E+00 -0.10532651897E+02  0.10532652218E+02  0.26000000000E-02 0. -1.
        -11    1    1    2    0    0  0.19485397660E+02 -0.13141007687E+02  0.63553420766E+01  0.24346605064E+02  0.51100000000E-03 0. -1.
         11    1    1    2    0    0 -0.19485397660E+02  0.13141007687E+02  0.88306735011E+02  0.91380776171E+02  0.51100000000E-03 0.  1.
<mgrwt>
<rscale>  0 0.66572652E+02</rscale>
<asrwt>0</asrwt>
<pdfrwt beam="2">  1        2 0.16204080E-02 0.66572652E+02</pdfrwt>
<pdfrwt beam="1">  1       -2 0.16183804E-01 0.66572652E+02</pdfrwt>
<totfact> 0.17208090E+05</totfact>
</mgrwt>
</event>
<event>
 4    1  0.1433582E+000  0.2756333E+02  0.7818608E-02  0.1626698E+00
         -2   -1    0    0    0  501 -0.00000000000E+00  0.00000000000E+00  0.19532588819E+01  0.19532606123E+01  0.26000000000E-02 0.  1.
          2   -1    0    0  501    0  0.00000000000E+00 -0.00000000000E+00 -0.97239638202E+02  0.97239638237E+02  0.26000000000E-02 0. -1.
        -11    1    1    2    0    0 -0.73441885614E+01  0.96206707875E+01 -0.71362012720E+02  0.72381152738E+02  0.51100000000E-03 0. -1.
         11    1    1    2    0    0  0.73441885614E+01 -0.96206707875E+01 -0.23924366600E+02  0.26811746111E+02  0.51100000000E-03 0.  1.
<mgrwt>
<rscale>  0 0.27563329E+02</rscale>
<asrwt>0</asrwt>
<pdfrwt beam="2">  1        2 0.14959941E-01 0.27563329E+02</pdfrwt>
<pdfrwt beam="1">  1       -2 0.30050158E-03 0.27563329E+02</pdfrwt>
<totfact> 0.25315770E+06</totfact>
</mgrwt>
</event>
<event>
 4    1  0.1433582E+000  0.3815434E+02  0.7818608E-02  0.1522250E+00
          2   -1    0    0  501    0  0.00000000000E+00  0.00000000000E+00  0.51274506950E+01  0.51274513542E+01  0.26000000000E-02 0. -1.
         -2   -1    0    0    0  501 -0.00000000000E+00 -0.00000000000E+00 -0.70978417474E+02  0.70978417522E+02  0.26000000000E-02 0.  1.
        -11    1    1    2    0    0  0.13710701669E+02  0.10419841131E+02 -0.49299150917E+02  0.52220328521E+02  0.51100000000E-03 0.  1.
         11    1    1    2    0    0 -0.13710701669E+02 -0.10419841131E+02 -0.16551815862E+02  0.23885540355E+02  0.51100000000E-03 0. -1.
<mgrwt>
<rscale>  0 0.38154337E+02</rscale>
<asrwt>0</asrwt>
<pdfrwt beam="1">  1        2 0.78883868E-03 0.38154337E+02</pdfrwt>
<pdfrwt beam="2">  1       -2 0.10919756E-01 0.38154337E+02</pdfrwt>
<totfact> 0.73024834E+05</totfact>
</mgrwt>
</event>
<event>
 4    1  0.1433582E+000  0.4036031E+02  0.7818608E-02  0.1505577E+00
         -2   -1    0    0    0  501 -0.00000000000E+00  0.00000000000E+00  0.74671362703E+02  0.74671362748E+02  0.26000000000E-02 0. -1.
          2   -1    0    0  501    0  0.00000000000E+00 -0.00000000000E+00 -0.54537449627E+01  0.54537455825E+01  0.26000000000E-02 0.  1.
        -11    1    1    2    0    0 -0.14890549562E+02  0.10906556582E+02  0.18412668451E+02  0.26071206387E+02  0.51100000000E-03 0.  1.
         11    1    1    2    0    0  0.14890549562E+02 -0.10906556582E+02  0.50804949290E+02  0.54053901944E+02  0.51100000000E-03 0. -1.
<mgrwt>
<rscale>  0 0.40360307E+02</rscale>
<asrwt>0</asrwt>
<pdfrwt beam="2">  1        2 0.83903778E-03 0.40360307E+02</pdfrwt>
<pdfrwt beam="1">  1       -2 0.11487901E-01 0.40360307E+02</pdfrwt>
<totfact> 0.63240467E+05</totfact>
</mgrwt>
</event>
<event>
 4    1  0.1433582E+000  0.2467457E+02  0.7818608E-02  0.1665721E+00
          2   -1    0    0  501    0  0.00000000000E+00  0.00000000000E+00  0.24139838194E+02  0.24139838334E+02  0.26000000000E-02 0.  1.
         -2   -1    0    0    0  501 -0.00000000000E+00 -0.00000000000E+00 -0.63052860844E+01  0.63052866204E+01  0.26000000000E-02 0. -1.
        -11    1    1    2    0    0  0.86565388879E+01  0.50433887220E+01  0.33680517593E-01  0.10018611179E+02  0.51100000000E-03 0. -1.
         11    1    1    2    0    0 -0.86565388879E+01 -0.50433887220E+01  0.17800871592E+02  0.20426513775E+02  0.51100000000E-03 0.  1.
<mgrwt>
<rscale>  0 0.24674570E+02</rscale>
<asrwt>0</asrwt>
<pdfrwt beam="1">  1        2 0.37138213E-02 0.24674570E+02</pdfrwt>
<pdfrwt beam="2">  1       -2 0.97004406E-03 0.24674570E+02</pdfrwt>
<totfact> 0.26202533E+06</totfact>
</mgrwt>
</event>
<event>
 4    1  0.1433582E+000  0.2231933E+02  0.7818608E-02  0.1702787E+00
         -2   -1    0    0    0  501 -0.00000000000E+00  0.00000000000E+00  0.87743988256E+01  0.87743992109E+01  0.26000000000E-02 0. -1.
          2   -1    0    0  501    0  0.00000000000E+00 -0.00000000000E+00 -0.14193353067E+02  0.14193353305E+02  0.26000000000E-02 0.  1.
        -11    1    1    2    0    0  0.98552361302E+01  0.41400552490E+01  0.58869632915E+00  0.10705713441E+02  0.51100000000E-03 0. -1.
         11    1    1    2    0    0 -0.98552361302E+01 -0.41400552490E+01 -0.60076505706E+01  0.12262039075E+02  0.51100000000E-03 0.  1.
<mgrwt>
<rscale>  0 0.22319332E+02</rscale>
<asrwt>0</asrwt>
<pdfrwt beam="2">  1        2 0.21835928E-02 0.22319332E+02</pdfrwt>
<pdfrwt beam="1">  1       -2 0.13499076E-02 0.22319332E+02</pdfrwt>
<totfact> 0.31497860E+06</totfact>
</mgrwt>
</event>
<event>
 4    1  0.1433582E+000  0.2429265E+02  0.7818608E-02  0.1671375E+00
          2   -1    0    0  501    0  0.00000000000E+00  0.00000000000E+00  0.13999853649E+02  0.13999853891E+02  0.26000000000E-02 0. -1.
         -2   -1    0    0    0  501 -0.00000000000E+00 -0.00000000000E+00 -0.10538194071E+02  0.10538194392E+02  0.26000000000E-02 0.  1.
        -11    1    1    2    0    0 -0.61725357660E+01  0.10324263908E+02  0.27809354830E-01  0.12028773697E+02  0.51100000000E-03 0. -1.
         11    1    1    2    0    0  0.61725357660E+01 -0.10324263908E+02  0.34338502233E+01  0.12509274585E+02  0.51100000000E-03 0.  1.
<mgrwt>
<rscale>  0 0.24292648E+02</rscale>
<asrwt>0</asrwt>
<pdfrwt beam="1">  1        2 0.21538237E-02 0.24292648E+02</pdfrwt>
<pdfrwt beam="2">  1       -2 0.16212607E-02 0.24292648E+02</pdfrwt>
<totfact> 0.25814863E+06</totfact>
</mgrwt>
</event>
<event>
 4    1  0.1433582E+000  0.2709284E+02  0.7818608E-02  0.1632642E+00
         -2   -1    0    0    0  501 -0.00000000000E+00  0.00000000000E+00  0.15739355126E+02  0.15739355341E+02  0.26000000000E-02 0. -1.
          2   -1    0    0  501    0  0.00000000000E+00 -0.00000000000E+00 -0.11659025897E+02  0.11659026187E+02  0.26000000000E-02 0.  1.
        -11    1    1    2    0    0  0.56884993437E+01  0.12215186215E+02  0.34471697460E+01  0.13908730300E+02  0.51100000000E-03 0. -1.
         11    1    1    2    0    0 -0.56884993437E+01 -0.12215186215E+02  0.63315948302E+00  0.13489651228E+02  0.51100000000E-03 0.  1.
<mgrwt>
<rscale>  0 0.27092845E+02</rscale>
<asrwt>0</asrwt>
<pdfrwt beam="2">  1        2 0.17936963E-02 0.27092845E+02</pdfrwt>
<pdfrwt beam="1">  1       -2 0.24214393E-02 0.27092845E+02</pdfrwt>
<totfact> 0.19569611E+06</totfact>
</mgrwt>
</event>
<event>
 4    1  0.1433582E+000  0.2302006E+02  0.7818608E-02  0.1691185E+00
         -2   -1    0    0    0  501 -0.00000000000E+00  0.00000000000E+00  0.15096188882E+02  0.15096189105E+02  0.26000000000E-02 0.  1.
          2   -1    0    0  501    0  0.00000000000E+00 -0.00000000000E+00 -0.87757732828E+01  0.87757736680E+01  0.26000000000E-02 0. -1.
        -11    1    1    2    0    0  0.10299019586E+02 -0.71102178997E+00 -0.21178818248E+01  0.10538537854E+02  0.51100000000E-03 0. -1.
         11    1    1    2    0    0 -0.10299019586E+02  0.71102178997E+00  0.84382974235E+01  0.13333424919E+02  0.51100000000E-03 0.  1.
<mgrwt>
<rscale>  0 0.23020055E+02</rscale>
<asrwt>0</asrwt>
<pdfrwt beam="2">  1        2 0.13501190E-02 0.23020055E+02</pdfrwt>
<pdfrwt beam="1">  1       -2 0.23224906E-02 0.23020055E+02</pdfrwt>
<totfact> 0.28172062E+06</totfact>
</mgrwt>
</event>
<event>
 4    1  0.1433582E+000  0.2269667E+02  0.7818608E-02  0.1696475E+00
         -2   -1    0    0    0  501 -0.00000000000E+00  0.00000000000E+00  0.19408518853E+01  0.19408536268E+01  0.26000000000E-02 0. -1.
          2   -1    0    0  501    0  0.00000000000E+00 -0.00000000000E+00 -0.66354673215E+02  0.66354673266E+02  0.26000000000E-02 0.  1.
        -11    1    1    2    0    0 -0.10940781198E+02 -0.18728833110E+01 -0.39312531725E+02  0.40849523081E+02  0.51100000000E-03 0.  1.
         11    1    1    2    0    0  0.10940781198E+02  0.18728833110E+01 -0.25101289606E+02  0.27446003812E+02  0.51100000000E-03 0. -1.
<mgrwt>
<rscale>  0 0.22696665E+02</rscale>
<asrwt>0</asrwt>
<pdfrwt beam="2">  1        2 0.10208410E-01 0.22696665E+02</pdfrwt>
<pdfrwt beam="1">  1       -2 0.29859279E-03 0.22696665E+02</pdfrwt>
<totfact> 0.36542842E+06</totfact>
</mgrwt>
</event>
<event>
 4    1  0.1433582E+000  0.4725741E+02  0.7818608E-02  0.1460722E+00
          2   -1    0    0  501    0  0.00000000000E+00  0.00000000000E+00  0.27248307021E+02  0.27248307145E+02  0.26000000000E-02 0.  1.
         -2   -1    0    0    0  501 -0.00000000000E+00 -0.00000000000E+00 -0.20489918447E+02  0.20489918612E+02  0.26000000000E-02 0. -1.
        -11    1    1    2    0    0  0.99578409668E+01  0.65517959460E+01 -0.17230122431E+02  0.20951413940E+02  0.51100000000E-03 0. -1.
         11    1    1    2    0    0 -0.99578409668E+01 -0.65517959460E+01  0.23988511004E+02  0.26786811817E+02  0.51100000000E-03 0.  1.
<mgrwt>
<rscale>  0 0.47257406E+02</rscale>
<asrwt>0</asrwt>
<pdfrwt beam="1">  1        2 0.41920472E-02 0.47257406E+02</pdfrwt>
<pdfrwt beam="2">  1       -2 0.31522952E-02 0.47257406E+02</pdfrwt>
<totfact> 0.53571841E+05</totfact>
</mgrwt>
</event>
<event>
 4    1  0.1433582E+000  0.2270146E+02  0.7818608E-02  0.1696396E+00
         -2   -1    0    0    0  501 -0.00000000000E+00  0.00000000000E+00  0.10330230442E+03  0.10330230445E+03  0.26000000000E-02 0. -1.
          2   -1    0    0  501    0  0.00000000000E+00 -0.00000000000E+00 -0.12472025306E+01  0.12472052406E+01  0.26000000000E-02 0.  1.
        -11    1    1    2    0    0 -0.10020754186E+02  0.52325528876E+01  0.55732996080E+02  0.56867934519E+02  0.51100000000E-03 0. -1.
         11    1    1    2    0    0  0.10020754186E+02 -0.52325528876E+01  0.46322105808E+02  0.47681575173E+02  0.51100000000E-03 0.  1.
<mgrwt>
<rscale>  0 0.22701457E+02</rscale>
<asrwt>0</asrwt>
<pdfrwt beam="2">  1        2 0.19187739E-03 0.22701457E+02</pdfrwt>
<pdfrwt beam="1">  1       -2 0.15892674E-01 0.22701457E+02</pdfrwt>
<totfact> 0.22305625E+06</totfact>
</mgrwt>
</event>
<event>
 4    1  0.1433582E+000  0.2601196E+02  0.7818608E-02  0.1646878E+00
         -2   -1    0    0    0  501 -0.00000000000E+00  0.00000000000E+00  0.20626067719E+02  0.20626067883E+02  0.26000000000E-02 0.  1.
          2   -1    0    0  501    0  0.00000000000E+00 -0.00000000000E+00 -0.82010529328E+01  0.82010533449E+01  0.26000000000E-02 0. -1.
        -11    1    1    2    0    0 -0.12880912938E+02  0.17981007313E+01  0.62859923757E+01  0.14445233981E+02  0.51100000000E-03 0.  1.
         11    1    1    2    0    0  0.12880912938E+02 -0.17981007313E+01  0.61390224109E+01  0.14381887247E+02  0.51100000000E-03 0. -1.
<mgrwt>
<rscale>  0 0.26011957E+02</rscale>
<asrwt>0</asrwt>
<pdfrwt beam="2">  1        2 0.12617005E-02 0.26011957E+02</pdfrwt>
<pdfrwt beam="1">  1       -2 0.31732412E-02 0.26011957E+02</pdfrwt>
<totfact> 0.20896686E+06</totfact>
</mgrwt>
</event>
<event>
 4    1  0.1433582E+000  0.7635977E+02  0.7818608E-02  0.1339711E+00
         -2   -1    0    0    0  501 -0.00000000000E+00  0.00000000000E+00  0.23337055019E+03  0.23337055020E+03  0.26000000000E-02 0.  1.
          2   -1    0    0  501    0  0.00000000000E+00 -0.00000000000E+00 -0.62463054399E+01  0.62463059810E+01  0.26000000000E-02 0. -1.
        -11    1    1    2    0    0  0.35734823760E+02  0.44463794638E+01  0.73750841063E+02  0.82072738941E+02  0.51100000000E-03 0. -1.
         11    1    1    2    0    0 -0.35734823760E+02 -0.44463794638E+01  0.15337340368E+03  0.15754411724E+03  0.51100000000E-03 0.  1.
<mgrwt>
<rscale>  0 0.76359775E+02</rscale>
<asrwt>0</asrwt>
<pdfrwt beam="2">  1        2 0.96097011E-03 0.76359775E+02</pdfrwt>
<pdfrwt beam="1">  1       -2 0.35903162E-01 0.76359775E+02</pdfrwt>
<totfact> 0.91357366E+04</totfact>
</mgrwt>
</event>
<event>
 4    1  0.1433582E+000  0.2716456E+02  0.7818608E-02  0.1631726E+00
         -2   -1    0    0    0  501 -0.00000000000E+00  0.00000000000E+00  0.11286148482E+02  0.11286148782E+02  0.26000000000E-02 0. -1.
          2   -1    0    0  501    0  0.00000000000E+00 -0.00000000000E+00 -0.16345554756E+02  0.16345554962E+02  0.26000000000E-02 0.  1.
        -11    1    1    2    0    0 -0.91091121942E+01  0.10044706963E+02 -0.17376590225E+01  0.13670827411E+02  0.51100000000E-03 0. -1.
         11    1    1    2    0    0  0.91091121942E+01 -0.10044706963E+02 -0.33217472507E+01  0.13960876334E+02  0.51100000000E-03 0.  1.
<mgrwt>
<rscale>  0 0.27164563E+02</rscale>
<asrwt>0</asrwt>
<pdfrwt beam="2">  1        2 0.25147008E-02 0.27164563E+02</pdfrwt>
<pdfrwt beam="1">  1       -2 0.17363306E-02 0.27164563E+02</pdfrwt>
<totfact> 0.20077737E+06</totfact>
</mgrwt>
</event>
<event>
 4    1  0.1433582E+000  0.2148800E+02  0.7818608E-02  0.1717260E+00
          2   -1    0    0  501    0  0.00000000000E+00  0.00000000000E+00  0.58516584847E+02  0.58516584905E+02  0.26000000000E-02 0.  1.
         -2   -1    0    0    0  501 -0.00000000000E+00 -0.00000000000E+00 -0.19726624763E+01  0.19726641897E+01  0.26000000000E-02 0. -1.
        -11    1    1    2    0    0  0.72955372496E+01 -0.76182126788E+01  0.34021435661E+02  0.35619097586E+02  0.51100000000E-03 0.  1.
         11    1    1    2    0    0 -0.72955372496E+01  0.76182126788E+01  0.22522486710E+02  0.24870151508E+02  0.51100000000E-03 0. -1.
<mgrwt>
<rscale>  0 0.21487999E+02</rscale>
<asrwt>0</asrwt>
<pdfrwt beam="1">  1        2 0.90025513E-02 0.21487999E+02</pdfrwt>
<pdfrwt beam="2">  1       -2 0.30348668E-03 0.21487999E+02</pdfrwt>
<totfact> 0.40449186E+06</totfact>
</mgrwt>
</event>
<event>
 4    1  0.1433582E+000  0.4615884E+02  0.7818608E-02  0.1467234E+00
         -2   -1    0    0    0  501 -0.00000000000E+00  0.00000000000E+00  0.12383348313E+02  0.12383348586E+02  0.26000000000E-02 0.  1.
          2   -1    0    0  501    0  0.00000000000E+00 -0.00000000000E+00 -0.43014184453E+02  0.43014184532E+02  0.26000000000E-02 0. -1.
        -11    1    1    2    0    0 -0.12419694804E+02  0.14976397098E+02 -0.41622633378E+00  0.19460589243E+02  0.51100000000E-03 0. -1.
         11    1    1    2    0    0  0.12419694804E+02 -0.14976397098E+02 -0.30214609806E+02  0.35936943875E+02  0.51100000000E-03 0.  1.
<mgrwt>
<rscale>  0 0.46158840E+02</rscale>
<asrwt>0</asrwt>
<pdfrwt beam="2">  1        2 0.66175668E-02 0.46158840E+02</pdfrwt>
<pdfrwt beam="1">  1       -2 0.19051306E-02 0.46158840E+02</pdfrwt>
<totfact> 0.61264513E+05</totfact>
</mgrwt>
</event>
<event>
 4    1  0.1433582E+000  0.2153563E+02  0.7818608E-02  0.1716409E+00
         -2   -1    0    0    0  501 -0.00000000000E+00  0.00000000000E+00  0.65062782677E+02  0.65062782729E+02  0.26000000000E-02 0.  1.
          2   -1    0    0  501    0  0.00000000000E+00 -0.00000000000E+00 -0.17820606385E+01  0.17820625352E+01  0.26000000000E-02 0. -1.
        -11    1    1    2    0    0  0.63252444848E+01 -0.85722080529E+01  0.36503141987E+02  0.38025923314E+02  0.51100000000E-03 0.  1.
         11    1    1    2    0    0 -0.63252444848E+01  0.85722080529E+01  0.26777580052E+02  0.28818921950E+02  0.51100000000E-03 0. -1.
<mgrwt>
<rscale>  0 0.21535635E+02</rscale>
<asrwt>0</asrwt>
<pdfrwt beam="2">  1        2 0.27416332E-03 0.21535635E+02</pdfrwt>
<pdfrwt beam="1">  1       -2 0.10009659E-01 0.21535635E+02</pdfrwt>
<totfact> 0.27627937E+06</totfact>
</mgrwt>
</event>
<event>
 4    1  0.1433582E+000  0.2184602E+02  0.7818608E-02  0.1710929E+00
         -2   -1    0    0    0  501 -0.00000000000E+00  0.00000000000E+00  0.24158091718E+02  0.24158091858E+02  0.26000000000E-02 0.  1.
          2   -1    0    0  501    0  0.00000000000E+00 -0.00000000000E+00 -0.49388052309E+01  0.49388059153E+01  0.26000000000E-02 0. -1.
        -11    1    1    2    0    0  0.96357722417E+01 -0.45401187676E+01  0.12831468192E+02  0.16676551243E+02  0.51100000000E-03 0.  1.
         11    1    1    2    0    0 -0.96357722417E+01  0.45401187676E+01  0.63878182954E+01  0.12420346531E+02  0.51100000000E-03 0. -1.
<mgrwt>
<rscale>  0 0.21846018E+02</rscale>
<asrwt>0</asrwt>
<pdfrwt beam="2">  1        2 0.75981624E-03 0.21846018E+02</pdfrwt>
<pdfrwt beam="1">  1       -2 0.37166296E-02 0.21846018E+02</pdfrwt>
<totfact> 0.30346920E+06</totfact>
</mgrwt>
</event>
<event>
 4    1  0.1433582E+000  0.2731753E+02  0.7818608E-02  0.1629785E+00
         -2   -1    0    0    0  501 -0.00000000000E+00  0.00000000000E+00  0.60807046395E+01  0.60807051953E+01  0.26000000000E-02 0.  1.
          2   -1    0    0  501    0  0.00000000000E+00 -0.00000000000E+00 -0.30680952366E+02  0.30680952476E+02  0.26000000000E-02 0. -1.
        -11    1    1    2    0    0 -0.11501969604E+01  0.10801750143E+02 -0.23442876067E+02  0.25837360503E+02  0.51100000000E-03 0. -1.
         11    1    1    2    0    0  0.11501969604E+01 -0.10801750143E+02 -0.11573716596E+01  0.10924297169E+02  0.51100000000E-03 0.  1.
<mgrwt>
<rscale>  0 0.27317527E+02</rscale>
<asrwt>0</asrwt>
<pdfrwt beam="2">  1        2 0.47201465E-02 0.27317527E+02</pdfrwt>
<pdfrwt beam="1">  1       -2 0.93549309E-03 0.27317527E+02</pdfrwt>
<totfact> 0.21192714E+06</totfact>
</mgrwt>
</event>
<event>
 4    1  0.1433582E+000  0.2248564E+02  0.7818608E-02  0.1699986E+00
          2   -1    0    0  501    0  0.00000000000E+00  0.00000000000E+00  0.35443299907E+02  0.35443300003E+02  0.26000000000E-02 0. -1.
         -2   -1    0    0    0  501 -0.00000000000E+00 -0.00000000000E+00 -0.35662863011E+01  0.35662872489E+01  0.26000000000E-02 0.  1.
        -11    1    1    2    0    0 -0.14546699962E+01 -0.10315533349E+02  0.23273256680E+02  0.25498446420E+02  0.51100000000E-03 0. -1.
         11    1    1    2    0    0  0.14546699962E+01  0.10315533349E+02  0.86037569263E+01  0.13511140832E+02  0.51100000000E-03 0.  1.
<mgrwt>
<rscale>  0 0.22485638E+02</rscale>
<asrwt>0</asrwt>
<pdfrwt beam="1">  1        2 0.54528157E-02 0.22485638E+02</pdfrwt>
<pdfrwt beam="2">  1       -2 0.54865948E-03 0.22485638E+02</pdfrwt>
<totfact> 0.33921998E+06</totfact>
</mgrwt>
</event>
<event>
 4    1  0.1433582E+000  0.1554011E+03  0.7818608E-02  0.1193989E+00
         -2   -1    0    0    0  501 -0.00000000000E+00  0.00000000000E+00  0.51002726755E+03  0.51002726755E+03  0.26000000000E-02 0.  1.
          2   -1    0    0  501    0  0.00000000000E+00 -0.00000000000E+00 -0.11837350601E+02  0.11837350886E+02  0.26000000000E-02 0. -1.
        -11    1    1    2    0    0  0.66096945276E+02 -0.14650424934E+02  0.37714382257E+03  0.38317215978E+03  0.51100000000E-03 0.  1.
         11    1    1    2    0    0 -0.66096945276E+02  0.14650424934E+02  0.12104609437E+03  0.13869245866E+03  0.51100000000E-03 0. -1.
<mgrwt>
<rscale>  0 0.15540105E+03</rscale>
<asrwt>0</asrwt>
<pdfrwt beam="2">  1        2 0.18211313E-02 0.15540105E+03</pdfrwt>
<pdfrwt beam="1">  1       -2 0.78465717E-01 0.15540105E+03</pdfrwt>
<totfact> 0.88135954E+03</totfact>
</mgrwt>
</event>
<event>
 4    1  0.1433582E+000  0.2593723E+02  0.7818608E-02  0.1647894E+00
          2   -1    0    0  501    0  0.00000000000E+00  0.00000000000E+00  0.54467342812E+01  0.54467349017E+01  0.26000000000E-02 0. -1.
         -2   -1    0    0    0  501 -0.00000000000E+00 -0.00000000000E+00 -0.30878123854E+02  0.30878123964E+02  0.26000000000E-02 0.  1.
        -11    1    1    2    0    0  0.76740639437E+01 -0.92380882365E+01 -0.19569724495E+02  0.22961002782E+02  0.51100000000E-03 0. -1.
         11    1    1    2    0    0 -0.76740639437E+01  0.92380882365E+01 -0.58616650784E+01  0.13363856084E+02  0.51100000000E-03 0.  1.
<mgrwt>
<rscale>  0 0.25937228E+02</rscale>
<asrwt>0</asrwt>
<pdfrwt beam="1">  1        2 0.83795920E-03 0.25937228E+02</pdfrwt>
<pdfrwt beam="2">  1       -2 0.47504805E-02 0.25937228E+02</pdfrwt>
<totfact> 0.20185738E+06</totfact>
</mgrwt>
</event>
<event>
 4    1  0.1433582E+000  0.2470231E+02  0.7818608E-02  0.1665315E+00
         -2   -1    0    0    0  501 -0.00000000000E+00  0.00000000000E+00  0.69747102760E+01  0.69747107606E+01  0.26000000000E-02 0. -1.
          2   -1    0    0  501    0  0.00000000000E+00 -0.00000000000E+00 -0.21872024675E+02  0.21872024830E+02  0.26000000000E-02 0.  1.
        -11    1    1    2    0    0 -0.10469611458E+02 -0.42039314644E+01 -0.13318423394E+02  0.17454690080E+02  0.51100000000E-03 0. -1.
         11    1    1    2    0    0  0.10469611458E+02  0.42039314644E+01 -0.15788910053E+01  0.11392045510E+02  0.51100000000E-03 0.  1.
<mgrwt>
<rscale>  0 0.24702311E+02</rscale>
<asrwt>0</asrwt>
<pdfrwt beam="2">  1        2 0.33649269E-02 0.24702311E+02</pdfrwt>
<pdfrwt beam="1">  1       -2 0.10730324E-02 0.24702311E+02</pdfrwt>
<totfact> 0.25870827E+06</totfact>
</mgrwt>
</event>
<event>
 4    1  0.1433582E+000  0.2418539E+02  0.7818608E-02  0.1672986E+00
          2   -1    0    0  501    0  0.00000000000E+00  0.00000000000E+00  0.12244428535E+03  0.12244428537E+03  0.26000000000E-02 0. -1.
         -2   -1    0    0    0  501 -0.00000000000E+00 -0.00000000000E+00 -0.11942822974E+01  0.11942851276E+01  0.26000000000E-02 0.  1.
        -11    1    1    2    0    0  0.42806093507E+01 -0.11159554959E+02  0.70015082727E+02  0.71027959937E+02  0.51100000000E-03 0. -1.
         11    1    1    2    0    0 -0.42806093507E+01  0.11159554959E+02  0.51234920322E+02  0.52610610565E+02  0.51100000000E-03 0.  1.
<mgrwt>
<rscale>  0 0.24185386E+02</rscale>
<asrwt>0</asrwt>
<pdfrwt beam="1">  1        2 0.18837586E-01 0.24185386E+02</pdfrwt>
<pdfrwt beam="2">  1       -2 0.18373592E-03 0.24185386E+02</pdfrwt>
<totfact> 0.36196861E+06</totfact>
</mgrwt>
</event>
<event>
 4    1  0.1433582E+000  0.6634081E+02  0.7818608E-02  0.1372998E+00
          2   -1    0    0  501    0  0.00000000000E+00  0.00000000000E+00  0.90857784047E+02  0.90857784085E+02  0.26000000000E-02 0.  1.
         -2   -1    0    0    0  501 -0.00000000000E+00 -0.00000000000E+00 -0.12109869499E+02  0.12109869778E+02  0.26000000000E-02 0. -1.
        -11    1    1    2    0    0 -0.25340423008E+02 -0.32776110338E+01  0.72203598658E+02  0.76591379618E+02  0.51100000000E-03 0.  1.
         11    1    1    2    0    0  0.25340423008E+02  0.32776110338E+01  0.65443158898E+01  0.26376274245E+02  0.51100000000E-03 0. -1.
<mgrwt>
<rscale>  0 0.66340815E+02</rscale>
<asrwt>0</asrwt>
<pdfrwt beam="1">  1        2 0.13978120E-01 0.66340815E+02</pdfrwt>
<pdfrwt beam="2">  1       -2 0.18630569E-02 0.66340815E+02</pdfrwt>
<totfact> 0.28114083E+05</totfact>
</mgrwt>
</event>
<event>
 4    1  0.1433582E+000  0.3276860E+02  0.7818608E-02  0.1569358E+00
         -2   -1    0    0    0  501 -0.00000000000E+00  0.00000000000E+00  0.95884087926E+02  0.95884087961E+02  0.26000000000E-02 0.  1.
          2   -1    0    0  501    0  0.00000000000E+00 -0.00000000000E+00 -0.27996840825E+01  0.27996852897E+01  0.26000000000E-02 0. -1.
        -11    1    1    2    0    0 -0.12979941391E+02 -0.31487574080E+01  0.75120330632E+02  0.76298477221E+02  0.51100000000E-03 0.  1.
         11    1    1    2    0    0  0.12979941391E+02  0.31487574080E+01  0.17964073211E+02  0.22385296029E+02  0.51100000000E-03 0. -1.
<mgrwt>
<rscale>  0 0.32768596E+02</rscale>
<asrwt>0</asrwt>
<pdfrwt beam="2">  1        2 0.43072078E-03 0.32768596E+02</pdfrwt>
<pdfrwt beam="1">  1       -2 0.14751396E-01 0.32768596E+02</pdfrwt>
<totfact> 0.98078484E+05</totfact>
</mgrwt>
</event>
<event>
 4    1  0.1433582E+000  0.3131243E+02  0.7818608E-02  0.1584019E+00
          2   -1    0    0  501    0  0.00000000000E+00  0.00000000000E+00  0.45986749593E+01  0.45986756943E+01  0.26000000000E-02 0. -1.
         -2   -1    0    0    0  501 -0.00000000000E+00 -0.00000000000E+00 -0.53301659464E+02  0.53301659527E+02  0.26000000000E-02 0.  1.
        -11    1    1    2    0    0 -0.12884702686E+02  0.88360789338E+01 -0.26223740367E+02  0.30525012913E+02  0.51100000000E-03 0.  1.
         11    1    1    2    0    0  0.12884702686E+02 -0.88360789338E+01 -0.22479244138E+02  0.27375322309E+02  0.51100000000E-03 0. -1.
<mgrwt>
<rscale>  0 0.31312428E+02</rscale>
<asrwt>0</asrwt>
<pdfrwt beam="1">  1        2 0.70748855E-03 0.31312428E+02</pdfrwt>
<pdfrwt beam="2">  1       -2 0.82002549E-02 0.31312428E+02</pdfrwt>
<totfact> 0.12208147E+06</totfact>
</mgrwt>
</event>
<event>
 4    1  0.1433582E+000  0.3215117E+02  0.7818608E-02  0.1575459E+00
          2   -1    0    0  501    0  0.00000000000E+00  0.00000000000E+00  0.68302683790E+02  0.68302683840E+02  0.26000000000E-02 0.  1.
         -2   -1    0    0    0  501 -0.00000000000E+00 -0.00000000000E+00 -0.37835184437E+01  0.37835193370E+01  0.26000000000E-02 0. -1.
        -11    1    1    2    0    0  0.13379705221E+02 -0.66704914173E+01  0.19011715149E+02  0.24185890116E+02  0.51100000000E-03 0. -1.
         11    1    1    2    0    0 -0.13379705221E+02  0.66704914173E+01  0.45507450198E+02  0.47900313061E+02  0.51100000000E-03 0.  1.
<mgrwt>
<rscale>  0 0.32151174E+02</rscale>
<asrwt>0</asrwt>
<pdfrwt beam="1">  1        2 0.10508105E-01 0.32151174E+02</pdfrwt>
<pdfrwt beam="2">  1       -2 0.58207985E-03 0.32151174E+02</pdfrwt>
<totfact> 0.16301442E+06</totfact>
</mgrwt>
</event>
<event>
 4    1  0.1433582E+000  0.7328190E+02  0.7818608E-02  0.1349276E+00
          2   -1    0    0  501    0  0.00000000000E+00  0.00000000000E+00  0.18824151455E+03  0.18824151457E+03  0.26000000000E-02 0. -1.
         -2   -1    0    0    0  501 -0.00000000000E+00 -0.00000000000E+00 -0.71321089280E+01  0.71321094019E+01  0.26000000000E-02 0.  1.
        -11    1    1    2    0    0  0.24897532756E+02  0.93928108178E+01  0.23401471420E+02  0.35436434602E+02  0.51100000000E-03 0. -1.
         11    1    1    2    0    0 -0.24897532756E+02 -0.93928108178E+01  0.15770793421E+03  0.15993718937E+03  0.51100000000E-03 0.  1.
<mgrwt>
<rscale>  0 0.73281895E+02</rscale>
<asrwt>0</asrwt>
<pdfrwt beam="1">  1        2 0.28960235E-01 0.73281895E+02</pdfrwt>
<pdfrwt beam="2">  1       -2 0.10972475E-02 0.73281895E+02</pdfrwt>
<totfact> 0.27063738E+05</totfact>
</mgrwt>
</event>
<event>
 4    1  0.1433582E+000  0.2398868E+02  0.7818608E-02  0.1675968E+00
         -2   -1    0    0    0  501 -0.00000000000E+00  0.00000000000E+00  0.88214545944E+02  0.88214545983E+02  0.26000000000E-02 0.  1.
          2   -1    0    0  501    0  0.00000000000E+00 -0.00000000000E+00 -0.16308436123E+01  0.16308456848E+01  0.26000000000E-02 0. -1.
        -11    1    1    2    0    0  0.10703132694E+02 -0.54135896824E+01  0.43347480120E+02  0.44976305270E+02  0.51100000000E-03 0.  1.
         11    1    1    2    0    0 -0.10703132694E+02  0.54135896824E+01  0.43236222212E+02  0.44869086398E+02  0.51100000000E-03 0. -1.
<mgrwt>
<rscale>  0 0.23988683E+02</rscale>
<asrwt>0</asrwt>
<pdfrwt beam="2">  1        2 0.25089912E-03 0.23988683E+02</pdfrwt>
<pdfrwt beam="1">  1       -2 0.13571472E-01 0.23988683E+02</pdfrwt>
<totfact> 0.20460650E+06</totfact>
</mgrwt>
</event>
<event>
 4    1  0.1433582E+000  0.2604545E+02  0.7818608E-02  0.1646424E+00
          2   -1    0    0  501    0  0.00000000000E+00  0.00000000000E+00  0.30225951065E+02  0.30225951177E+02  0.26000000000E-02 0. -1.
         -2   -1    0    0    0  501 -0.00000000000E+00 -0.00000000000E+00 -0.56107878991E+01  0.56107885016E+01  0.26000000000E-02 0.  1.
        -11    1    1    2    0    0 -0.11495666643E+02 -0.34357912765E+01  0.53409140713E+01  0.13133178467E+02  0.51100000000E-03 0.  1.
         11    1    1    2    0    0  0.11495666643E+02  0.34357912765E+01  0.19274249095E+02  0.22703561212E+02  0.51100000000E-03 0. -1.
<mgrwt>
<rscale>  0 0.26045454E+02</rscale>
<asrwt>0</asrwt>
<pdfrwt beam="1">  1        2 0.46501463E-02 0.26045454E+02</pdfrwt>
<pdfrwt beam="2">  1       -2 0.86319820E-03 0.26045454E+02</pdfrwt>
<totfact> 0.23671126E+06</totfact>
</mgrwt>
</event>
<event>
 4    1  0.1433582E+000  0.2589223E+02  0.7818608E-02  0.1648508E+00
         -2   -1    0    0    0  501 -0.00000000000E+00  0.00000000000E+00  0.33801851116E+01  0.33801861115E+01  0.26000000000E-02 0.  1.
          2   -1    0    0  501    0  0.00000000000E+00 -0.00000000000E+00 -0.49583619628E+02  0.49583619696E+02  0.26000000000E-02 0. -1.
        -11    1    1    2    0    0  0.95776575890E+01  0.85781641704E+01 -0.20009340680E+02  0.23784241425E+02  0.51100000000E-03 0.  1.
         11    1    1    2    0    0 -0.95776575890E+01 -0.85781641704E+01 -0.26194093836E+02  0.29179564383E+02  0.51100000000E-03 0. -1.
<mgrwt>
<rscale>  0 0.25892226E+02</rscale>
<asrwt>0</asrwt>
<pdfrwt beam="2">  1        2 0.76282487E-02 0.25892226E+02</pdfrwt>
<pdfrwt beam="1">  1       -2 0.52002860E-03 0.25892226E+02</pdfrwt>
<totfact> 0.25686083E+06</totfact>
</mgrwt>
</event>
<event>
 4    1  0.1433582E+000  0.3726566E+02  0.7818608E-02  0.1529355E+00
         -2   -1    0    0    0  501 -0.00000000000E+00  0.00000000000E+00  0.74076522142E+01  0.74076526705E+01  0.26000000000E-02 0.  1.
          2   -1    0    0  501    0  0.00000000000E+00 -0.00000000000E+00 -0.46868073459E+02  0.46868073531E+02  0.26000000000E-02 0. -1.
        -11    1    1    2    0    0 -0.27095122476E+01  0.16669104909E+02 -0.31196666193E+02  0.35474392129E+02  0.51100000000E-03 0. -1.
         11    1    1    2    0    0  0.27095122476E+01 -0.16669104909E+02 -0.82637550508E+01  0.18801334072E+02  0.51100000000E-03 0.  1.
<mgrwt>
<rscale>  0 0.37265663E+02</rscale>
<asrwt>0</asrwt>
<pdfrwt beam="2">  1        2 0.72104727E-02 0.37265663E+02</pdfrwt>
<pdfrwt beam="1">  1       -2 0.11396389E-02 0.37265663E+02</pdfrwt>
<totfact> 0.10633914E+06</totfact>
</mgrwt>
</event>
<event>
 4    1  0.1433582E+000  0.3160068E+02  0.7818608E-02  0.1581041E+00
          2   -1    0    0  501    0  0.00000000000E+00  0.00000000000E+00  0.90314426929E+02  0.90314426966E+02  0.26000000000E-02 0.  1.
         -2   -1    0    0    0  501 -0.00000000000E+00 -0.00000000000E+00 -0.27642395433E+01  0.27642407661E+01  0.26000000000E-02 0. -1.
        -11    1    1    2    0    0 -0.14956907029E+02 -0.25558396191E+01  0.30798533313E+02  0.34333526450E+02  0.51100000000E-03 0. -1.
         11    1    1    2    0    0  0.14956907029E+02  0.25558396191E+01  0.56751654073E+02  0.58745141282E+02  0.51100000000E-03 0.  1.
<mgrwt>
<rscale>  0 0.31600682E+02</rscale>
<asrwt>0</asrwt>
<pdfrwt beam="1">  1        2 0.13894529E-01 0.31600682E+02</pdfrwt>
<pdfrwt beam="2">  1       -2 0.42526767E-03 0.31600682E+02</pdfrwt>
<totfact> 0.18034535E+06</totfact>
</mgrwt>
</event>
<event>
 4    1  0.1433582E+000  0.2310271E+02  0.7818608E-02  0.1689851E+00
          2   -1    0    0  501    0  0.00000000000E+00  0.00000000000E+00  0.42257966483E+01  0.42257974482E+01  0.26000000000E-02 0.  1.
         -2   -1    0    0    0  501 -0.00000000000E+00 -0.00000000000E+00 -0.31576016193E+02  0.31576016300E+02  0.26000000000E-02 0. -1.
        -11    1    1    2    0    0  0.67920667220E+01  0.73845088910E+01 -0.22546361112E+02  0.24677956592E+02  0.51100000000E-03 0. -1.
         11    1    1    2    0    0 -0.67920667220E+01 -0.73845088910E+01 -0.48038584322E+01  0.11123857155E+02  0.51100000000E-03 0.  1.
<mgrwt>
<rscale>  0 0.23102713E+02</rscale>
<asrwt>0</asrwt>
<pdfrwt beam="1">  1        2 0.65012265E-03 0.23102713E+02</pdfrwt>
<pdfrwt beam="2">  1       -2 0.48578486E-02 0.23102713E+02</pdfrwt>
<totfact> 0.26100534E+06</totfact>
</mgrwt>
</event>
<event>
 4    1  0.1433582E+000  0.2100060E+02  0.7818608E-02  0.1726132E+00
          2   -1    0    0  501    0  0.00000000000E+00  0.00000000000E+00  0.11869899020E+02  0.11869899305E+02  0.26000000000E-02 0. -1.
         -2   -1    0    0    0  501 -0.00000000000E+00 -0.00000000000E+00 -0.92887323478E+01  0.92887327117E+01  0.26000000000E-02 0.  1.
        -11    1    1    2    0    0  0.82046237993E+01  0.63585852787E+01  0.28864416358E+01  0.10773996659E+02  0.51100000000E-03 0. -1.
         11    1    1    2    0    0 -0.82046237993E+01 -0.63585852787E+01 -0.30527496372E+00  0.10384635357E+02  0.51100000000E-03 0.  1.
<mgrwt>
<rscale>  0 0.21000602E+02</rscale>
<asrwt>0</asrwt>
<pdfrwt beam="1">  1        2 0.18261384E-02 0.21000602E+02</pdfrwt>
<pdfrwt beam="2">  1       -2 0.14290358E-02 0.21000602E+02</pdfrwt>
<totfact> 0.35739548E+06</totfact>
</mgrwt>
</event>
<event>
 4    1  0.1433582E+000  0.2273519E+02  0.7818608E-02  0.1695839E+00
          2   -1    0    0  501    0  0.00000000000E+00  0.00000000000E+00  0.14566685514E+01  0.14566708717E+01  0.26000000000E-02 0. -1.
         -2   -1    0    0    0  501 -0.00000000000E+00 -0.00000000000E+00 -0.88710704585E+02  0.88710704623E+02  0.26000000000E-02 0.  1.
        -11    1    1    2    0    0 -0.28548154385E+01  0.10999725009E+02 -0.44736629906E+02  0.46157447688E+02  0.51100000000E-03 0.  1.
         11    1    1    2    0    0  0.28548154385E+01 -0.10999725009E+02 -0.42517406127E+02  0.44009927806E+02  0.51100000000E-03 0. -1.
<mgrwt>
<rscale>  0 0.22735189E+02</rscale>
<asrwt>0</asrwt>
<pdfrwt beam="1">  1        2 0.22410310E-03 0.22735189E+02</pdfrwt>
<pdfrwt beam="2">  1       -2 0.13647797E-01 0.22735189E+02</pdfrwt>
<totfact> 0.23042783E+06</totfact>
</mgrwt>
</event>
<event>
 4    1  0.1433582E+000  0.2258596E+02  0.7818608E-02  0.1698311E+00
         -2   -1    0    0    0  501 -0.00000000000E+00  0.00000000000E+00  0.10059821631E+02  0.10059821967E+02  0.26000000000E-02 0. -1.
          2   -1    0    0  501    0  0.00000000000E+00 -0.00000000000E+00 -0.12677304046E+02  0.12677304312E+02  0.26000000000E-02 0.  1.
        -11    1    1    2    0    0 -0.10150392611E+02  0.32910883850E+01  0.24132584086E+01  0.10940089091E+02  0.51100000000E-03 0. -1.
         11    1    1    2    0    0  0.10150392611E+02 -0.32910883850E+01 -0.50307408235E+01  0.11797037188E+02  0.51100000000E-03 0.  1.
<mgrwt>
<rscale>  0 0.22585962E+02</rscale>
<asrwt>0</asrwt>
<pdfrwt beam="2">  1        2 0.19503545E-02 0.22585962E+02</pdfrwt>
<pdfrwt beam="1">  1       -2 0.15476649E-02 0.22585962E+02</pdfrwt>
<totfact> 0.30357244E+06</totfact>
</mgrwt>
</event>
<event>
 4    1  0.1433582E+000  0.3926232E+02  0.7818608E-02  0.1513711E+00
         -2   -1    0    0    0  501 -0.00000000000E+00  0.00000000000E+00  0.10416322472E+02  0.10416322797E+02  0.26000000000E-02 0.  1.
          2   -1    0    0  501    0  0.00000000000E+00 -0.00000000000E+00 -0.36997935792E+02  0.36997935883E+02  0.26000000000E-02 0. -1.
        -11    1    1    2    0    0  0.78366160273E+01  0.68509928312E+01 -0.33390960288E+02  0.34975775657E+02  0.51100000000E-03 0. -1.
         11    1    1    2    0    0 -0.78366160273E+01 -0.68509928312E+01  0.68093469685E+01  0.12438483024E+02  0.51100000000E-03 0.  1.
<mgrwt>
<rscale>  0 0.39262320E+02</rscale>
<asrwt>0</asrwt>
<pdfrwt beam="2">  1        2 0.56919901E-02 0.39262320E+02</pdfrwt>
<pdfrwt beam="1">  1       -2 0.16025112E-02 0.39262320E+02</pdfrwt>
<totfact> 0.89965634E+05</totfact>
</mgrwt>
</event>
<event>
 4    1  0.1433582E+000  0.7414417E+02  0.7818608E-02  0.1346542E+00
         -2   -1    0    0    0  501 -0.00000000000E+00  0.00000000000E+00  0.12429863684E+03  0.12429863686E+03  0.26000000000E-02 0. -1.
          2   -1    0    0  501    0  0.00000000000E+00 -0.00000000000E+00 -0.11056753111E+02  0.11056753417E+02  0.26000000000E-02 0.  1.
        -11    1    1    2    0    0  0.17610359819E+02 -0.22282681699E+02  0.13124198083E+02  0.31287173926E+02  0.51100000000E-03 0.  1.
         11    1    1    2    0    0 -0.17610359819E+02  0.22282681699E+02  0.10011768564E+03  0.10406821635E+03  0.51100000000E-03 0. -1.
<mgrwt>
<rscale>  0 0.74144167E+02</rscale>
<asrwt>0</asrwt>
<pdfrwt beam="2">  1        2 0.17010389E-02 0.74144167E+02</pdfrwt>
<pdfrwt beam="1">  1       -2 0.19122868E-01 0.74144167E+02</pdfrwt>
<totfact> 0.12528236E+05</totfact>
</mgrwt>
</event>
<event>
 4    1  0.1433582E+000  0.2367385E+02  0.7818608E-02  0.1680814E+00
         -2   -1    0    0    0  501 -0.00000000000E+00  0.00000000000E+00  0.53321441851E+01  0.53321448190E+01  0.26000000000E-02 0.  1.
          2   -1    0    0  501    0  0.00000000000E+00 -0.00000000000E+00 -0.26277000779E+02  0.26277000907E+02  0.26000000000E-02 0. -1.
        -11    1    1    2    0    0 -0.11699195319E+01 -0.11423914257E+02 -0.14304742650E+02  0.18343941540E+02  0.51100000000E-03 0. -1.
         11    1    1    2    0    0  0.11699195319E+01  0.11423914257E+02 -0.66401139432E+01  0.13265204186E+02  0.51100000000E-03 0.  1.
<mgrwt>
<rscale>  0 0.23673848E+02</rscale>
<asrwt>0</asrwt>
<pdfrwt beam="2">  1        2 0.40426155E-02 0.23673848E+02</pdfrwt>
<pdfrwt beam="1">  1       -2 0.82032995E-03 0.23673848E+02</pdfrwt>
<totfact> 0.29109747E+06</totfact>
</mgrwt>
</event>
<event>
 4    1  0.1433582E+000  0.2941278E+02  0.7818608E-02  0.1604672E+00
         -2   -1    0    0    0  501 -0.00000000000E+00  0.00000000000E+00  0.40113059573E+01  0.40113068000E+01  0.26000000000E-02 0.  1.
          2   -1    0    0  501    0  0.00000000000E+00 -0.00000000000E+00 -0.53917077696E+02  0.53917077758E+02  0.26000000000E-02 0. -1.
        -11    1    1    2    0    0  0.11767946399E+02 -0.78133213790E+00 -0.42255663024E+02  0.43870674718E+02  0.51100000000E-03 0.  1.
         11    1    1    2    0    0 -0.11767946399E+02  0.78133213790E+00 -0.76501087149E+01  0.14057709841E+02  0.51100000000E-03 0. -1.
<mgrwt>
<rscale>  0 0.29412781E+02</rscale>
<asrwt>0</asrwt>
<pdfrwt beam="2">  1        2 0.82949346E-02 0.29412781E+02</pdfrwt>
<pdfrwt beam="1">  1       -2 0.61712410E-03 0.29412781E+02</pdfrwt>
<totfact> 0.19300047E+06</totfact>
</mgrwt>
</event>
<event>
 4    1  0.1433582E+000  0.3824869E+02  0.7818608E-02  0.1521509E+00
         -2   -1    0    0    0  501 -0.00000000000E+00  0.00000000000E+00  0.92598519083E+02  0.92598519119E+02  0.26000000000E-02 0. -1.
          2   -1    0    0  501    0  0.00000000000E+00 -0.00000000000E+00 -0.39497456558E+01  0.39497465116E+01  0.26000000000E-02 0.  1.
        -11    1    1    2    0    0  0.13320695334E+02  0.12648685632E+02  0.30893601584E+02  0.35942242438E+02  0.51100000000E-03 0.  1.
         11    1    1    2    0    0 -0.13320695334E+02 -0.12648685632E+02  0.57755171843E+02  0.60606023192E+02  0.51100000000E-03 0. -1.
<mgrwt>
<rscale>  0 0.38248694E+02</rscale>
<asrwt>0</asrwt>
<pdfrwt beam="2">  1        2 0.60765326E-03 0.38248694E+02</pdfrwt>
<pdfrwt beam="1">  1       -2 0.14245926E-01 0.38248694E+02</pdfrwt>
<totfact> 0.68617654E+05</totfact>
</mgrwt>
</event>
<event>
 4    1  0.1433582E+000  0.3526842E+02  0.7818608E-02  0.1546230E+00
         -2   -1    0    0    0  501 -0.00000000000E+00  0.00000000000E+00  0.72969173321E+02  0.72969173368E+02  0.26000000000E-02 0. -1.
          2   -1    0    0  501    0  0.00000000000E+00 -0.00000000000E+00 -0.42615993246E+01  0.42616001178E+01  0.26000000000E-02 0.  1.
        -11    1    1    2    0    0 -0.16668902942E+02  0.56347008914E+01  0.31797030862E+02  0.36340794589E+02  0.51100000000E-03 0. -1.
         11    1    1    2    0    0  0.16668902942E+02 -0.56347008914E+01  0.36910543135E+02  0.40889978897E+02  0.51100000000E-03 0.  1.
<mgrwt>
<rscale>  0 0.35268423E+02</rscale>
<asrwt>0</asrwt>
<pdfrwt beam="2">  1        2 0.65563073E-03 0.35268423E+02</pdfrwt>
<pdfrwt beam="1">  1       -2 0.11226027E-01 0.35268423E+02</pdfrwt>
<totfact> 0.87495733E+05</totfact>
</mgrwt>
</event>
<event>
 4    1  0.1433582E+000  0.5422946E+02  0.7818608E-02  0.1423778E+00
          2   -1    0    0  501    0  0.00000000000E+00  0.00000000000E+00  0.69604417229E+01  0.69604422085E+01  0.26000000000E-02 0.  1.
         -2   -1    0    0    0  501 -0.00000000000E+00 -0.00000000000E+00 -0.10562670981E+03  0.10562670985E+03  0.26000000000E-02 0. -1.
        -11    1    1    2    0    0 -0.19527878434E+02 -0.18293524257E+02 -0.58434409002E+02  0.64269520160E+02  0.51100000000E-03 0. -1.
         11    1    1    2    0    0  0.19527878434E+02  0.18293524257E+02 -0.40231859088E+02  0.48317631894E+02  0.51100000000E-03 0.  1.
<mgrwt>
<rscale>  0 0.54229460E+02</rscale>
<asrwt>0</asrwt>
<pdfrwt beam="1">  1        2 0.10708373E-02 0.54229460E+02</pdfrwt>
<pdfrwt beam="2">  1       -2 0.16250262E-01 0.54229460E+02</pdfrwt>
<totfact> 0.28527729E+05</totfact>
</mgrwt>
</event>
<event>
 4    1  0.1433582E+000  0.2135467E+02  0.7818608E-02  0.1719658E+00
          2   -1    0    0  501    0  0.00000000000E+00  0.00000000000E+00  0.93500863080E+02  0.93500863116E+02  0.26000000000E-02 0.  1.
         -2   -1    0    0    0  501 -0.00000000000E+00 -0.00000000000E+00 -0.12192971381E+01  0.12192999102E+01  0.26000000000E-02 0. -1.
        -11    1    1    2    0    0  0.54737849099E+01  0.90850309441E+01  0.40698643807E+02  0.42058051744E+02  0.51100000000E-03 0.  1.
         11    1    1    2    0    0 -0.54737849099E+01 -0.90850309441E+01  0.51582922135E+02  0.52662111282E+02  0.51100000000E-03 0. -1.
<mgrwt>
<rscale>  0 0.21354669E+02</rscale>
<asrwt>0</asrwt>
<pdfrwt beam="1">  1        2 0.14384749E-01 0.21354669E+02</pdfrwt>
<pdfrwt beam="2">  1       -2 0.18758438E-03 0.21354669E+02</pdfrwt>
<totfact> 0.44930506E+06</totfact>
</mgrwt>
</event>
<event>
 4    1  0.1433582E+000  0.1349759E+03  0.7818608E-02  0.1220254E+00
          2   -1    0    0  501    0  0.00000000000E+00  0.00000000000E+00  0.10523217053E+03  0.10523217056E+03  0.26000000000E-02 0. -1.
         -2   -1    0    0    0  501 -0.00000000000E+00 -0.00000000000E+00 -0.43281637648E+02  0.43281637726E+02  0.26000000000E-02 0.  1.
        -11    1    1    2    0    0  0.51121699276E+01  0.40317210981E+02 -0.28308380972E+02  0.49527529881E+02  0.51100000000E-03 0.  1.
         11    1    1    2    0    0 -0.51121699276E+01 -0.40317210981E+02  0.90258913851E+02  0.98986278405E+02  0.51100000000E-03 0. -1.
<mgrwt>
<rscale>  0 0.13497586E+03</rscale>
<asrwt>0</asrwt>
<pdfrwt beam="1">  1        2 0.16189565E-01 0.13497586E+03</pdfrwt>
<pdfrwt beam="2">  1       -2 0.66587135E-02 0.13497586E+03</pdfrwt>
<totfact> 0.40960626E+04</totfact>
</mgrwt>
</event>
<event>
 4    1  0.1433582E+000  0.4879274E+02  0.7818608E-02  0.1451964E+00
          2   -1    0    0  501    0  0.00000000000E+00  0.00000000000E+00  0.10136611800E+02  0.10136612134E+02  0.26000000000E-02 0.  1.
         -2   -1    0    0    0  501 -0.00000000000E+00 -0.00000000000E+00 -0.58716153017E+02  0.58716153074E+02  0.26000000000E-02 0. -1.
        -11    1    1    2    0    0 -0.16981089370E+02  0.17020682741E+02 -0.30128807464E+02  0.38546155147E+02  0.51100000000E-03 0.  1.
         11    1    1    2    0    0  0.16981089370E+02 -0.17020682741E+02 -0.18450733752E+02  0.30306610061E+02  0.51100000000E-03 0. -1.
<mgrwt>
<rscale>  0 0.48792740E+02</rscale>
<asrwt>0</asrwt>
<pdfrwt beam="1">  1        2 0.15594788E-02 0.48792740E+02</pdfrwt>
<pdfrwt beam="2">  1       -2 0.90332541E-02 0.48792740E+02</pdfrwt>
<totfact> 0.42006111E+05</totfact>
</mgrwt>
</event>
<event>
 4    1  0.1433582E+000  0.3263263E+02  0.7818608E-02  0.1570688E+00
         -2   -1    0    0    0  501 -0.00000000000E+00  0.00000000000E+00  0.24363625386E+01  0.24363639259E+01  0.26000000000E-02 0. -1.
          2   -1    0    0  501    0  0.00000000000E+00 -0.00000000000E+00 -0.10927028330E+03  0.10927028334E+03  0.26000000000E-02 0.  1.
        -11    1    1    2    0    0 -0.12461252755E+02 -0.10015756040E+02 -0.42259399914E+02  0.45182464194E+02  0.51100000000E-03 0.  1.
         11    1    1    2    0    0  0.12461252755E+02  0.10015756040E+02 -0.64574520852E+02  0.66524183067E+02  0.51100000000E-03 0. -1.
<mgrwt>
<rscale>  0 0.32632628E+02</rscale>
<asrwt>0</asrwt>
<pdfrwt beam="2">  1        2 0.16810809E-01 0.32632628E+02</pdfrwt>
<pdfrwt beam="1">  1       -2 0.37482520E-03 0.32632628E+02</pdfrwt>
<totfact> 0.17492866E+06</totfact>
</mgrwt>
</event>
<event>
 4    1  0.1433582E+000  0.2210653E+02  0.7818608E-02  0.1706416E+00
          2   -1    0    0  501    0  0.00000000000E+00  0.00000000000E+00  0.19836928661E+01  0.19836945700E+01  0.26000000000E-02 0. -1.
         -2   -1    0    0    0  501 -0.00000000000E+00 -0.00000000000E+00 -0.61589491368E+02  0.61589491423E+02  0.26000000000E-02 0.  1.
        -11    1    1    2    0    0 -0.93041127975E+01 -0.53782461754E+01 -0.37236983893E+02  0.38756741563E+02  0.51100000000E-03 0.  1.
         11    1    1    2    0    0  0.93041127975E+01  0.53782461754E+01 -0.22368814609E+02  0.24816444430E+02  0.51100000000E-03 0. -1.
<mgrwt>
<rscale>  0 0.22106532E+02</rscale>
<asrwt>0</asrwt>
<pdfrwt beam="1">  1        2 0.30518370E-03 0.22106532E+02</pdfrwt>
<pdfrwt beam="2">  1       -2 0.94753051E-02 0.22106532E+02</pdfrwt>
<totfact> 0.26317686E+06</totfact>
</mgrwt>
</event>
<event>
 4    1  0.1433582E+000  0.4173456E+02  0.7818608E-02  0.1495822E+00
          2   -1    0    0  501    0  0.00000000000E+00  0.00000000000E+00  0.23206584068E+02  0.23206584213E+02  0.26000000000E-02 0. -1.
         -2   -1    0    0    0  501 -0.00000000000E+00 -0.00000000000E+00 -0.18763783852E+02  0.18763784033E+02  0.26000000000E-02 0.  1.
        -11    1    1    2    0    0 -0.78095360344E+01  0.10394763744E+02  0.18635490316E+02  0.22722708156E+02  0.51100000000E-03 0. -1.
         11    1    1    2    0    0  0.78095360344E+01 -0.10394763744E+02 -0.14192690101E+02  0.19247660090E+02  0.51100000000E-03 0.  1.
<mgrwt>
<rscale>  0 0.41734558E+02</rscale>
<asrwt>0</asrwt>
<pdfrwt beam="1">  1        2 0.35702437E-02 0.41734558E+02</pdfrwt>
<pdfrwt beam="2">  1       -2 0.28867360E-02 0.41734558E+02</pdfrwt>
<totfact> 0.72143198E+05</totfact>
</mgrwt>
</event>
<event>
 4    1  0.1433582E+000  0.2939563E+02  0.7818608E-02  0.1604867E+00
         -2   -1    0    0    0  501 -0.00000000000E+00  0.00000000000E+00  0.32895262257E+02  0.32895262360E+02  0.26000000000E-02 0.  1.
          2   -1    0    0  501    0  0.00000000000E+00 -0.00000000000E+00 -0.65670770568E+01  0.65670775715E+01  0.26000000000E-02 0. -1.
        -11    1    1    2    0    0  0.13370057703E+02  0.30237597080E+01  0.60447492896E+01  0.14981340394E+02  0.51100000000E-03 0. -1.
         11    1    1    2    0    0 -0.13370057703E+02 -0.30237597080E+01  0.20283435910E+02  0.24480999537E+02  0.51100000000E-03 0.  1.
<mgrwt>
<rscale>  0 0.29395628E+02</rscale>
<asrwt>0</asrwt>
<pdfrwt beam="2">  1        2 0.10103196E-02 0.29395628E+02</pdfrwt>
<pdfrwt beam="1">  1       -2 0.50608095E-02 0.29395628E+02</pdfrwt>
<totfact> 0.15080269E+06</totfact>
</mgrwt>
</event>
<event>
 4    1  0.1433582E+000  0.2927027E+02  0.7818608E-02  0.1606298E+00
          2   -1    0    0  501    0  0.00000000000E+00  0.00000000000E+00  0.97693133211E+02  0.97693133245E+02  0.26000000000E-02 0. -1.
         -2   -1    0    0    0  501 -0.00000000000E+00 -0.00000000000E+00 -0.21924482600E+01  0.21924498016E+01  0.26000000000E-02 0.  1.
        -11    1    1    2    0    0  0.68012955180E+01  0.11332354175E+02  0.69199733596E+02  0.70450571339E+02  0.51100000000E-03 0. -1.
         11    1    1    2    0    0 -0.68012955180E+01 -0.11332354175E+02  0.26300951354E+02  0.29435011708E+02  0.51100000000E-03 0.  1.
<mgrwt>
<rscale>  0 0.29270273E+02</rscale>
<asrwt>0</asrwt>
<pdfrwt beam="1">  1        2 0.15029712E-01 0.29270273E+02</pdfrwt>
<pdfrwt beam="2">  1       -2 0.33729988E-03 0.29270273E+02</pdfrwt>
<totfact> 0.22019993E+06</totfact>
</mgrwt>
</event>
<event>
 4    1  0.1433582E+000  0.3577013E+02  0.7818608E-02  0.1541866E+00
          2   -1    0    0  501    0  0.00000000000E+00  0.00000000000E+00  0.10173373208E+02  0.10173373541E+02  0.26000000000E-02 0. -1.
         -2   -1    0    0    0  501 -0.00000000000E+00 -0.00000000000E+00 -0.31442425516E+02  0.31442425623E+02  0.26000000000E-02 0.  1.
        -11    1    1    2    0    0  0.62207604823E+01  0.15411843953E+02 -0.29477630168E+01  0.16879339503E+02  0.51100000000E-03 0. -1.
         11    1    1    2    0    0 -0.62207604823E+01 -0.15411843953E+02 -0.18321289291E+02  0.24736459661E+02  0.51100000000E-03 0.  1.
<mgrwt>
<rscale>  0 0.35770129E+02</rscale>
<asrwt>0</asrwt>
<pdfrwt beam="1">  1        2 0.15651344E-02 0.35770129E+02</pdfrwt>
<pdfrwt beam="2">  1       -2 0.48372962E-02 0.35770129E+02</pdfrwt>
<totfact> 0.96414884E+05</totfact>
</mgrwt>
</event>
<event>
 4    1  0.1433582E+000  0.6225783E+02  0.7818608E-02  0.1388594E+00
         -2   -1    0    0    0  501 -0.00000000000E+00  0.00000000000E+00  0.74927609969E+01  0.74927614480E+01  0.26000000000E-02 0. -1.
          2   -1    0    0  501    0  0.00000000000E+00 -0.00000000000E+00 -0.12932607139E+03  0.12932607141E+03  0.26000000000E-02 0.  1.
        -11    1    1    2    0    0 -0.27148472688E+02 -0.95488211954E+01 -0.86992448119E+02  0.91629174314E+02  0.51100000000E-03 0.  1.
         11    1    1    2    0    0  0.27148472688E+02  0.95488211954E+01 -0.34840862270E+02  0.45189658546E+02  0.51100000000E-03 0. -1.
<mgrwt>
<rscale>  0 0.62257831E+02</rscale>
<asrwt>0</asrwt>
<pdfrwt beam="2">  1        2 0.19896317E-01 0.62257831E+02</pdfrwt>
<pdfrwt beam="1">  1       -2 0.11527326E-02 0.62257831E+02</pdfrwt>
<totfact> 0.36684990E+05</totfact>
</mgrwt>
</event>
<event>
 4    1  0.1433582E+000  0.5727897E+02  0.7818608E-02  0.1409619E+00
         -2   -1    0    0    0  501 -0.00000000000E+00  0.00000000000E+00  0.15543695716E+02  0.15543695933E+02  0.26000000000E-02 0. -1.
          2   -1    0    0  501    0  0.00000000000E+00 -0.00000000000E+00 -0.52768657286E+02  0.52768657350E+02  0.26000000000E-02 0.  1.
        -11    1    1    2    0    0  0.85821685464E+01 -0.11145093721E+02 -0.48364918708E+02  0.50368959617E+02  0.51100000000E-03 0.  1.
         11    1    1    2    0    0 -0.85821685464E+01  0.11145093721E+02  0.11139957137E+02  0.17943393667E+02  0.51100000000E-03 0. -1.
<mgrwt>
<rscale>  0 0.57278965E+02</rscale>
<asrwt>0</asrwt>
<pdfrwt beam="2">  1        2 0.81182549E-02 0.57278965E+02</pdfrwt>
<pdfrwt beam="1">  1       -2 0.23913378E-02 0.57278965E+02</pdfrwt>
<totfact> 0.36418733E+05</totfact>
</mgrwt>
</event>
<event>
 4    1  0.1433582E+000  0.2163772E+02  0.7818608E-02  0.1714594E+00
          2   -1    0    0  501    0  0.00000000000E+00  0.00000000000E+00  0.10602337860E+02  0.10602338178E+02  0.26000000000E-02 0. -1.
         -2   -1    0    0    0  501 -0.00000000000E+00 -0.00000000000E+00 -0.11039805098E+02  0.11039805404E+02  0.26000000000E-02 0.  1.
        -11    1    1    2    0    0 -0.51903330271E+00 -0.10786692849E+02 -0.87125629435E+00  0.10834261672E+02  0.51100000000E-03 0.  1.
         11    1    1    2    0    0  0.51903330271E+00  0.10786692849E+02  0.43378905582E+00  0.10807881911E+02  0.51100000000E-03 0. -1.
<mgrwt>
<rscale>  0 0.21637722E+02</rscale>
<asrwt>0</asrwt>
<pdfrwt beam="1">  1        2 0.16311290E-02 0.21637722E+02</pdfrwt>
<pdfrwt beam="2">  1       -2 0.16984316E-02 0.21637722E+02</pdfrwt>
<totfact> 0.33063636E+06</totfact>
</mgrwt>
</event>
<event>
 4    1  0.1433582E+000  0.3285509E+02  0.7818608E-02  0.1568517E+00
         -2   -1    0    0    0  501 -0.00000000000E+00  0.00000000000E+00  0.21484456994E+02  0.21484457152E+02  0.26000000000E-02 0. -1.
          2   -1    0    0  501    0  0.00000000000E+00 -0.00000000000E+00 -0.12560905394E+02  0.12560905664E+02  0.26000000000E-02 0.  1.
        -11    1    1    2    0    0 -0.16216149786E+02 -0.25945833235E+01  0.48875914268E+01  0.17134290960E+02  0.51100000000E-03 0. -1.
         11    1    1    2    0    0  0.16216149786E+02  0.25945833235E+01  0.40359601732E+01  0.16911071855E+02  0.51100000000E-03 0.  1.
<mgrwt>
<rscale>  0 0.32855090E+02</rscale>
<asrwt>0</asrwt>
<pdfrwt beam="2">  1        2 0.19324470E-02 0.32855090E+02</pdfrwt>
<pdfrwt beam="1">  1       -2 0.33053011E-02 0.32855090E+02</pdfrwt>
<totfact> 0.12266307E+06</totfact>
</mgrwt>
</event>
<event>
 4    1  0.1433582E+000  0.3827228E+02  0.7818608E-02  0.1521325E+00
          2   -1    0    0  501    0  0.00000000000E+00  0.00000000000E+00  0.16742740050E+02  0.16742740252E+02  0.26000000000E-02 0.  1.
         -2   -1    0    0    0  501 -0.00000000000E+00 -0.00000000000E+00 -0.21871677059E+02  0.21871677214E+02  0.26000000000E-02 0. -1.
        -11    1    1    2    0    0 -0.16122646305E+02 -0.71079163656E+01 -0.10096431618E+02  0.20307637249E+02  0.51100000000E-03 0. -1.
         11    1    1    2    0    0  0.16122646305E+02  0.71079163656E+01  0.49674946088E+01  0.18306780217E+02  0.51100000000E-03 0.  1.
<mgrwt>
<rscale>  0 0.38272278E+02</rscale>
<asrwt>0</asrwt>
<pdfrwt beam="1">  1        2 0.25758062E-02 0.38272278E+02</pdfrwt>
<pdfrwt beam="2">  1       -2 0.33648734E-02 0.38272278E+02</pdfrwt>
<totfact> 0.86257241E+05</totfact>
</mgrwt>
</event>
<event>
 4    1  0.1433582E+000  0.2637325E+02  0.7818608E-02  0.1642026E+00
          2   -1    0    0  501    0  0.00000000000E+00  0.00000000000E+00  0.20400146539E+01  0.20400163108E+01  0.26000000000E-02 0. -1.
         -2   -1    0    0    0  501 -0.00000000000E+00 -0.00000000000E+00 -0.85238107230E+02  0.85238107270E+02  0.26000000000E-02 0.  1.
        -11    1    1    2    0    0 -0.12858138839E+02  0.28738279656E+01 -0.39797231341E+02  0.41921477124E+02  0.51100000000E-03 0.  1.
         11    1    1    2    0    0  0.12858138839E+02 -0.28738279656E+01 -0.43400861235E+02  0.45356646457E+02  0.51100000000E-03 0. -1.
<mgrwt>
<rscale>  0 0.26373249E+02</rscale>
<asrwt>0</asrwt>
<pdfrwt beam="1">  1        2 0.31384860E-03 0.26373249E+02</pdfrwt>
<pdfrwt beam="2">  1       -2 0.13113552E-01 0.26373249E+02</pdfrwt>
<totfact> 0.16634095E+06</totfact>
</mgrwt>
</event>
<event>
 4    1  0.1433582E+000  0.2250627E+02  0.7818608E-02  0.1699641E+00
          2   -1    0    0  501    0  0.00000000000E+00  0.00000000000E+00  0.59957971689E+01  0.59957977326E+01  0.26000000000E-02 0. -1.
         -2   -1    0    0    0  501 -0.00000000000E+00 -0.00000000000E+00 -0.21120309783E+02  0.21120309943E+02  0.26000000000E-02 0.  1.
        -11    1    1    2    0    0 -0.98337924812E+01 -0.52608747752E+01 -0.93706270641E+01  0.14566706210E+02  0.51100000000E-03 0. -1.
         11    1    1    2    0    0  0.98337924812E+01  0.52608747752E+01 -0.57538855495E+01  0.12549401466E+02  0.51100000000E-03 0.  1.
<mgrwt>
<rscale>  0 0.22506275E+02</rscale>
<asrwt>0</asrwt>
<pdfrwt beam="1">  1        2 0.92243040E-03 0.22506275E+02</pdfrwt>
<pdfrwt beam="2">  1       -2 0.32492784E-02 0.22506275E+02</pdfrwt>
<totfact> 0.28768750E+06</totfact>
</mgrwt>
</event>
<event>
 4    1  0.1433582E+000  0.7293578E+02  0.7818608E-02  0.1350385E+00
          2   -1    0    0  501    0  0.00000000000E+00  0.00000000000E+00  0.23925702521E+02  0.23925702662E+02  0.26000000000E-02 0.  1.
         -2   -1    0    0    0  501 -0.00000000000E+00 -0.00000000000E+00 -0.55584866636E+02  0.55584866697E+02  0.26000000000E-02 0. -1.
        -11    1    1    2    0    0  0.39176693718E+01 -0.34311433357E+02 -0.28602638370E+02  0.44841203310E+02  0.51100000000E-03 0.  1.
         11    1    1    2    0    0 -0.39176693718E+01  0.34311433357E+02 -0.30565257459E+01  0.34669366049E+02  0.51100000000E-03 0. -1.
<mgrwt>
<rscale>  0 0.72935780E+02</rscale>
<asrwt>0</asrwt>
<pdfrwt beam="1">  1        2 0.36808774E-02 0.72935780E+02</pdfrwt>
<pdfrwt beam="2">  1       -2 0.85515179E-02 0.72935780E+02</pdfrwt>
<totfact> 0.16047809E+05</totfact>
</mgrwt>
</event>
<event>
 4    1  0.1433582E+000  0.2362497E+02  0.7818608E-02  0.1681575E+00
         -2   -1    0    0    0  501 -0.00000000000E+00  0.00000000000E+00  0.12313778319E+02  0.12313778593E+02  0.26000000000E-02 0. -1.
          2   -1    0    0  501    0  0.00000000000E+00 -0.00000000000E+00 -0.11331600773E+02  0.11331601072E+02  0.26000000000E-02 0.  1.
        -11    1    1    2    0    0  0.10703357634E+02 -0.33464890258E+01  0.42056250234E+01  0.11976983574E+02  0.51100000000E-03 0. -1.
         11    1    1    2    0    0 -0.10703357634E+02  0.33464890258E+01 -0.32234474777E+01  0.11668396091E+02  0.51100000000E-03 0.  1.
<mgrwt>
<rscale>  0 0.23624972E+02</rscale>
<asrwt>0</asrwt>
<pdfrwt beam="2">  1        2 0.17433233E-02 0.23624972E+02</pdfrwt>
<pdfrwt beam="1">  1       -2 0.18944275E-02 0.23624972E+02</pdfrwt>
<totfact> 0.27070909E+06</totfact>
</mgrwt>
</event>
<event>
 4    1  0.1433582E+000  0.3879728E+02  0.7818608E-02  0.1517253E+00
          2   -1    0    0  501    0  0.00000000000E+00  0.00000000000E+00  0.73642616712E+02  0.73642616758E+02  0.26000000000E-02 0.  1.
         -2   -1    0    0    0  501 -0.00000000000E+00 -0.00000000000E+00 -0.51099101624E+01  0.51099108239E+01  0.26000000000E-02 0. -1.
        -11    1    1    2    0    0  0.15527582174E+02 -0.92653462984E+01  0.20006086359E+02  0.26966570822E+02  0.51100000000E-03 0. -1.
         11    1    1    2    0    0 -0.15527582174E+02  0.92653462984E+01  0.48526620191E+02  0.51785956760E+02  0.51100000000E-03 0.  1.
<mgrwt>
<rscale>  0 0.38797277E+02</rscale>
<asrwt>0</asrwt>
<pdfrwt beam="1">  1        2 0.11329633E-01 0.38797277E+02</pdfrwt>
<pdfrwt beam="2">  1       -2 0.78614014E-03 0.38797277E+02</pdfrwt>
<totfact> 0.10490661E+06</totfact>
</mgrwt>
</event>
<event>
 4    1  0.1433582E+000  0.2888602E+02  0.7818608E-02  0.1610739E+00
          2   -1    0    0  501    0  0.00000000000E+00  0.00000000000E+00  0.25503582291E+02  0.25503582424E+02  0.26000000000E-02 0.  1.
         -2   -1    0    0    0  501 -0.00000000000E+00 -0.00000000000E+00 -0.81792666167E+01  0.81792670300E+01  0.26000000000E-02 0. -1.
        -11    1    1    2    0    0 -0.11445312288E+02 -0.28209120848E+01  0.18393551122E+02  0.21846634558E+02  0.51100000000E-03 0.  1.
         11    1    1    2    0    0  0.11445312288E+02  0.28209120848E+01 -0.10692354478E+01  0.11836214896E+02  0.51100000000E-03 0. -1.
<mgrwt>
<rscale>  0 0.28886025E+02</rscale>
<asrwt>0</asrwt>
<pdfrwt beam="1">  1        2 0.39236281E-02 0.28886025E+02</pdfrwt>
<pdfrwt beam="2">  1       -2 0.12583487E-02 0.28886025E+02</pdfrwt>
<totfact> 0.18156260E+06</totfact>
</mgrwt>
</event>
<event>
 4    1  0.1433582E+000  0.5377214E+02  0.7818608E-02  0.1425996E+00
          2   -1    0    0  501    0  0.00000000000E+00  0.00000000000E+00  0.78852351419E+02  0.78852351462E+02  0.26000000000E-02 0. -1.
         -2   -1    0    0    0  501 -0.00000000000E+00 -0.00000000000E+00 -0.91672697555E+01  0.91672701242E+01  0.26000000000E-02 0.  1.
        -11    1    1    2    0    0 -0.23368329447E+01 -0.12869260166E+02  0.73293394755E+02  0.74451328802E+02  0.51100000000E-03 0. -1.
         11    1    1    2    0    0  0.23368329447E+01  0.12869260166E+02 -0.36083130915E+01  0.13568292784E+02  0.51100000000E-03 0.  1.
<mgrwt>
<rscale>  0 0.53772141E+02</rscale>
<asrwt>0</asrwt>
<pdfrwt beam="1">  1        2 0.12131131E-01 0.53772141E+02</pdfrwt>
<pdfrwt beam="2">  1       -2 0.14103492E-02 0.53772141E+02</pdfrwt>
<totfact> 0.46879721E+05</totfact>
</mgrwt>
</event>
<event>
 4    1  0.1433582E+000  0.2828100E+02  0.7818608E-02  0.1617906E+00
          2   -1    0    0  501    0  0.00000000000E+00  0.00000000000E+00  0.43736143342E+02  0.43736143420E+02  0.26000000000E-02 0. -1.
         -2   -1    0    0    0  501 -0.00000000000E+00 -0.00000000000E+00 -0.45718176874E+01  0.45718184267E+01  0.26000000000E-02 0.  1.
        -11    1    1    2    0    0  0.10927846503E+02  0.23770653437E+01  0.34363803853E+02  0.36137781951E+02  0.51100000000E-03 0. -1.
         11    1    1    2    0    0 -0.10927846503E+02 -0.23770653437E+01  0.48005218018E+01  0.12170179895E+02  0.51100000000E-03 0.  1.
<mgrwt>
<rscale>  0 0.28280997E+02</rscale>
<asrwt>0</asrwt>
<pdfrwt beam="1">  1        2 0.67286375E-02 0.28280997E+02</pdfrwt>
<pdfrwt beam="2">  1       -2 0.70335663E-03 0.28280997E+02</pdfrwt>
<totfact> 0.20482548E+06</totfact>
</mgrwt>
</event>
<event>
 4    1  0.1433582E+000  0.7423071E+02  0.7818608E-02  0.1346270E+00
          2   -1    0    0  501    0  0.00000000000E+00  0.00000000000E+00  0.10439228599E+02  0.10439228922E+02  0.26000000000E-02 0.  1.
         -2   -1    0    0    0  501 -0.00000000000E+00 -0.00000000000E+00 -0.13195894701E+03  0.13195894704E+03  0.26000000000E-02 0. -1.
        -11    1    1    2    0    0 -0.36347501905E+02 -0.31776401063E+01 -0.47705231016E+02  0.60058532765E+02  0.51100000000E-03 0.  1.
         11    1    1    2    0    0  0.36347501905E+02  0.31776401063E+01 -0.73814487396E+02  0.82339643193E+02  0.51100000000E-03 0. -1.
<mgrwt>
<rscale>  0 0.74230712E+02</rscale>
<asrwt>0</asrwt>
<pdfrwt beam="1">  1        2 0.16060353E-02 0.74230712E+02</pdfrwt>
<pdfrwt beam="2">  1       -2 0.20301375E-01 0.74230712E+02</pdfrwt>
<totfact> 0.12256871E+05</totfact>
</mgrwt>
</event>
<event>
 4    1  0.1433582E+000  0.5779658E+02  0.7818608E-02  0.1407318E+00
          2   -1    0    0  501    0  0.00000000000E+00  0.00000000000E+00  0.37080528784E+02  0.37080528875E+02  0.26000000000E-02 0. -1.
         -2   -1    0    0    0  501 -0.00000000000E+00 -0.00000000000E+00 -0.22521556732E+02  0.22521556882E+02  0.26000000000E-02 0.  1.
        -11    1    1    2    0    0  0.28675128683E+02 -0.35831604412E+01  0.71805953640E+01  0.29776886905E+02  0.51100000000E-03 0. -1.
         11    1    1    2    0    0 -0.28675128683E+02  0.35831604412E+01  0.73783766880E+01  0.29825198851E+02  0.51100000000E-03 0.  1.
<mgrwt>
<rscale>  0 0.57796583E+02</rscale>
<asrwt>0</asrwt>
<pdfrwt beam="1">  1        2 0.57046967E-02 0.57796583E+02</pdfrwt>
<pdfrwt beam="2">  1       -2 0.34648549E-02 0.57796583E+02</pdfrwt>
<totfact> 0.33213088E+05</totfact>
</mgrwt>
</event>
<event>
 4    1  0.1433582E+000  0.6553065E+02  0.7818608E-02  0.1375986E+00
         -2   -1    0    0    0  501 -0.00000000000E+00  0.00000000000E+00  0.26020645389E+03  0.26020645390E+03  0.26000000000E-02 0.  1.
          2   -1    0    0  501    0  0.00000000000E+00 -0.00000000000E+00 -0.41258252254E+01  0.41258260446E+01  0.26000000000E-02 0. -1.
        -11    1    1    2    0    0 -0.23336629771E+02  0.19298257781E+02  0.77571172571E+02  0.83272491597E+02  0.51100000000E-03 0. -1.
         11    1    1    2    0    0  0.23336629771E+02 -0.19298257781E+02  0.17850945609E+03  0.18105978835E+03  0.51100000000E-03 0.  1.
<mgrwt>
<rscale>  0 0.65530648E+02</rscale>
<asrwt>0</asrwt>
<pdfrwt beam="2">  1        2 0.63474215E-03 0.65530648E+02</pdfrwt>
<pdfrwt beam="1">  1       -2 0.40031778E-01 0.65530648E+02</pdfrwt>
<totfact> 0.12760237E+05</totfact>
</mgrwt>
</event>
<event>
 4    1  0.1433582E+000  0.3018974E+02  0.7818608E-02  0.1596001E+00
          2   -1    0    0  501    0  0.00000000000E+00  0.00000000000E+00  0.39253649866E+02  0.39253649952E+02  0.26000000000E-02 0.  1.
         -2   -1    0    0    0  501 -0.00000000000E+00 -0.00000000000E+00 -0.58046850842E+01  0.58046856665E+01  0.26000000000E-02 0. -1.
        -11    1    1    2    0    0  0.13894933112E+02  0.53506406510E+01  0.13021214230E+02  0.19780054142E+02  0.51100000000E-03 0. -1.
         11    1    1    2    0    0 -0.13894933112E+02 -0.53506406510E+01  0.20427750551E+02  0.25278281477E+02  0.51100000000E-03 0.  1.
<mgrwt>
<rscale>  0 0.30189739E+02</rscale>
<asrwt>0</asrwt>
<pdfrwt beam="1">  1        2 0.60390229E-02 0.30189739E+02</pdfrwt>
<pdfrwt beam="2">  1       -2 0.89302855E-03 0.30189739E+02</pdfrwt>
<totfact> 0.17259250E+06</totfact>
</mgrwt>
</event>
<event>
 4    1  0.1433582E+000  0.4507718E+02  0.7818608E-02  0.1473860E+00
         -2   -1    0    0    0  501 -0.00000000000E+00  0.00000000000E+00  0.15482185088E+02  0.15482185306E+02  0.26000000000E-02 0. -1.
          2   -1    0    0  501    0  0.00000000000E+00 -0.00000000000E+00 -0.32811125733E+02  0.32811125836E+02  0.26000000000E-02 0.  1.
        -11    1    1    2    0    0 -0.43576589989E+01 -0.21835664060E+02 -0.12406910917E+02  0.25489544045E+02  0.51100000000E-03 0.  1.
         11    1    1    2    0    0  0.43576589989E+01  0.21835664060E+02 -0.49220297285E+01  0.22803767097E+02  0.51100000000E-03 0. -1.
<mgrwt>
<rscale>  0 0.45077175E+02</rscale>
<asrwt>0</asrwt>
<pdfrwt beam="2">  1        2 0.50478655E-02 0.45077175E+02</pdfrwt>
<pdfrwt beam="1">  1       -2 0.23818747E-02 0.45077175E+02</pdfrwt>
<totfact> 0.62275182E+05</totfact>
</mgrwt>
</event>
<event>
 4    1  0.1433582E+000  0.5844046E+02  0.7818608E-02  0.1404495E+00
         -2   -1    0    0    0  501 -0.00000000000E+00  0.00000000000E+00  0.13890674754E+02  0.13890674997E+02  0.26000000000E-02 0.  1.
          2   -1    0    0  501    0  0.00000000000E+00 -0.00000000000E+00 -0.61467264112E+02  0.61467264167E+02  0.26000000000E-02 0. -1.
        -11    1    1    2    0    0  0.25464071565E+02 -0.54053036758E+01 -0.40904225722E+02  0.48484966027E+02  0.51100000000E-03 0. -1.
         11    1    1    2    0    0 -0.25464071565E+02  0.54053036758E+01 -0.66723636366E+01  0.26872973138E+02  0.51100000000E-03 0.  1.
<mgrwt>
<rscale>  0 0.58440458E+02</rscale>
<asrwt>0</asrwt>
<pdfrwt beam="2">  1        2 0.94565020E-02 0.58440458E+02</pdfrwt>
<pdfrwt beam="1">  1       -2 0.21370269E-02 0.58440458E+02</pdfrwt>
<totfact> 0.35687752E+05</totfact>
</mgrwt>
</event>
<event>
 4    1  0.1433582E+000  0.3003042E+02  0.7818608E-02  0.1597753E+00
          2   -1    0    0  501    0  0.00000000000E+00  0.00000000000E+00  0.11033913637E+03  0.11033913640E+03  0.26000000000E-02 0.  1.
         -2   -1    0    0    0  501 -0.00000000000E+00 -0.00000000000E+00 -0.20433046272E+01  0.20433062814E+01  0.26000000000E-02 0. -1.
        -11    1    1    2    0    0 -0.14696823724E+02 -0.11936925952E+01  0.43539980716E+02  0.45969027079E+02  0.51100000000E-03 0.  1.
         11    1    1    2    0    0  0.14696823724E+02  0.11936925952E+01  0.64755851027E+02  0.66413415603E+02  0.51100000000E-03 0. -1.
<mgrwt>
<rscale>  0 0.30030422E+02</rscale>
<asrwt>0</asrwt>
<pdfrwt beam="1">  1        2 0.16975251E-01 0.30030422E+02</pdfrwt>
<pdfrwt beam="2">  1       -2 0.31435471E-03 0.30030422E+02</pdfrwt>
<totfact> 0.21356033E+06</totfact>
</mgrwt>
</event>
<event>
 4    1  0.1433582E+000  0.5045910E+02  0.7818608E-02  0.1442881E+00
          2   -1    0    0  501    0  0.00000000000E+00  0.00000000000E+00  0.11503806857E+02  0.11503807150E+02  0.26000000000E-02 0.  1.
         -2   -1    0    0    0  501 -0.00000000000E+00 -0.00000000000E+00 -0.55332128031E+02  0.55332128092E+02  0.26000000000E-02 0. -1.
        -11    1    1    2    0    0  0.15394257072E+02  0.75932411049E+01  0.25772352932E+01  0.17357494153E+02  0.51100000000E-03 0.  1.
         11    1    1    2    0    0 -0.15394257072E+02 -0.75932411049E+01 -0.46405556467E+02  0.49478441089E+02  0.51100000000E-03 0. -1.
<mgrwt>
<rscale>  0 0.50459097E+02</rscale>
<asrwt>0</asrwt>
<pdfrwt beam="1">  1        2 0.17698165E-02 0.50459097E+02</pdfrwt>
<pdfrwt beam="2">  1       -2 0.85126349E-02 0.50459097E+02</pdfrwt>
<totfact> 0.39169548E+05</totfact>
</mgrwt>
</event>
<event>
 4    1  0.1433582E+000  0.2279409E+02  0.7818608E-02  0.1694870E+00
          2   -1    0    0  501    0  0.00000000000E+00  0.00000000000E+00  0.16714738126E+02  0.16714738328E+02  0.26000000000E-02 0. -1.
         -2   -1    0    0    0  501 -0.00000000000E+00 -0.00000000000E+00 -0.77711451020E+01  0.77711455370E+01  0.26000000000E-02 0.  1.
        -11    1    1    2    0    0  0.94841250727E-01 -0.10671885297E+02  0.17564835102E+00  0.10673752071E+02  0.51100000000E-03 0.  1.
         11    1    1    2    0    0 -0.94841250727E-01  0.10671885297E+02  0.87679446729E+01  0.13812131795E+02  0.51100000000E-03 0. -1.
<mgrwt>
<rscale>  0 0.22794092E+02</rscale>
<asrwt>0</asrwt>
<pdfrwt beam="1">  1        2 0.25714982E-02 0.22794092E+02</pdfrwt>
<pdfrwt beam="2">  1       -2 0.11955608E-02 0.22794092E+02</pdfrwt>
<totfact> 0.30419142E+06</totfact>
</mgrwt>
</event>
<event>
 4    1  0.1433582E+000  0.3296312E+02  0.7818608E-02  0.1567470E+00
         -2   -1    0    0    0  501 -0.00000000000E+00  0.00000000000E+00  0.82184174378E+02  0.82184174419E+02  0.26000000000E-02 0.  1.
          2   -1    0    0  501    0  0.00000000000E+00 -0.00000000000E+00 -0.33052817353E+01  0.33052827579E+01  0.26000000000E-02 0. -1.
        -11    1    1    2    0    0 -0.13057664293E+02 -0.14162944173E+01  0.65261703839E+02  0.66570252177E+02  0.51100000000E-03 0.  1.
         11    1    1    2    0    0  0.13057664293E+02  0.14162944173E+01  0.13617188804E+02  0.18919205001E+02  0.51100000000E-03 0. -1.
<mgrwt>
<rscale>  0 0.32963125E+02</rscale>
<asrwt>0</asrwt>
<pdfrwt beam="2">  1        2 0.50850500E-03 0.32963125E+02</pdfrwt>
<pdfrwt beam="1">  1       -2 0.12643718E-01 0.32963125E+02</pdfrwt>
<totfact> 0.10010831E+06</totfact>
</mgrwt>
</event>
<event>
 4    1  0.1433582E+000  0.2423803E+02  0.7818608E-02  0.1672194E+00
         -2   -1    0    0    0  501 -0.00000000000E+00  0.00000000000E+00  0.28182740424E+02  0.28182740544E+02  0.26000000000E-02 0.  1.
          2   -1    0    0  501    0  0.00000000000E+00 -0.00000000000E+00 -0.52113617131E+01  0.52113623617E+01  0.26000000000E-02 0. -1.
        -11    1    1    2    0    0 -0.94330478387E+01  0.72843838094E+01  0.84590653964E+01  0.14615075321E+02  0.51100000000E-03 0. -1.
         11    1    1    2    0    0  0.94330478387E+01 -0.72843838094E+01  0.14512313315E+02  0.18779027584E+02  0.51100000000E-03 0.  1.
<mgrwt>
<rscale>  0 0.24238025E+02</rscale>
<asrwt>0</asrwt>
<pdfrwt beam="2">  1        2 0.80174802E-03 0.24238025E+02</pdfrwt>
<pdfrwt beam="1">  1       -2 0.43358063E-02 0.24238025E+02</pdfrwt>
<totfact> 0.23737291E+06</totfact>
</mgrwt>
</event>
<event>
 4    1  0.1433582E+000  0.2900631E+02  0.7818608E-02  0.1609340E+00
          2   -1    0    0  501    0  0.00000000000E+00  0.00000000000E+00  0.36039724621E+02  0.36039724714E+02  0.26000000000E-02 0. -1.
         -2   -1    0    0    0  501 -0.00000000000E+00 -0.00000000000E+00 -0.58363771800E+01  0.58363777591E+01  0.26000000000E-02 0.  1.
        -11    1    1    2    0    0  0.46812957768E+01 -0.99269717075E+01  0.28788745504E+02  0.30809919919E+02  0.51100000000E-03 0. -1.
         11    1    1    2    0    0 -0.46812957768E+01  0.99269717075E+01  0.14146019362E+01  0.11066182555E+02  0.51100000000E-03 0.  1.
<mgrwt>
<rscale>  0 0.29006306E+02</rscale>
<asrwt>0</asrwt>
<pdfrwt beam="1">  1        2 0.55445729E-02 0.29006306E+02</pdfrwt>
<pdfrwt beam="2">  1       -2 0.89790426E-03 0.29006306E+02</pdfrwt>
<totfact> 0.18765063E+06</totfact>
</mgrwt>
</event>
<event>
 4    1  0.1433582E+000  0.2632206E+02  0.7818608E-02  0.1642708E+00
          2   -1    0    0  501    0  0.00000000000E+00  0.00000000000E+00  0.23341843095E+02  0.23341843240E+02  0.26000000000E-02 0. -1.
         -2   -1    0    0    0  501 -0.00000000000E+00 -0.00000000000E+00 -0.74206960380E+01  0.74206964935E+01  0.26000000000E-02 0.  1.
        -11    1    1    2    0    0 -0.69176344233E+01  0.10298613166E+02  0.13094555046E+02  0.18038361103E+02  0.51100000000E-03 0.  1.
         11    1    1    2    0    0  0.69176344233E+01 -0.10298613166E+02  0.28265920111E+01  0.12724178630E+02  0.51100000000E-03 0. -1.
<mgrwt>
<rscale>  0 0.26322062E+02</rscale>
<asrwt>0</asrwt>
<pdfrwt beam="1">  1        2 0.35910528E-02 0.26322062E+02</pdfrwt>
<pdfrwt beam="2">  1       -2 0.11416456E-02 0.26322062E+02</pdfrwt>
<totfact> 0.22429411E+06</totfact>
</mgrwt>
</event>
<event>
 4    1  0.1433582E+000  0.3376375E+02  0.7818608E-02  0.1559861E+00
          2   -1    0    0  501    0  0.00000000000E+00  0.00000000000E+00  0.10998448871E+02  0.10998449179E+02  0.26000000000E-02 0.  1.
         -2   -1    0    0    0  501 -0.00000000000E+00 -0.00000000000E+00 -0.25912528668E+02  0.25912528799E+02  0.26000000000E-02 0. -1.
        -11    1    1    2    0    0  0.15637661037E+01  0.16368953936E+02 -0.32785026743E+01  0.16767128479E+02  0.51100000000E-03 0.  1.
         11    1    1    2    0    0 -0.15637661037E+01 -0.16368953936E+02 -0.11635577123E+02  0.20143849499E+02  0.51100000000E-03 0. -1.
<mgrwt>
<rscale>  0 0.33763746E+02</rscale>
<asrwt>0</asrwt>
<pdfrwt beam="1">  1        2 0.16920691E-02 0.33763746E+02</pdfrwt>
<pdfrwt beam="2">  1       -2 0.39865429E-02 0.33763746E+02</pdfrwt>
<totfact> 0.11279716E+06</totfact>
</mgrwt>
</event>
<event>
 4    1  0.1433582E+000  0.2508418E+02  0.7818608E-02  0.1659796E+00
         -2   -1    0    0    0  501 -0.00000000000E+00  0.00000000000E+00  0.20176710100E+01  0.20176726852E+01  0.26000000000E-02 0. -1.
          2   -1    0    0  501    0  0.00000000000E+00 -0.00000000000E+00 -0.77963127810E+02  0.77963127853E+02  0.26000000000E-02 0.  1.
        -11    1    1    2    0    0 -0.11623134726E+02  0.45596959906E+01 -0.41766801160E+02  0.43593047241E+02  0.51100000000E-03 0. -1.
         11    1    1    2    0    0  0.11623134726E+02 -0.45596959906E+01 -0.34178655641E+02  0.36387753298E+02  0.51100000000E-03 0.  1.
<mgrwt>
<rscale>  0 0.25084179E+02</rscale>
<asrwt>0</asrwt>
<pdfrwt beam="2">  1        2 0.11994325E-01 0.25084179E+02</pdfrwt>
<pdfrwt beam="1">  1       -2 0.31041112E-03 0.25084179E+02</pdfrwt>
<totfact> 0.30000402E+06</totfact>
</mgrwt>
</event>
<event>
 4    1  0.1433582E+000  0.4520307E+02  0.7818608E-02  0.1473078E+00
          2   -1    0    0  501    0  0.00000000000E+00  0.00000000000E+00  0.25023825045E+02  0.25023825180E+02  0.26000000000E-02 0.  1.
         -2   -1    0    0    0  501 -0.00000000000E+00 -0.00000000000E+00 -0.20413723875E+02  0.20413724040E+02  0.26000000000E-02 0. -1.
        -11    1    1    2    0    0  0.21435680336E+02 -0.68207221845E+01  0.45116181522E+01  0.22942653316E+02  0.51100000000E-03 0.  1.
         11    1    1    2    0    0 -0.21435680336E+02  0.68207221845E+01  0.98483017695E-01  0.22494895904E+02  0.51100000000E-03 0. -1.
<mgrwt>
<rscale>  0 0.45203073E+02</rscale>
<asrwt>0</asrwt>
<pdfrwt beam="1">  1        2 0.38498192E-02 0.45203073E+02</pdfrwt>
<pdfrwt beam="2">  1       -2 0.31405729E-02 0.45203073E+02</pdfrwt>
<totfact> 0.59364175E+05</totfact>
</mgrwt>
</event>
<event>
 4    1  0.1433582E+000  0.1437403E+03  0.7818608E-02  0.1208383E+00
         -2   -1    0    0    0  501 -0.00000000000E+00  0.00000000000E+00  0.29595030860E+02  0.29595030974E+02  0.26000000000E-02 0. -1.
          2   -1    0    0  501    0  0.00000000000E+00 -0.00000000000E+00 -0.17453318278E+03  0.17453318280E+03  0.26000000000E-02 0.  1.
        -11    1    1    2    0    0 -0.46030824733E+02 -0.30248870285E+02 -0.69050413182E+01  0.55511355370E+02  0.51100000000E-03 0. -1.
         11    1    1    2    0    0  0.46030824733E+02  0.30248870285E+02 -0.13803311060E+03  0.14861685841E+03  0.51100000000E-03 0.  1.
<mgrwt>
<rscale>  0 0.14374025E+03</rscale>
<asrwt>0</asrwt>
<pdfrwt beam="2">  1        2 0.26851258E-01 0.14374025E+03</pdfrwt>
<pdfrwt beam="1">  1       -2 0.45530818E-02 0.14374025E+03</pdfrwt>
<totfact> 0.41416970E+04</totfact>
</mgrwt>
</event>
<event>
 4    1  0.1433582E+000  0.2244466E+02  0.7818608E-02  0.1700673E+00
         -2   -1    0    0    0  501 -0.00000000000E+00  0.00000000000E+00  0.18407809865E+01  0.18407828227E+01  0.26000000000E-02 0.  1.
          2   -1    0    0  501    0  0.00000000000E+00 -0.00000000000E+00 -0.68416981810E+02  0.68416981860E+02  0.26000000000E-02 0. -1.
        -11    1    1    2    0    0 -0.76310406801E+01  0.65753233157E+01 -0.17802588135E+02  0.20454823469E+02  0.51100000000E-03 0.  1.
         11    1    1    2    0    0  0.76310406801E+01 -0.65753233157E+01 -0.48773612689E+02  0.49802941214E+02  0.51100000000E-03 0. -1.
<mgrwt>
<rscale>  0 0.22444665E+02</rscale>
<asrwt>0</asrwt>
<pdfrwt beam="2">  1        2 0.10525688E-01 0.22444665E+02</pdfrwt>
<pdfrwt beam="1">  1       -2 0.28319727E-03 0.22444665E+02</pdfrwt>
<totfact> 0.37692696E+06</totfact>
</mgrwt>
</event>
<event>
 4    1  0.1433582E+000  0.3694276E+02  0.7818608E-02  0.1531995E+00
         -2   -1    0    0    0  501 -0.00000000000E+00  0.00000000000E+00  0.23673974481E+01  0.23673988758E+01  0.26000000000E-02 0. -1.
          2   -1    0    0  501    0  0.00000000000E+00 -0.00000000000E+00 -0.14412104247E+03  0.14412104249E+03  0.26000000000E-02 0.  1.
        -11    1    1    2    0    0  0.14783978841E+02  0.10008241104E+02 -0.52084160593E+02  0.55058974794E+02  0.51100000000E-03 0. -1.
         11    1    1    2    0    0 -0.14783978841E+02 -0.10008241104E+02 -0.89669484428E+02  0.91429466575E+02  0.51100000000E-03 0.  1.
<mgrwt>
<rscale>  0 0.36942761E+02</rscale>
<asrwt>0</asrwt>
<pdfrwt beam="2">  1        2 0.22172461E-01 0.36942761E+02</pdfrwt>
<pdfrwt beam="1">  1       -2 0.36421521E-03 0.36942761E+02</pdfrwt>
<totfact> 0.14001584E+06</totfact>
</mgrwt>
</event>
<event>
 4    1  0.1433582E+000  0.2802046E+02  0.7818608E-02  0.1621060E+00
         -2   -1    0    0    0  501 -0.00000000000E+00  0.00000000000E+00  0.56577392407E+02  0.56577392467E+02  0.26000000000E-02 0.  1.
          2   -1    0    0  501    0  0.00000000000E+00 -0.00000000000E+00 -0.34693455859E+01  0.34693465602E+01  0.26000000000E-02 0. -1.
        -11    1    1    2    0    0 -0.96048619831E+01  0.50864886049E+01  0.76084088231E+01  0.13267012668E+02  0.51100000000E-03 0. -1.
         11    1    1    2    0    0  0.96048619831E+01 -0.50864886049E+01  0.45499637998E+02  0.46779726359E+02  0.51100000000E-03 0.  1.
<mgrwt>
<rscale>  0 0.28020461E+02</rscale>
<asrwt>0</asrwt>
<pdfrwt beam="2">  1        2 0.53374559E-03 0.28020461E+02</pdfrwt>
<pdfrwt beam="1">  1       -2 0.87042137E-02 0.28020461E+02</pdfrwt>
<totfact> 0.15625447E+06</totfact>
</mgrwt>
</event>
<event>
 4    1  0.1433582E+000  0.2311231E+02  0.7818608E-02  0.1689696E+00
         -2   -1    0    0    0  501 -0.00000000000E+00  0.00000000000E+00  0.24384488798E+01  0.24384502659E+01  0.26000000000E-02 0. -1.
          2   -1    0    0  501    0  0.00000000000E+00 -0.00000000000E+00 -0.54766225825E+02  0.54766225887E+02  0.26000000000E-02 0.  1.
        -11    1    1    2    0    0 -0.10433873224E+02 -0.18638704292E+01 -0.37561319175E+02  0.39028097851E+02  0.51100000000E-03 0.  1.
         11    1    1    2    0    0  0.10433873224E+02  0.18638704292E+01 -0.14766457770E+02  0.18176578302E+02  0.51100000000E-03 0. -1.
<mgrwt>
<rscale>  0 0.23112307E+02</rscale>
<asrwt>0</asrwt>
<pdfrwt beam="2">  1        2 0.84255724E-02 0.23112307E+02</pdfrwt>
<pdfrwt beam="1">  1       -2 0.37514613E-03 0.23112307E+02</pdfrwt>
<totfact> 0.33913372E+06</totfact>
</mgrwt>
</event>
<event>
 4    1  0.1433582E+000  0.2139470E+02  0.7818608E-02  0.1718935E+00
         -2   -1    0    0    0  501 -0.00000000000E+00  0.00000000000E+00  0.71084883694E+01  0.71084888448E+01  0.26000000000E-02 0.  1.
          2   -1    0    0  501    0  0.00000000000E+00 -0.00000000000E+00 -0.16098124774E+02  0.16098124984E+02  0.26000000000E-02 0. -1.
        -11    1    1    2    0    0  0.10560020679E+02  0.77774837256E+00 -0.28446593751E+01  0.10964078461E+02  0.51100000000E-03 0. -1.
         11    1    1    2    0    0 -0.10560020679E+02 -0.77774837256E+00 -0.61449770292E+01  0.12242535368E+02  0.51100000000E-03 0.  1.
<mgrwt>
<rscale>  0 0.21394704E+02</rscale>
<asrwt>0</asrwt>
<pdfrwt beam="2">  1        2 0.24766346E-02 0.21394704E+02</pdfrwt>
<pdfrwt beam="1">  1       -2 0.10936137E-02 0.21394704E+02</pdfrwt>
<totfact> 0.35091077E+06</totfact>
</mgrwt>
</event>
<event>
 4    1  0.1433582E+000  0.2674324E+02  0.7818608E-02  0.1637156E+00
          2   -1    0    0  501    0  0.00000000000E+00  0.00000000000E+00  0.28897154400E+02  0.28897154517E+02  0.26000000000E-02 0. -1.
         -2   -1    0    0    0  501 -0.00000000000E+00 -0.00000000000E+00 -0.61874670464E+01  0.61874675926E+01  0.26000000000E-02 0.  1.
        -11    1    1    2    0    0  0.89089987552E+01 -0.88268194170E+01  0.52693515572E+01  0.13603274089E+02  0.51100000000E-03 0. -1.
         11    1    1    2    0    0 -0.89089987552E+01  0.88268194170E+01  0.17440335797E+02  0.21481348021E+02  0.51100000000E-03 0.  1.
<mgrwt>
<rscale>  0 0.26743239E+02</rscale>
<asrwt>0</asrwt>
<pdfrwt beam="1">  1        2 0.44457162E-02 0.26743239E+02</pdfrwt>
<pdfrwt beam="2">  1       -2 0.95191805E-03 0.26743239E+02</pdfrwt>
<totfact> 0.22124622E+06</totfact>
</mgrwt>
</event>
<event>
 4    1  0.1433582E+000  0.5064219E+02  0.7818608E-02  0.1441908E+00
         -2   -1    0    0    0  501 -0.00000000000E+00  0.00000000000E+00  0.12184265757E+02  0.12184266034E+02  0.26000000000E-02 0.  1.
          2   -1    0    0  501    0  0.00000000000E+00 -0.00000000000E+00 -0.52621783338E+02  0.52621783402E+02  0.26000000000E-02 0. -1.
        -11    1    1    2    0    0  0.13705281900E+02  0.16441381130E+02 -0.37530207855E+02  0.43204979659E+02  0.51100000000E-03 0. -1.
         11    1    1    2    0    0 -0.13705281900E+02 -0.16441381130E+02 -0.29073097265E+01  0.21601069778E+02  0.51100000000E-03 0.  1.
<mgrwt>
<rscale>  0 0.50642188E+02</rscale>
<asrwt>0</asrwt>
<pdfrwt beam="2">  1        2 0.80956589E-02 0.50642188E+02</pdfrwt>
<pdfrwt beam="1">  1       -2 0.18745025E-02 0.50642188E+02</pdfrwt>
<totfact> 0.50133279E+05</totfact>
</mgrwt>
</event>
<event>
 4    1  0.1433582E+000  0.5473717E+02  0.7818608E-02  0.1421346E+00
         -2   -1    0    0    0  501 -0.00000000000E+00  0.00000000000E+00  0.20129531005E+03  0.20129531007E+03  0.26000000000E-02 0.  1.
          2   -1    0    0  501    0  0.00000000000E+00 -0.00000000000E+00 -0.37210974590E+01  0.37210983674E+01  0.26000000000E-02 0. -1.
        -11    1    1    2    0    0 -0.11327873080E+02  0.23637989249E+02  0.69303739113E+02  0.74095097675E+02  0.51100000000E-03 0. -1.
         11    1    1    2    0    0  0.11327873080E+02 -0.23637989249E+02  0.12827047348E+03  0.13092131076E+03  0.51100000000E-03 0.  1.
<mgrwt>
<rscale>  0 0.54737174E+02</rscale>
<asrwt>0</asrwt>
<pdfrwt beam="2">  1        2 0.57247654E-03 0.54737174E+02</pdfrwt>
<pdfrwt beam="1">  1       -2 0.30968513E-01 0.54737174E+02</pdfrwt>
<totfact> 0.22491094E+05</totfact>
</mgrwt>
</event>
<event>
 4    1  0.1433582E+000  0.2543859E+02  0.7818608E-02  0.1654781E+00
          2   -1    0    0  501    0  0.00000000000E+00  0.00000000000E+00  0.43588492039E+02  0.43588492116E+02  0.26000000000E-02 0. -1.
         -2   -1    0    0    0  501 -0.00000000000E+00 -0.00000000000E+00 -0.37115411972E+01  0.37115421079E+01  0.26000000000E-02 0.  1.
        -11    1    1    2    0    0 -0.11063300510E+02 -0.60955143689E+01  0.22714247392E+02  0.25990170227E+02  0.51100000000E-03 0. -1.
         11    1    1    2    0    0  0.11063300510E+02  0.60955143689E+01  0.17162703449E+02  0.21309863997E+02  0.51100000000E-03 0.  1.
<mgrwt>
<rscale>  0 0.25438593E+02</rscale>
<asrwt>0</asrwt>
<pdfrwt beam="1">  1        2 0.67059219E-02 0.25438593E+02</pdfrwt>
<pdfrwt beam="2">  1       -2 0.57100642E-03 0.25438593E+02</pdfrwt>
<totfact> 0.26247010E+06</totfact>
</mgrwt>
</event>
<event>
 4    1  0.1433582E+000  0.6553244E+02  0.7818608E-02  0.1375980E+00
          2   -1    0    0  501    0  0.00000000000E+00  0.00000000000E+00  0.26568415126E+02  0.26568415253E+02  0.26000000000E-02 0.  1.
         -2   -1    0    0    0  501 -0.00000000000E+00 -0.00000000000E+00 -0.40409829583E+02  0.40409829666E+02  0.26000000000E-02 0. -1.
        -11    1    1    2    0    0 -0.23522067481E+02 -0.20559324437E+02  0.31791965254E+01  0.31401923041E+02  0.51100000000E-03 0. -1.
         11    1    1    2    0    0  0.23522067481E+02  0.20559324437E+02 -0.17020610983E+02  0.35576321878E+02  0.51100000000E-03 0.  1.
<mgrwt>
<rscale>  0 0.65532439E+02</rscale>
<asrwt>0</asrwt>
<pdfrwt beam="1">  1        2 0.40874485E-02 0.65532439E+02</pdfrwt>
<pdfrwt beam="2">  1       -2 0.62168969E-02 0.65532439E+02</pdfrwt>
<totfact> 0.22175840E+05</totfact>
</mgrwt>
</event>
<event>
 4    1  0.1433582E+000  0.4651412E+02  0.7818608E-02  0.1465105E+00
         -2   -1    0    0    0  501 -0.00000000000E+00  0.00000000000E+00  0.65985018211E+02  0.65985018262E+02  0.26000000000E-02 0. -1.
          2   -1    0    0  501    0  0.00000000000E+00 -0.00000000000E+00 -0.81971777715E+01  0.81971781838E+01  0.26000000000E-02 0.  1.
        -11    1    1    2    0    0  0.75963329029E+01 -0.94798013965E+01 -0.27352553481E+01  0.12452009082E+02  0.51100000000E-03 0.  1.
         11    1    1    2    0    0 -0.75963329029E+01  0.94798013965E+01  0.60523095788E+02  0.61730187365E+02  0.51100000000E-03 0. -1.
<mgrwt>
<rscale>  0 0.46514124E+02</rscale>
<asrwt>0</asrwt>
<pdfrwt beam="2">  1        2 0.12611043E-02 0.46514124E+02</pdfrwt>
<pdfrwt beam="1">  1       -2 0.10151541E-01 0.46514124E+02</pdfrwt>
<totfact> 0.46104242E+05</totfact>
</mgrwt>
</event>
<event>
 4    1  0.1433582E+000  0.2282643E+02  0.7818608E-02  0.1694339E+00
          2   -1    0    0  501    0  0.00000000000E+00  0.00000000000E+00  0.33916750080E+01  0.33916760046E+01  0.26000000000E-02 0. -1.
         -2   -1    0    0    0  501 -0.00000000000E+00 -0.00000000000E+00 -0.38406232121E+02  0.38406232209E+02  0.26000000000E-02 0.  1.
        -11    1    1    2    0    0 -0.10330112965E+02  0.17444727819E+01 -0.92151073929E+01  0.13952513167E+02  0.51100000000E-03 0. -1.
         11    1    1    2    0    0  0.10330112965E+02 -0.17444727819E+01 -0.25799449720E+02  0.27845395046E+02  0.51100000000E-03 0.  1.
<mgrwt>
<rscale>  0 0.22826430E+02</rscale>
<asrwt>0</asrwt>
<pdfrwt beam="1">  1        2 0.52179626E-03 0.22826430E+02</pdfrwt>
<pdfrwt beam="2">  1       -2 0.59086509E-02 0.22826430E+02</pdfrwt>
<totfact> 0.26214436E+06</totfact>
</mgrwt>
</event>
<event>
 4    1  0.1433582E+000  0.5224261E+02  0.7818608E-02  0.1433608E+00
          2   -1    0    0  501    0  0.00000000000E+00  0.00000000000E+00  0.91207707871E+02  0.91207707908E+02  0.26000000000E-02 0. -1.
         -2   -1    0    0    0  501 -0.00000000000E+00 -0.00000000000E+00 -0.74809756794E+01  0.74809761312E+01  0.26000000000E-02 0.  1.
        -11    1    1    2    0    0  0.17628409827E+02 -0.34504555403E+01  0.77688368897E+02  0.79738003102E+02  0.51100000000E-03 0. -1.
         11    1    1    2    0    0 -0.17628409827E+02  0.34504555403E+01  0.60383632944E+01  0.18950680938E+02  0.51100000000E-03 0.  1.
<mgrwt>
<rscale>  0 0.52242614E+02</rscale>
<asrwt>0</asrwt>
<pdfrwt beam="1">  1        2 0.14031956E-01 0.52242614E+02</pdfrwt>
<pdfrwt beam="2">  1       -2 0.11509193E-02 0.52242614E+02</pdfrwt>
<totfact> 0.52309672E+05</totfact>
</mgrwt>
</event>
<event>
 4    1  0.1433582E+000  0.2262945E+02  0.7818608E-02  0.1697588E+00
         -2   -1    0    0    0  501 -0.00000000000E+00  0.00000000000E+00  0.50692310846E+01  0.50692317514E+01  0.26000000000E-02 0. -1.
          2   -1    0    0  501    0  0.00000000000E+00 -0.00000000000E+00 -0.25254904759E+02  0.25254904893E+02  0.26000000000E-02 0.  1.
        -11    1    1    2    0    0 -0.92906406865E+01  0.63638941725E+01 -0.86201403989E+01  0.14181747923E+02  0.51100000000E-03 0. -1.
         11    1    1    2    0    0  0.92906406865E+01 -0.63638941725E+01 -0.11565533275E+02  0.16142388721E+02  0.51100000000E-03 0.  1.
<mgrwt>
<rscale>  0 0.22629446E+02</rscale>
<asrwt>0</asrwt>
<pdfrwt beam="2">  1        2 0.38853700E-02 0.22629446E+02</pdfrwt>
<pdfrwt beam="1">  1       -2 0.77988178E-03 0.22629446E+02</pdfrwt>
<totfact> 0.32166308E+06</totfact>
</mgrwt>
</event>
<event>
 4    1  0.1433582E+000  0.1167124E+03  0.7818608E-02  0.1248621E+00
          2   -1    0    0  501    0  0.00000000000E+00  0.00000000000E+00  0.52013552789E+03  0.52013552789E+03  0.26000000000E-02 0. -1.
         -2   -1    0    0    0  501 -0.00000000000E+00 -0.00000000000E+00 -0.65472311381E+01  0.65472316544E+01  0.26000000000E-02 0.  1.
        -11    1    1    2    0    0  0.23653566589E+01 -0.57993070718E+02  0.22947246280E+03  0.23669896989E+03  0.51100000000E-03 0.  1.
         11    1    1    2    0    0 -0.23653566589E+01  0.57993070718E+02  0.28411583394E+03  0.28998378965E+03  0.51100000000E-03 0. -1.
<mgrwt>
<rscale>  0 0.11671243E+03</rscale>
<asrwt>0</asrwt>
<pdfrwt beam="1">  1        2 0.80020868E-01 0.11671243E+03</pdfrwt>
<pdfrwt beam="2">  1       -2 0.10072661E-02 0.11671243E+03</pdfrwt>
<totfact> 0.11260934E+05</totfact>
</mgrwt>
</event>
<event>
 4    1  0.1433582E+000  0.3258065E+02  0.7818608E-02  0.1571198E+00
          2   -1    0    0  501    0  0.00000000000E+00  0.00000000000E+00  0.63974233346E+02  0.63974233399E+02  0.26000000000E-02 0. -1.
         -2   -1    0    0    0  501 -0.00000000000E+00 -0.00000000000E+00 -0.41481498111E+01  0.41481506259E+01  0.26000000000E-02 0.  1.
        -11    1    1    2    0    0  0.10325217849E+02  0.12110117557E+02  0.22636985063E+02  0.27671251577E+02  0.51100000000E-03 0.  1.
         11    1    1    2    0    0 -0.10325217849E+02 -0.12110117557E+02  0.37189098472E+02  0.40451132447E+02  0.51100000000E-03 0. -1.
<mgrwt>
<rscale>  0 0.32580653E+02</rscale>
<asrwt>0</asrwt>
<pdfrwt beam="1">  1        2 0.98421896E-02 0.32580653E+02</pdfrwt>
<pdfrwt beam="2">  1       -2 0.63817698E-03 0.32580653E+02</pdfrwt>
<totfact> 0.15590086E+06</totfact>
</mgrwt>
</event>
<event>
 4    1  0.1433582E+000  0.2749027E+02  0.7818608E-02  0.1627611E+00
         -2   -1    0    0    0  501 -0.00000000000E+00  0.00000000000E+00  0.88611409978E+01  0.88611413792E+01  0.26000000000E-02 0. -1.
          2   -1    0    0  501    0  0.00000000000E+00 -0.00000000000E+00 -0.21321042488E+02  0.21321042646E+02  0.26000000000E-02 0.  1.
        -11    1    1    2    0    0 -0.13579402159E+02  0.12883270655E+01 -0.80895673537E+01  0.15858784627E+02  0.51100000000E-03 0.  1.
         11    1    1    2    0    0  0.13579402159E+02 -0.12883270655E+01 -0.43703341365E+01  0.14323399399E+02  0.51100000000E-03 0. -1.
<mgrwt>
<rscale>  0 0.27490273E+02</rscale>
<asrwt>0</asrwt>
<pdfrwt beam="2">  1        2 0.32801604E-02 0.27490273E+02</pdfrwt>
<pdfrwt beam="1">  1       -2 0.13632525E-02 0.27490273E+02</pdfrwt>
<totfact> 0.20040667E+06</totfact>
</mgrwt>
</event>
<event>
 4    1  0.1433582E+000  0.2190819E+02  0.7818608E-02  0.1709845E+00
          2   -1    0    0  501    0  0.00000000000E+00  0.00000000000E+00  0.48998962587E+02  0.48998962656E+02  0.26000000000E-02 0. -1.
         -2   -1    0    0    0  501 -0.00000000000E+00 -0.00000000000E+00 -0.24488719068E+01  0.24488732870E+01  0.26000000000E-02 0.  1.
        -11    1    1    2    0    0 -0.78130409441E+01  0.72378945855E+01  0.29290409319E+02  0.31166629673E+02  0.51100000000E-03 0. -1.
         11    1    1    2    0    0  0.78130409441E+01 -0.72378945855E+01  0.17259681361E+02  0.20281206270E+02  0.51100000000E-03 0.  1.
<mgrwt>
<rscale>  0 0.21908192E+02</rscale>
<asrwt>0</asrwt>
<pdfrwt beam="1">  1        2 0.75383025E-02 0.21908192E+02</pdfrwt>
<pdfrwt beam="2">  1       -2 0.37674961E-03 0.21908192E+02</pdfrwt>
<totfact> 0.37633244E+06</totfact>
</mgrwt>
</event>
<event>
 4    1  0.1433582E+000  0.2195081E+02  0.7818608E-02  0.1709104E+00
         -2   -1    0    0    0  501 -0.00000000000E+00  0.00000000000E+00  0.17378210840E+02  0.17378211034E+02  0.26000000000E-02 0.  1.
          2   -1    0    0  501    0  0.00000000000E+00 -0.00000000000E+00 -0.69316374061E+01  0.69316378937E+01  0.26000000000E-02 0. -1.
        -11    1    1    2    0    0  0.37860539662E+01 -0.95397377577E+01  0.91714323614E+00  0.10304462776E+02  0.51100000000E-03 0. -1.
         11    1    1    2    0    0 -0.37860539662E+01  0.95397377577E+01  0.95294301973E+01  0.14005386152E+02  0.51100000000E-03 0.  1.
<mgrwt>
<rscale>  0 0.21950805E+02</rscale>
<asrwt>0</asrwt>
<pdfrwt beam="2">  1        2 0.10664058E-02 0.21950805E+02</pdfrwt>
<pdfrwt beam="1">  1       -2 0.26735709E-02 0.21950805E+02</pdfrwt>
<totfact> 0.30907737E+06</totfact>
</mgrwt>
</event>
<event>
 4    1  0.1433582E+000  0.3721893E+02  0.7818608E-02  0.1529735E+00
         -2   -1    0    0    0  501 -0.00000000000E+00  0.00000000000E+00  0.54644637512E+02  0.54644637574E+02  0.26000000000E-02 0. -1.
          2   -1    0    0  501    0  0.00000000000E+00 -0.00000000000E+00 -0.63375322527E+01  0.63375327860E+01  0.26000000000E-02 0.  1.
        -11    1    1    2    0    0 -0.12503324844E+02  0.13514365199E+02  0.19714239519E+02  0.26974477548E+02  0.51100000000E-03 0. -1.
         11    1    1    2    0    0  0.12503324844E+02 -0.13514365199E+02  0.28592865740E+02  0.34007692811E+02  0.51100000000E-03 0.  1.
<mgrwt>
<rscale>  0 0.37218929E+02</rscale>
<asrwt>0</asrwt>
<pdfrwt beam="2">  1        2 0.97500499E-03 0.37218929E+02</pdfrwt>
<pdfrwt beam="1">  1       -2 0.84068675E-02 0.37218929E+02</pdfrwt>
<totfact> 0.81150100E+05</totfact>
</mgrwt>
</event>
<event>
 4    1  0.1433582E+000  0.2045113E+02  0.7818608E-02  0.1736503E+00
          2   -1    0    0  501    0  0.00000000000E+00  0.00000000000E+00  0.89943553785E+02  0.89943553822E+02  0.26000000000E-02 0. -1.
         -2   -1    0    0    0  501 -0.00000000000E+00 -0.00000000000E+00 -0.11625292895E+01  0.11625321969E+01  0.26000000000E-02 0.  1.
        -11    1    1    2    0    0 -0.88382681778E+01  0.48152606544E+01  0.36346595201E+02  0.37714409747E+02  0.51100000000E-03 0. -1.
         11    1    1    2    0    0  0.88382681778E+01 -0.48152606544E+01  0.52434429294E+02  0.53391676273E+02  0.51100000000E-03 0.  1.
<mgrwt>
<rscale>  0 0.20451127E+02</rscale>
<asrwt>0</asrwt>
<pdfrwt beam="1">  1        2 0.13837475E-01 0.20451127E+02</pdfrwt>
<pdfrwt beam="2">  1       -2 0.17885082E-03 0.20451127E+02</pdfrwt>
<totfact> 0.49054107E+06</totfact>
</mgrwt>
</event>
<event>
 4    1  0.1433582E+000  0.2184933E+02  0.7818608E-02  0.1710871E+00
          2   -1    0    0  501    0  0.00000000000E+00  0.00000000000E+00  0.41565872590E+01  0.41565880722E+01  0.26000000000E-02 0.  1.
         -2   -1    0    0    0  501 -0.00000000000E+00 -0.00000000000E+00 -0.28713050169E+02  0.28713050286E+02  0.26000000000E-02 0. -1.
        -11    1    1    2    0    0  0.22369219989E+01  0.99597936758E+01 -0.18133140442E+02  0.20808942613E+02  0.51100000000E-03 0. -1.
         11    1    1    2    0    0 -0.22369219989E+01 -0.99597936758E+01 -0.64233224674E+01  0.12060695746E+02  0.51100000000E-03 0.  1.
<mgrwt>
<rscale>  0 0.21849331E+02</rscale>
<asrwt>0</asrwt>
<pdfrwt beam="1">  1        2 0.63947505E-03 0.21849331E+02</pdfrwt>
<pdfrwt beam="2">  1       -2 0.44173923E-02 0.21849331E+02</pdfrwt>
<totfact> 0.29831710E+06</totfact>
</mgrwt>
</event>
<event>
 4    1  0.1433582E+000  0.3626716E+02  0.7818608E-02  0.1537627E+00
         -2   -1    0    0    0  501 -0.00000000000E+00  0.00000000000E+00  0.77943720091E+02  0.77943720134E+02  0.26000000000E-02 0.  1.
          2   -1    0    0  501    0  0.00000000000E+00 -0.00000000000E+00 -0.42187716964E+01  0.42187724976E+01  0.26000000000E-02 0. -1.
        -11    1    1    2    0    0  0.12115663033E+02 -0.11669215031E+02  0.52205457811E+02  0.54848607053E+02  0.51100000000E-03 0.  1.
         11    1    1    2    0    0 -0.12115663033E+02  0.11669215031E+02  0.21519490584E+02  0.27313885579E+02  0.51100000000E-03 0. -1.
<mgrwt>
<rscale>  0 0.36267164E+02</rscale>
<asrwt>0</asrwt>
<pdfrwt beam="2">  1        2 0.64904186E-03 0.36267164E+02</pdfrwt>
<pdfrwt beam="1">  1       -2 0.11991342E-01 0.36267164E+02</pdfrwt>
<totfact> 0.80838527E+05</totfact>
</mgrwt>
</event>
<event>
 4    1  0.1433582E+000  0.2955697E+02  0.7818608E-02  0.1603038E+00
         -2   -1    0    0    0  501 -0.00000000000E+00  0.00000000000E+00  0.55603180899E+02  0.55603180960E+02  0.26000000000E-02 0.  1.
          2   -1    0    0  501    0  0.00000000000E+00 -0.00000000000E+00 -0.39278969554E+01  0.39278978159E+01  0.26000000000E-02 0. -1.
        -11    1    1    2    0    0  0.14706788828E+02  0.17711490959E+00  0.22931042328E+02  0.27242498230E+02  0.51100000000E-03 0. -1.
         11    1    1    2    0    0 -0.14706788828E+02 -0.17711490959E+00  0.28744241615E+02  0.32288580545E+02  0.51100000000E-03 0.  1.
<mgrwt>
<rscale>  0 0.29556968E+02</rscale>
<asrwt>0</asrwt>
<pdfrwt beam="2">  1        2 0.60429197E-03 0.29556968E+02</pdfrwt>
<pdfrwt beam="1">  1       -2 0.85543347E-02 0.29556968E+02</pdfrwt>
<totfact> 0.13860046E+06</totfact>
</mgrwt>
</event>
<event>
 4    1  0.1433582E+000  0.2406138E+02  0.7818608E-02  0.1674861E+00
          2   -1    0    0  501    0  0.00000000000E+00  0.00000000000E+00  0.37434546488E+01  0.37434555517E+01  0.26000000000E-02 0.  1.
         -2   -1    0    0    0  501 -0.00000000000E+00 -0.00000000000E+00 -0.38664152237E+02  0.38664152325E+02  0.26000000000E-02 0. -1.
        -11    1    1    2    0    0 -0.93308687252E+01  0.66322262976E+01 -0.23980553541E+02  0.26572890043E+02  0.51100000000E-03 0. -1.
         11    1    1    2    0    0  0.93308687252E+01 -0.66322262976E+01 -0.10940144048E+02  0.15834717834E+02  0.51100000000E-03 0.  1.
<mgrwt>
<rscale>  0 0.24061382E+02</rscale>
<asrwt>0</asrwt>
<pdfrwt beam="1">  1        2 0.57591620E-03 0.24061382E+02</pdfrwt>
<pdfrwt beam="2">  1       -2 0.59483309E-02 0.24061382E+02</pdfrwt>
<totfact> 0.23285628E+06</totfact>
</mgrwt>
</event>
<event>
 4    1  0.1433582E+000  0.5907573E+02  0.7818608E-02  0.1401752E+00
         -2   -1    0    0    0  501 -0.00000000000E+00  0.00000000000E+00  0.25665088816E+03  0.25665088817E+03  0.26000000000E-02 0.  1.
          2   -1    0    0  501    0  0.00000000000E+00 -0.00000000000E+00 -0.33995028028E+01  0.33995037970E+01  0.26000000000E-02 0. -1.
        -11    1    1    2    0    0  0.16142081227E+02 -0.23101151908E+02  0.87684796760E+02  0.92102408161E+02  0.51100000000E-03 0. -1.
         11    1    1    2    0    0 -0.16142081227E+02  0.23101151908E+02  0.16556658860E+03  0.16794798381E+03  0.51100000000E-03 0.  1.
<mgrwt>
<rscale>  0 0.59075733E+02</rscale>
<asrwt>0</asrwt>
<pdfrwt beam="2">  1        2 0.52300049E-03 0.59075733E+02</pdfrwt>
<pdfrwt beam="1">  1       -2 0.39484753E-01 0.59075733E+02</pdfrwt>
<totfact> 0.16663187E+05</totfact>
</mgrwt>
</event>
<event>
 4    1  0.1433582E+000  0.2269334E+02  0.7818608E-02  0.1696530E+00
         -2   -1    0    0    0  501 -0.00000000000E+00  0.00000000000E+00  0.29132510045E+01  0.29132521647E+01  0.26000000000E-02 0.  1.
          2   -1    0    0  501    0  0.00000000000E+00 -0.00000000000E+00 -0.44193553011E+02  0.44193553088E+02  0.26000000000E-02 0. -1.
        -11    1    1    2    0    0 -0.58399173608E+01  0.97277886925E+01 -0.20408683727E+02  0.23350564861E+02  0.51100000000E-03 0. -1.
         11    1    1    2    0    0  0.58399173608E+01 -0.97277886925E+01 -0.20871618280E+02  0.23756240391E+02  0.51100000000E-03 0.  1.
<mgrwt>
<rscale>  0 0.22693342E+02</rscale>
<asrwt>0</asrwt>
<pdfrwt beam="2">  1        2 0.67990078E-02 0.22693342E+02</pdfrwt>
<pdfrwt beam="1">  1       -2 0.44819259E-03 0.22693342E+02</pdfrwt>
<totfact> 0.34213403E+06</totfact>
</mgrwt>
</event>
<event>
 4    1  0.1433582E+000  0.5439172E+02  0.7818608E-02  0.1422998E+00
          2   -1    0    0  501    0  0.00000000000E+00  0.00000000000E+00  0.32437389099E+02  0.32437389204E+02  0.26000000000E-02 0. -1.
         -2   -1    0    0    0  501 -0.00000000000E+00 -0.00000000000E+00 -0.22801301454E+02  0.22801301602E+02  0.26000000000E-02 0.  1.
        -11    1    1    2    0    0  0.82969345455E+01 -0.13767098401E+02  0.27096886965E+02  0.31505767800E+02  0.51100000000E-03 0. -1.
         11    1    1    2    0    0 -0.82969345455E+01  0.13767098401E+02 -0.17460799320E+02  0.23732923005E+02  0.51100000000E-03 0.  1.
<mgrwt>
<rscale>  0 0.54391716E+02</rscale>
<asrwt>0</asrwt>
<pdfrwt beam="1">  1        2 0.49903675E-02 0.54391716E+02</pdfrwt>
<pdfrwt beam="2">  1       -2 0.35078926E-02 0.54391716E+02</pdfrwt>
<totfact> 0.38102893E+05</totfact>
</mgrwt>
</event>
<event>
 4    1  0.1433582E+000  0.2168337E+02  0.7818608E-02  0.1713786E+00
         -2   -1    0    0    0  501 -0.00000000000E+00  0.00000000000E+00  0.13203132913E+02  0.13203133169E+02  0.26000000000E-02 0.  1.
          2   -1    0    0  501    0  0.00000000000E+00 -0.00000000000E+00 -0.89025900657E+01  0.89025904453E+01  0.26000000000E-02 0. -1.
        -11    1    1    2    0    0 -0.98978042650E+01  0.32134265614E+01  0.52508013588E+01  0.11656052278E+02  0.51100000000E-03 0. -1.
         11    1    1    2    0    0  0.98978042650E+01 -0.32134265614E+01 -0.95025851170E+00  0.10449671336E+02  0.51100000000E-03 0.  1.
<mgrwt>
<rscale>  0 0.21683366E+02</rscale>
<asrwt>0</asrwt>
<pdfrwt beam="2">  1        2 0.13696293E-02 0.21683366E+02</pdfrwt>
<pdfrwt beam="1">  1       -2 0.20312513E-02 0.21683366E+02</pdfrwt>
<totfact> 0.32455852E+06</totfact>
</mgrwt>
</event>
<event>
 4    1  0.1433582E+000  0.6308879E+02  0.7818608E-02  0.1385308E+00
          2   -1    0    0  501    0  0.00000000000E+00  0.00000000000E+00  0.23895266364E+02  0.23895266505E+02  0.26000000000E-02 0.  1.
         -2   -1    0    0    0  501 -0.00000000000E+00 -0.00000000000E+00 -0.41642084435E+02  0.41642084516E+02  0.26000000000E-02 0. -1.
        -11    1    1    2    0    0 -0.14876512025E+02  0.25676373257E+02  0.22405116641E+01  0.29759143913E+02  0.51100000000E-03 0.  1.
         11    1    1    2    0    0  0.14876512025E+02 -0.25676373257E+02 -0.19987329736E+02  0.35778207108E+02  0.51100000000E-03 0. -1.
<mgrwt>
<rscale>  0 0.63088785E+02</rscale>
<asrwt>0</asrwt>
<pdfrwt beam="1">  1        2 0.36761948E-02 0.63088785E+02</pdfrwt>
<pdfrwt beam="2">  1       -2 0.64064746E-02 0.63088785E+02</pdfrwt>
<totfact> 0.24139062E+05</totfact>
</mgrwt>
</event>
<event>
 4    1  0.1433582E+000  0.3356178E+02  0.7818608E-02  0.1561756E+00
          2   -1    0    0  501    0  0.00000000000E+00  0.00000000000E+00  0.26076835561E+02  0.26076835691E+02  0.26000000000E-02 0. -1.
         -2   -1    0    0    0  501 -0.00000000000E+00 -0.00000000000E+00 -0.10798788665E+02  0.10798788978E+02  0.26000000000E-02 0.  1.
        -11    1    1    2    0    0 -0.13902752623E+02 -0.18116357562E+01  0.17770662647E+02  0.22635481125E+02  0.51100000000E-03 0. -1.
         11    1    1    2    0    0  0.13902752623E+02  0.18116357562E+01 -0.24926157514E+01  0.14240143544E+02  0.51100000000E-03 0.  1.
<mgrwt>
<rscale>  0 0.33561779E+02</rscale>
<asrwt>0</asrwt>
<pdfrwt beam="1">  1        2 0.40118209E-02 0.33561779E+02</pdfrwt>
<pdfrwt beam="2">  1       -2 0.16613521E-02 0.33561779E+02</pdfrwt>
<totfact> 0.12648513E+06</totfact>
</mgrwt>
</event>
<event>
 4    1  0.1433582E+000  0.2214403E+02  0.7818608E-02  0.1705773E+00
         -2   -1    0    0    0  501 -0.00000000000E+00  0.00000000000E+00  0.24863005454E+01  0.24863019049E+01  0.26000000000E-02 0.  1.
          2   -1    0    0  501    0  0.00000000000E+00 -0.00000000000E+00 -0.49305990565E+02  0.49305990634E+02  0.26000000000E-02 0. -1.
        -11    1    1    2    0    0  0.10440653152E+02 -0.16554929558E+01 -0.31111005326E+02  0.32857914539E+02  0.51100000000E-03 0. -1.
         11    1    1    2    0    0 -0.10440653152E+02  0.16554929558E+01 -0.15708684693E+02  0.18934378000E+02  0.51100000000E-03 0.  1.
<mgrwt>
<rscale>  0 0.22144033E+02</rscale>
<asrwt>0</asrwt>
<pdfrwt beam="2">  1        2 0.75855364E-02 0.22144033E+02</pdfrwt>
<pdfrwt beam="1">  1       -2 0.38250792E-03 0.22144033E+02</pdfrwt>
<totfact> 0.36765574E+06</totfact>
</mgrwt>
</event>
<event>
 4    1  0.1433582E+000  0.2457891E+02  0.7818608E-02  0.1667125E+00
          2   -1    0    0  501    0  0.00000000000E+00  0.00000000000E+00  0.66218942349E+01  0.66218947453E+01  0.26000000000E-02 0. -1.
         -2   -1    0    0    0  501 -0.00000000000E+00 -0.00000000000E+00 -0.22807772844E+02  0.22807772992E+02  0.26000000000E-02 0.  1.
        -11    1    1    2    0    0 -0.54781116194E+01 -0.93797180881E+01 -0.14975577996E+02  0.18500182564E+02  0.51100000000E-03 0.  1.
         11    1    1    2    0    0  0.54781116194E+01  0.93797180881E+01 -0.12103006132E+01  0.10929485174E+02  0.51100000000E-03 0. -1.
<mgrwt>
<rscale>  0 0.24578907E+02</rscale>
<asrwt>0</asrwt>
<pdfrwt beam="1">  1        2 0.10187530E-02 0.24578907E+02</pdfrwt>
<pdfrwt beam="2">  1       -2 0.35088881E-02 0.24578907E+02</pdfrwt>
<totfact> 0.23496091E+06</totfact>
</mgrwt>
</event>
<event>
 4    1  0.1433582E+000  0.2614200E+02  0.7818608E-02  0.1645121E+00
          2   -1    0    0  501    0  0.00000000000E+00  0.00000000000E+00  0.51258509130E+01  0.51258515724E+01  0.26000000000E-02 0.  1.
         -2   -1    0    0    0  501 -0.00000000000E+00 -0.00000000000E+00 -0.33331239680E+02  0.33331239781E+02  0.26000000000E-02 0. -1.
        -11    1    1    2    0    0  0.94686065591E+01  0.89157444202E+01 -0.12181269016E+02  0.17819324450E+02  0.51100000000E-03 0.  1.
         11    1    1    2    0    0 -0.94686065591E+01 -0.89157444202E+01 -0.16024119751E+02  0.20637766904E+02  0.51100000000E-03 0. -1.
<mgrwt>
<rscale>  0 0.26141995E+02</rscale>
<asrwt>0</asrwt>
<pdfrwt beam="1">  1        2 0.78859253E-03 0.26141995E+02</pdfrwt>
<pdfrwt beam="2">  1       -2 0.51278830E-02 0.26141995E+02</pdfrwt>
<totfact> 0.19660061E+06</totfact>
</mgrwt>
</event>
<event>
 4    1  0.1433582E+000  0.3922553E+02  0.7818608E-02  0.1513989E+00
          2   -1    0    0  501    0  0.00000000000E+00  0.00000000000E+00  0.38811661439E+02  0.38811661526E+02  0.26000000000E-02 0.  1.
         -2   -1    0    0    0  501 -0.00000000000E+00 -0.00000000000E+00 -0.99109536791E+01  0.99109540201E+01  0.26000000000E-02 0. -1.
        -11    1    1    2    0    0  0.12610962513E+02 -0.46591946443E+01  0.32187654651E+02  0.34882511126E+02  0.51100000000E-03 0.  1.
         11    1    1    2    0    0 -0.12610962513E+02  0.46591946443E+01 -0.32869468916E+01  0.13840104420E+02  0.51100000000E-03 0. -1.
<mgrwt>
<rscale>  0 0.39225532E+02</rscale>
<asrwt>0</asrwt>
<pdfrwt beam="1">  1        2 0.59710248E-02 0.39225532E+02</pdfrwt>
<pdfrwt beam="2">  1       -2 0.15247622E-02 0.39225532E+02</pdfrwt>
<totfact> 0.90842450E+05</totfact>
</mgrwt>
</event>
<event>
 4    1  0.1433582E+000  0.2173608E+02  0.7818608E-02  0.1712857E+00
          2   -1    0    0  501    0  0.00000000000E+00  0.00000000000E+00  0.15506040465E+01  0.15506062263E+01  0.26000000000E-02 0. -1.
         -2   -1    0    0    0  501 -0.00000000000E+00 -0.00000000000E+00 -0.76173025502E+02  0.76173025547E+02  0.26000000000E-02 0.  1.
        -11    1    1    2    0    0 -0.95992362489E+01 -0.47544502417E+01 -0.43869790595E+02  0.45158705261E+02  0.51100000000E-03 0.  1.
         11    1    1    2    0    0  0.95992362489E+01  0.47544502417E+01 -0.30752630860E+02  0.32564926512E+02  0.51100000000E-03 0. -1.
<mgrwt>
<rscale>  0 0.21736080E+02</rscale>
<asrwt>0</asrwt>
<pdfrwt beam="1">  1        2 0.23855470E-03 0.21736080E+02</pdfrwt>
<pdfrwt beam="2">  1       -2 0.11718924E-01 0.21736080E+02</pdfrwt>
<totfact> 0.26286091E+06</totfact>
</mgrwt>
</event>
<event>
 4    1  0.1433582E+000  0.4813011E+02  0.7818608E-02  0.1455696E+00
         -2   -1    0    0    0  501 -0.00000000000E+00  0.00000000000E+00  0.52732504748E+02  0.52732504812E+02  0.26000000000E-02 0.  1.
          2   -1    0    0  501    0  0.00000000000E+00 -0.00000000000E+00 -0.10982348507E+02  0.10982348815E+02  0.26000000000E-02 0. -1.
        -11    1    1    2    0    0  0.78062546312E+00 -0.20805072984E+02  0.48977758802E+01  0.21388049159E+02  0.51100000000E-03 0. -1.
         11    1    1    2    0    0 -0.78062546312E+00  0.20805072984E+02  0.36852380360E+02  0.42326804468E+02  0.51100000000E-03 0.  1.
<mgrwt>
<rscale>  0 0.48130105E+02</rscale>
<asrwt>0</asrwt>
<pdfrwt beam="2">  1        2 0.16895921E-02 0.48130105E+02</pdfrwt>
<pdfrwt beam="1">  1       -2 0.81126931E-02 0.48130105E+02</pdfrwt>
<totfact> 0.44258257E+05</totfact>
</mgrwt>
</event>
<event>
 4    1  0.1433582E+000  0.2791094E+02  0.7818608E-02  0.1622399E+00
          2   -1    0    0  501    0  0.00000000000E+00  0.00000000000E+00  0.33413002419E+01  0.33413012534E+01  0.26000000000E-02 0. -1.
         -2   -1    0    0    0  501 -0.00000000000E+00 -0.00000000000E+00 -0.58287222732E+02  0.58287222790E+02  0.26000000000E-02 0.  1.
        -11    1    1    2    0    0  0.87399197704E+01 -0.73570072063E+01 -0.97750695942E+01  0.15035416139E+02  0.51100000000E-03 0. -1.
         11    1    1    2    0    0 -0.87399197704E+01  0.73570072063E+01 -0.45170852896E+02  0.46593107905E+02  0.51100000000E-03 0.  1.
<mgrwt>
<rscale>  0 0.27910940E+02</rscale>
<asrwt>0</asrwt>
<pdfrwt beam="1">  1        2 0.51404632E-03 0.27910940E+02</pdfrwt>
<pdfrwt beam="2">  1       -2 0.89672643E-02 0.27910940E+02</pdfrwt>
<totfact> 0.15690587E+06</totfact>
</mgrwt>
</event>
<event>
 4    1  0.1433582E+000  0.2634322E+02  0.7818608E-02  0.1642426E+00
          2   -1    0    0  501    0  0.00000000000E+00  0.00000000000E+00  0.46729742493E+01  0.46729749726E+01  0.26000000000E-02 0.  1.
         -2   -1    0    0    0  501 -0.00000000000E+00 -0.00000000000E+00 -0.37126516613E+02  0.37126516704E+02  0.26000000000E-02 0. -1.
        -11    1    1    2    0    0  0.13123301864E+02  0.11550199236E+00 -0.14447880933E+02  0.19518597701E+02  0.51100000000E-03 0. -1.
         11    1    1    2    0    0 -0.13123301864E+02 -0.11550199236E+00 -0.18005661431E+02  0.22280893976E+02  0.51100000000E-03 0.  1.
<mgrwt>
<rscale>  0 0.26343217E+02</rscale>
<asrwt>0</asrwt>
<pdfrwt beam="1">  1        2 0.71891920E-03 0.26343217E+02</pdfrwt>
<pdfrwt beam="2">  1       -2 0.57117717E-02 0.26343217E+02</pdfrwt>
<totfact> 0.19076454E+06</totfact>
</mgrwt>
</event>
<event>
 4    1  0.1433582E+000  0.3047568E+02  0.7818608E-02  0.1592889E+00
         -2   -1    0    0    0  501 -0.00000000000E+00  0.00000000000E+00  0.25820586570E+02  0.25820586701E+02  0.26000000000E-02 0. -1.
          2   -1    0    0  501    0  0.00000000000E+00 -0.00000000000E+00 -0.89925061365E+01  0.89925065123E+01  0.26000000000E-02 0.  1.
        -11    1    1    2    0    0  0.34999457677E+01 -0.13072348986E+02  0.41321750121E+00  0.13539079635E+02  0.51100000000E-03 0. -1.
         11    1    1    2    0    0 -0.34999457677E+01  0.13072348986E+02  0.16414862932E+02  0.21274013579E+02  0.51100000000E-03 0.  1.
<mgrwt>
<rscale>  0 0.30475682E+02</rscale>
<asrwt>0</asrwt>
<pdfrwt beam="2">  1        2 0.13834625E-02 0.30475682E+02</pdfrwt>
<pdfrwt beam="1">  1       -2 0.39723979E-02 0.30475682E+02</pdfrwt>
<totfact> 0.14273272E+06</totfact>
</mgrwt>
</event>
<event>
 4    1  0.1433582E+000  0.3324332E+02  0.7818608E-02  0.1564777E+00
         -2   -1    0    0    0  501 -0.00000000000E+00  0.00000000000E+00  0.95981066165E+01  0.95981069687E+01  0.26000000000E-02 0. -1.
          2   -1    0    0  501    0  0.00000000000E+00 -0.00000000000E+00 -0.28784802716E+02  0.28784802833E+02  0.26000000000E-02 0.  1.
        -11    1    1    2    0    0  0.40691178496E+01  0.15329481766E+02 -0.15334984997E+02  0.22061561513E+02  0.51100000000E-03 0.  1.
         11    1    1    2    0    0 -0.40691178496E+01 -0.15329481766E+02 -0.38517111021E+01  0.16321348289E+02  0.51100000000E-03 0. -1.
<mgrwt>
<rscale>  0 0.33243322E+02</rscale>
<asrwt>0</asrwt>
<pdfrwt beam="2">  1        2 0.44284312E-02 0.33243322E+02</pdfrwt>
<pdfrwt beam="1">  1       -2 0.14766318E-02 0.33243322E+02</pdfrwt>
<totfact> 0.13109380E+06</totfact>
</mgrwt>
</event>
<event>
 4    1  0.1433582E+000  0.2885877E+02  0.7818608E-02  0.1611057E+00
         -2   -1    0    0    0  501 -0.00000000000E+00  0.00000000000E+00  0.77476250282E+01  0.77476254645E+01  0.26000000000E-02 0. -1.
          2   -1    0    0  501    0  0.00000000000E+00 -0.00000000000E+00 -0.26873675029E+02  0.26873675155E+02  0.26000000000E-02 0.  1.
        -11    1    1    2    0    0 -0.62499214850E+01  0.12925711064E+02 -0.78363012504E+01  0.16356746089E+02  0.51100000000E-03 0. -1.
         11    1    1    2    0    0  0.62499214850E+01 -0.12925711064E+02 -0.11289748750E+02  0.18264554530E+02  0.51100000000E-03 0.  1.
<mgrwt>
<rscale>  0 0.28858771E+02</rscale>
<asrwt>0</asrwt>
<pdfrwt beam="2">  1        2 0.41344115E-02 0.28858771E+02</pdfrwt>
<pdfrwt beam="1">  1       -2 0.11919424E-02 0.28858771E+02</pdfrwt>
<totfact> 0.18307815E+06</totfact>
</mgrwt>
</event>
<event>
 4    1  0.1433582E+000  0.5676563E+02  0.7818608E-02  0.1411929E+00
         -2   -1    0    0    0  501 -0.00000000000E+00  0.00000000000E+00  0.59343229856E+02  0.59343229913E+02  0.26000000000E-02 0. -1.
          2   -1    0    0  501    0  0.00000000000E+00 -0.00000000000E+00 -0.13574999190E+02  0.13574999439E+02  0.26000000000E-02 0.  1.
        -11    1    1    2    0    0  0.16328974145E+01  0.17084421746E+02  0.51922889150E+02  0.54685740722E+02  0.51100000000E-03 0. -1.
         11    1    1    2    0    0 -0.16328974145E+01 -0.17084421746E+02 -0.61546584835E+01  0.18232488630E+02  0.51100000000E-03 0.  1.
<mgrwt>
<rscale>  0 0.56765634E+02</rscale>
<asrwt>0</asrwt>
<pdfrwt beam="2">  1        2 0.20884614E-02 0.56765634E+02</pdfrwt>
<pdfrwt beam="1">  1       -2 0.91297277E-02 0.56765634E+02</pdfrwt>
<totfact> 0.29075546E+05</totfact>
</mgrwt>
</event>
<event>
 4    1  0.1433582E+000  0.3106127E+02  0.7818608E-02  0.1586645E+00
          2   -1    0    0  501    0  0.00000000000E+00  0.00000000000E+00  0.17963947457E+02  0.17963947645E+02  0.26000000000E-02 0.  1.
         -2   -1    0    0    0  501 -0.00000000000E+00 -0.00000000000E+00 -0.13426930620E+02  0.13426930872E+02  0.26000000000E-02 0. -1.
        -11    1    1    2    0    0 -0.11921156836E+01  0.13914958705E+02 -0.45972161074E+01  0.14703115716E+02  0.51100000000E-03 0. -1.
         11    1    1    2    0    0  0.11921156836E+01 -0.13914958705E+02  0.91342329441E+01  0.16687762801E+02  0.51100000000E-03 0.  1.
<mgrwt>
<rscale>  0 0.31061274E+02</rscale>
<asrwt>0</asrwt>
<pdfrwt beam="1">  1        2 0.27636843E-02 0.31061274E+02</pdfrwt>
<pdfrwt beam="2">  1       -2 0.20656817E-02 0.31061274E+02</pdfrwt>
<totfact> 0.14652583E+06</totfact>
</mgrwt>
</event>
<event>
 4    1  0.1433582E+000  0.3182633E+02  0.7818608E-02  0.1578736E+00
          2   -1    0    0  501    0  0.00000000000E+00  0.00000000000E+00  0.64796730013E+02  0.64796730065E+02  0.26000000000E-02 0. -1.
         -2   -1    0    0    0  501 -0.00000000000E+00 -0.00000000000E+00 -0.39080481542E+01  0.39080490191E+01  0.26000000000E-02 0.  1.
        -11    1    1    2    0    0 -0.13969115850E+02 -0.30526403921E+00  0.46884731643E+02  0.48922463606E+02  0.51100000000E-03 0. -1.
         11    1    1    2    0    0  0.13969115850E+02  0.30526403921E+00  0.14003950216E+02  0.19782315479E+02  0.51100000000E-03 0.  1.
<mgrwt>
<rscale>  0 0.31826327E+02</rscale>
<asrwt>0</asrwt>
<pdfrwt beam="1">  1        2 0.99687270E-02 0.31826327E+02</pdfrwt>
<pdfrwt beam="2">  1       -2 0.60123830E-03 0.31826327E+02</pdfrwt>
<totfact> 0.16531924E+06</totfact>
</mgrwt>
</event>
<event>
 4    1  0.1433582E+000  0.3406218E+02  0.7818608E-02  0.1557090E+00
          2   -1    0    0  501    0  0.00000000000E+00  0.00000000000E+00  0.12085896105E+03  0.12085896107E+03  0.26000000000E-02 0.  1.
         -2   -1    0    0    0  501 -0.00000000000E+00 -0.00000000000E+00 -0.23999706407E+01  0.23999720490E+01  0.26000000000E-02 0. -1.
        -11    1    1    2    0    0 -0.15915110829E+02  0.59180938384E+01  0.64007557685E+02  0.66221461992E+02  0.51100000000E-03 0.  1.
         11    1    1    2    0    0  0.15915110829E+02 -0.59180938384E+01  0.54451432721E+02  0.57037471131E+02  0.51100000000E-03 0. -1.
<mgrwt>
<rscale>  0 0.34062181E+02</rscale>
<asrwt>0</asrwt>
<pdfrwt beam="1">  1        2 0.18593689E-01 0.34062181E+02</pdfrwt>
<pdfrwt beam="2">  1       -2 0.36922632E-03 0.34062181E+02</pdfrwt>
<totfact> 0.16208289E+06</totfact>
</mgrwt>
</event>
<event>
 4    1  0.1433582E+000  0.5770443E+02  0.7818608E-02  0.1407726E+00
          2   -1    0    0  501    0  0.00000000000E+00  0.00000000000E+00  0.22103930933E+02  0.22103931086E+02  0.26000000000E-02 0.  1.
         -2   -1    0    0    0  501 -0.00000000000E+00 -0.00000000000E+00 -0.37660731820E+02  0.37660731909E+02  0.26000000000E-02 0. -1.
        -11    1    1    2    0    0  0.26181721819E+02 -0.46025967058E+01  0.38373598957E+01  0.26858737593E+02  0.51100000000E-03 0.  1.
         11    1    1    2    0    0 -0.26181721819E+02  0.46025967058E+01 -0.19394160782E+02  0.32905925402E+02  0.51100000000E-03 0. -1.
<mgrwt>
<rscale>  0 0.57704427E+02</rscale>
<asrwt>0</asrwt>
<pdfrwt beam="1">  1        2 0.34006048E-02 0.57704427E+02</pdfrwt>
<pdfrwt beam="2">  1       -2 0.57939588E-02 0.57704427E+02</pdfrwt>
<totfact> 0.30409639E+05</totfact>
</mgrwt>
</event>
<event>
 4    1  0.1433582E+000  0.3590200E+02  0.7818608E-02  0.1540733E+00
          2   -1    0    0  501    0  0.00000000000E+00  0.00000000000E+00  0.49336456833E+01  0.49336463684E+01  0.26000000000E-02 0. -1.
         -2   -1    0    0    0  501 -0.00000000000E+00 -0.00000000000E+00 -0.65314439502E+02  0.65314439554E+02  0.26000000000E-02 0.  1.
        -11    1    1    2    0    0  0.17441487900E+02 -0.18055536518E+01 -0.37710908232E+02  0.41588196933E+02  0.51100000000E-03 0.  1.
         11    1    1    2    0    0 -0.17441487900E+02  0.18055536518E+01 -0.22669885587E+02  0.28659888990E+02  0.51100000000E-03 0. -1.
<mgrwt>
<rscale>  0 0.35901996E+02</rscale>
<asrwt>0</asrwt>
<pdfrwt beam="1">  1        2 0.75902252E-03 0.35901996E+02</pdfrwt>
<pdfrwt beam="2">  1       -2 0.10048375E-01 0.35901996E+02</pdfrwt>
<totfact> 0.85669693E+05</totfact>
</mgrwt>
</event>
<event>
 4    1  0.1433582E+000  0.4615045E+02  0.7818608E-02  0.1467285E+00
         -2   -1    0    0    0  501 -0.00000000000E+00  0.00000000000E+00  0.84658481295E+02  0.84658481335E+02  0.26000000000E-02 0.  1.
          2   -1    0    0  501    0  0.00000000000E+00 -0.00000000000E+00 -0.62895762730E+01  0.62895768104E+01  0.26000000000E-02 0. -1.
        -11    1    1    2    0    0 -0.60905348387E+01 -0.12240677718E+02  0.25520927412E+01  0.13908342217E+02  0.51100000000E-03 0. -1.
         11    1    1    2    0    0  0.60905348387E+01  0.12240677718E+02  0.75816812281E+02  0.77039715928E+02  0.51100000000E-03 0.  1.
<mgrwt>
<rscale>  0 0.46150450E+02</rscale>
<asrwt>0</asrwt>
<pdfrwt beam="2">  1        2 0.96762717E-03 0.46150450E+02</pdfrwt>
<pdfrwt beam="1">  1       -2 0.13024382E-01 0.46150450E+02</pdfrwt>
<totfact> 0.44614026E+05</totfact>
</mgrwt>
</event>
<event>
 4    1  0.1433582E+000  0.2610422E+02  0.7818608E-02  0.1645630E+00
         -2   -1    0    0    0  501 -0.00000000000E+00  0.00000000000E+00  0.20347349161E+01  0.20347365772E+01  0.26000000000E-02 0. -1.
          2   -1    0    0  501    0  0.00000000000E+00 -0.00000000000E+00 -0.83724662422E+02  0.83724662462E+02  0.26000000000E-02 0.  1.
        -11    1    1    2    0    0  0.24905454835E-01  0.12752892009E+02 -0.31716469905E+02  0.34184372722E+02  0.51100000000E-03 0. -1.
         11    1    1    2    0    0 -0.24905454835E-01 -0.12752892009E+02 -0.49973457601E+02  0.51575026318E+02  0.51100000000E-03 0.  1.
<mgrwt>
<rscale>  0 0.26104219E+02</rscale>
<asrwt>0</asrwt>
<pdfrwt beam="2">  1        2 0.12880715E-01 0.26104219E+02</pdfrwt>
<pdfrwt beam="1">  1       -2 0.31303634E-03 0.26104219E+02</pdfrwt>
<totfact> 0.27774533E+06</totfact>
</mgrwt>
</event>
<event>
 4    1  0.1433582E+000  0.3322574E+02  0.7818608E-02  0.1564945E+00
          2   -1    0    0  501    0  0.00000000000E+00  0.00000000000E+00  0.25271437069E+01  0.25271450444E+01  0.26000000000E-02 0.  1.
         -2   -1    0    0    0  501 -0.00000000000E+00 -0.00000000000E+00 -0.10920923418E+03  0.10920923421E+03  0.26000000000E-02 0. -1.
        -11    1    1    2    0    0 -0.40138217511E+01  0.16042079565E+02 -0.47993619311E+02  0.50762649425E+02  0.51100000000E-03 0.  1.
         11    1    1    2    0    0  0.40138217511E+01 -0.16042079565E+02 -0.58688471162E+02  0.60973729831E+02  0.51100000000E-03 0. -1.
<mgrwt>
<rscale>  0 0.33225743E+02</rscale>
<asrwt>0</asrwt>
<pdfrwt beam="1">  1        2 0.38879153E-03 0.33225743E+02</pdfrwt>
<pdfrwt beam="2">  1       -2 0.16801417E-01 0.33225743E+02</pdfrwt>
<totfact> 0.91939226E+05</totfact>
</mgrwt>
</event>
<event>
 4    1  0.1433582E+000  0.3660960E+02  0.7818608E-02  0.1534754E+00
          2   -1    0    0  501    0  0.00000000000E+00  0.00000000000E+00  0.93650964372E+01  0.93650967981E+01  0.26000000000E-02 0. -1.
         -2   -1    0    0    0  501 -0.00000000000E+00 -0.00000000000E+00 -0.35778135618E+02  0.35778135713E+02  0.26000000000E-02 0.  1.
        -11    1    1    2    0    0  0.10606425765E+02  0.67789361116E+01 -0.29593994043E+02  0.32159830938E+02  0.51100000000E-03 0.  1.
         11    1    1    2    0    0 -0.10606425765E+02 -0.67789361116E+01  0.31809548616E+01  0.12983401573E+02  0.51100000000E-03 0. -1.
<mgrwt>
<rscale>  0 0.36609600E+02</rscale>
<asrwt>0</asrwt>
<pdfrwt beam="1">  1        2 0.14407841E-02 0.36609600E+02</pdfrwt>
<pdfrwt beam="2">  1       -2 0.55043285E-02 0.36609600E+02</pdfrwt>
<totfact> 0.89811540E+05</totfact>
</mgrwt>
</event>
<event>
 4    1  0.1433582E+000  0.2136594E+02  0.7818608E-02  0.1719454E+00
          2   -1    0    0  501    0  0.00000000000E+00  0.00000000000E+00  0.39633160290E+01  0.39633168819E+01  0.26000000000E-02 0.  1.
         -2   -1    0    0    0  501 -0.00000000000E+00 -0.00000000000E+00 -0.28795536109E+02  0.28795536226E+02  0.26000000000E-02 0. -1.
        -11    1    1    2    0    0 -0.75323971360E+01 -0.74736217993E+01 -0.10517260591E+02  0.14940040161E+02  0.51100000000E-03 0. -1.
         11    1    1    2    0    0  0.75323971360E+01  0.74736217993E+01 -0.14314959489E+02  0.17818812947E+02  0.51100000000E-03 0.  1.
<mgrwt>
<rscale>  0 0.21365938E+02</rscale>
<asrwt>0</asrwt>
<pdfrwt beam="1">  1        2 0.60974102E-03 0.21365938E+02</pdfrwt>
<pdfrwt beam="2">  1       -2 0.44300824E-02 0.21365938E+02</pdfrwt>
<totfact> 0.31331301E+06</totfact>
</mgrwt>
</event>
<event>
 4    1  0.1433582E+000  0.3290615E+02  0.7818608E-02  0.1568021E+00
          2   -1    0    0  501    0  0.00000000000E+00  0.00000000000E+00  0.45106972940E+02  0.45106973015E+02  0.26000000000E-02 0. -1.
         -2   -1    0    0    0  501 -0.00000000000E+00 -0.00000000000E+00 -0.60013712453E+01  0.60013718085E+01  0.26000000000E-02 0.  1.
        -11    1    1    2    0    0 -0.13771221151E+02 -0.40934821870E+01  0.32007182148E+02  0.35083654851E+02  0.51100000000E-03 0. -1.
         11    1    1    2    0    0  0.13771221151E+02  0.40934821870E+01  0.70984195472E+01  0.16024689973E+02  0.51100000000E-03 0.  1.
<mgrwt>
<rscale>  0 0.32906152E+02</rscale>
<asrwt>0</asrwt>
<pdfrwt beam="1">  1        2 0.69395346E-02 0.32906152E+02</pdfrwt>
<pdfrwt beam="2">  1       -2 0.92328790E-03 0.32906152E+02</pdfrwt>
<totfact> 0.14321467E+06</totfact>
</mgrwt>
</event>
<event>
 4    1  0.1433582E+000  0.3394891E+02  0.7818608E-02  0.1558138E+00
          2   -1    0    0  501    0  0.00000000000E+00  0.00000000000E+00  0.34551393243E+02  0.34551393340E+02  0.26000000000E-02 0. -1.
         -2   -1    0    0    0  501 -0.00000000000E+00 -0.00000000000E+00 -0.83392329245E+01  0.83392333298E+01  0.26000000000E-02 0.  1.
        -11    1    1    2    0    0 -0.12994861410E+02  0.73307556746E+01  0.23332943917E+02  0.27695354736E+02  0.51100000000E-03 0. -1.
         11    1    1    2    0    0  0.12994861410E+02 -0.73307556746E+01  0.28792164007E+01  0.15195271935E+02  0.51100000000E-03 0.  1.
<mgrwt>
<rscale>  0 0.33948910E+02</rscale>
<asrwt>0</asrwt>
<pdfrwt beam="1">  1        2 0.53155990E-02 0.33948910E+02</pdfrwt>
<pdfrwt beam="2">  1       -2 0.12829590E-02 0.33948910E+02</pdfrwt>
<totfact> 0.12760418E+06</totfact>
</mgrwt>
</event>
<event>
 4    1  0.1433582E+000  0.2905826E+02  0.7818608E-02  0.1608738E+00
         -2   -1    0    0    0  501 -0.00000000000E+00  0.00000000000E+00  0.34022835206E+01  0.34022845141E+01  0.26000000000E-02 0. -1.
          2   -1    0    0  501    0  0.00000000000E+00 -0.00000000000E+00 -0.62045268430E+02  0.62045268484E+02  0.26000000000E-02 0.  1.
        -11    1    1    2    0    0  0.88917923467E+01 -0.79927682461E+01 -0.47914436658E+02  0.49383616270E+02  0.51100000000E-03 0.  1.
         11    1    1    2    0    0 -0.88917923467E+01  0.79927682461E+01 -0.10728548250E+02  0.16063936728E+02  0.51100000000E-03 0. -1.
<mgrwt>
<rscale>  0 0.29058261E+02</rscale>
<asrwt>0</asrwt>
<pdfrwt beam="2">  1        2 0.95454252E-02 0.29058261E+02</pdfrwt>
<pdfrwt beam="1">  1       -2 0.52342836E-03 0.29058261E+02</pdfrwt>
<totfact> 0.20362401E+06</totfact>
</mgrwt>
</event>
<event>
 4    1  0.1433582E+000  0.3059749E+02  0.7818608E-02  0.1591577E+00
         -2   -1    0    0    0  501 -0.00000000000E+00  0.00000000000E+00  0.20509943433E+01  0.20509959913E+01  0.26000000000E-02 0. -1.
          2   -1    0    0  501    0  0.00000000000E+00 -0.00000000000E+00 -0.11411614592E+03  0.11411614595E+03  0.26000000000E-02 0.  1.
        -11    1    1    2    0    0  0.57244567662E+01 -0.12866587641E+02 -0.33337413211E+02  0.36189799705E+02  0.51100000000E-03 0. -1.
         11    1    1    2    0    0 -0.57244567662E+01  0.12866587641E+02 -0.78727738362E+02  0.79977342232E+02  0.51100000000E-03 0.  1.
<mgrwt>
<rscale>  0 0.30597494E+02</rscale>
<asrwt>0</asrwt>
<pdfrwt beam="2">  1        2 0.17556325E-01 0.30597494E+02</pdfrwt>
<pdfrwt beam="1">  1       -2 0.31553781E-03 0.30597494E+02</pdfrwt>
<totfact> 0.20609265E+06</totfact>
</mgrwt>
</event>
<event>
 4    1  0.1433582E+000  0.3543464E+02  0.7818608E-02  0.1544774E+00
         -2   -1    0    0    0  501 -0.00000000000E+00  0.00000000000E+00  0.30681812059E+01  0.30681823076E+01  0.26000000000E-02 0. -1.
          2   -1    0    0  501    0  0.00000000000E+00 -0.00000000000E+00 -0.10230925758E+03  0.10230925761E+03  0.26000000000E-02 0.  1.
        -11    1    1    2    0    0 -0.17222243466E+02  0.33119293984E+01 -0.57101926406E+02  0.59734450243E+02  0.51100000000E-03 0.  1.
         11    1    1    2    0    0  0.17222243466E+02 -0.33119293984E+01 -0.42139149966E+02  0.45642989675E+02  0.51100000000E-03 0. -1.
<mgrwt>
<rscale>  0 0.35434638E+02</rscale>
<asrwt>0</asrwt>
<pdfrwt beam="2">  1        2 0.15739883E-01 0.35434638E+02</pdfrwt>
<pdfrwt beam="1">  1       -2 0.47202804E-03 0.35434638E+02</pdfrwt>
<totfact> 0.14119647E+06</totfact>
</mgrwt>
</event>
<event>
 4    1  0.1433582E+000  0.3483092E+02  0.7818608E-02  0.1550107E+00
         -2   -1    0    0    0  501 -0.00000000000E+00  0.00000000000E+00  0.20364328931E+02  0.20364329097E+02  0.26000000000E-02 0. -1.
          2   -1    0    0  501    0  0.00000000000E+00 -0.00000000000E+00 -0.14893605191E+02  0.14893605418E+02  0.26000000000E-02 0.  1.
        -11    1    1    2    0    0  0.30583892084E+01 -0.15431484139E+02  0.10297817264E+02  0.18802379848E+02  0.51100000000E-03 0.  1.
         11    1    1    2    0    0 -0.30583892084E+01  0.15431484139E+02 -0.48270935234E+01  0.16455554668E+02  0.51100000000E-03 0. -1.
<mgrwt>
<rscale>  0 0.34830922E+02</rscale>
<asrwt>0</asrwt>
<pdfrwt beam="2">  1        2 0.22913239E-02 0.34830922E+02</pdfrwt>
<pdfrwt beam="1">  1       -2 0.31329737E-02 0.34830922E+02</pdfrwt>
<totfact> 0.10800339E+06</totfact>
</mgrwt>
</event>
<event>
 4    1  0.1433582E+000  0.2750222E+02  0.7818608E-02  0.1627462E+00
          2   -1    0    0  501    0  0.00000000000E+00  0.00000000000E+00  0.85558647475E+01  0.85558651425E+01  0.26000000000E-02 0.  1.
         -2   -1    0    0    0  501 -0.00000000000E+00 -0.00000000000E+00 -0.22100974937E+02  0.22100975090E+02  0.26000000000E-02 0. -1.
        -11    1    1    2    0    0  0.11285089978E+01  0.12886710510E+02 -0.11971443683E+02  0.17625444802E+02  0.51100000000E-03 0. -1.
         11    1    1    2    0    0 -0.11285089978E+01 -0.12886710510E+02 -0.15736665057E+01  0.13031395430E+02  0.51100000000E-03 0.  1.
<mgrwt>
<rscale>  0 0.27502215E+02</rscale>
<asrwt>0</asrwt>
<pdfrwt beam="1">  1        2 0.13162869E-02 0.27502215E+02</pdfrwt>
<pdfrwt beam="2">  1       -2 0.34001500E-02 0.27502215E+02</pdfrwt>
<totfact> 0.18313704E+06</totfact>
</mgrwt>
</event>
<event>
 4    1  0.1433582E+000  0.2927723E+02  0.7818608E-02  0.1606218E+00
          2   -1    0    0  501    0  0.00000000000E+00  0.00000000000E+00  0.45289160053E+01  0.45289167516E+01  0.26000000000E-02 0. -1.
         -2   -1    0    0    0  501 -0.00000000000E+00 -0.00000000000E+00 -0.47315757044E+02  0.47315757115E+02  0.26000000000E-02 0.  1.
        -11    1    1    2    0    0  0.10769733993E+02  0.16740907228E+01 -0.38698529207E+02  0.40204053440E+02  0.51100000000E-03 0.  1.
         11    1    1    2    0    0 -0.10769733993E+02 -0.16740907228E+01 -0.40883118320E+01  0.11640620427E+02  0.51100000000E-03 0. -1.
<mgrwt>
<rscale>  0 0.29277234E+02</rscale>
<asrwt>0</asrwt>
<pdfrwt beam="1">  1        2 0.69675640E-03 0.29277234E+02</pdfrwt>
<pdfrwt beam="2">  1       -2 0.72793470E-02 0.29277234E+02</pdfrwt>
<totfact> 0.14516943E+06</totfact>
</mgrwt>
</event>
<event>
 4    1  0.1433582E+000  0.4638988E+02  0.7818608E-02  0.1465847E+00
          2   -1    0    0  501    0  0.00000000000E+00  0.00000000000E+00  0.36140510526E+02  0.36140510620E+02  0.26000000000E-02 0.  1.
         -2   -1    0    0    0  501 -0.00000000000E+00 -0.00000000000E+00 -0.14886487827E+02  0.14886488054E+02  0.26000000000E-02 0. -1.
        -11    1    1    2    0    0 -0.16146382519E+02  0.15860099523E+02  0.16209439691E+02  0.27838720529E+02  0.51100000000E-03 0.  1.
         11    1    1    2    0    0  0.16146382519E+02 -0.15860099523E+02  0.50445830084E+01  0.23188278145E+02  0.51100000000E-03 0. -1.
<mgrwt>
<rscale>  0 0.46389882E+02</rscale>
<asrwt>0</asrwt>
<pdfrwt beam="1">  1        2 0.55600785E-02 0.46389882E+02</pdfrwt>
<pdfrwt beam="2">  1       -2 0.22902289E-02 0.46389882E+02</pdfrwt>
<totfact> 0.58746586E+05</totfact>
</mgrwt>
</event>
<event>
 4    1  0.1433582E+000  0.2015929E+02  0.7818608E-02  0.1742179E+00
          2   -1    0    0  501    0  0.00000000000E+00  0.00000000000E+00  0.48611127207E+02  0.48611127277E+02  0.26000000000E-02 0. -1.
         -2   -1    0    0    0  501 -0.00000000000E+00 -0.00000000000E+00 -0.20900391092E+01  0.20900407264E+01  0.26000000000E-02 0.  1.
        -11    1    1    2    0    0  0.17245473365E+01  0.99241372238E+01  0.24190207926E+02  0.26203601335E+02  0.51100000000E-03 0. -1.
         11    1    1    2    0    0 -0.17245473365E+01 -0.99241372238E+01  0.22330880172E+02  0.24497566668E+02  0.51100000000E-03 0.  1.
<mgrwt>
<rscale>  0 0.20159286E+02</rscale>
<asrwt>0</asrwt>
<pdfrwt beam="1">  1        2 0.74786351E-02 0.20159286E+02</pdfrwt>
<pdfrwt beam="2">  1       -2 0.32154461E-03 0.20159286E+02</pdfrwt>
<totfact> 0.45324684E+06</totfact>
</mgrwt>
</event>
<event>
 4    1  0.1433582E+000  0.3120753E+02  0.7818608E-02  0.1585112E+00
          2   -1    0    0  501    0  0.00000000000E+00  0.00000000000E+00  0.78024664394E+02  0.78024664437E+02  0.26000000000E-02 0.  1.
         -2   -1    0    0    0  501 -0.00000000000E+00 -0.00000000000E+00 -0.31205179644E+01  0.31205190476E+01  0.26000000000E-02 0. -1.
        -11    1    1    2    0    0  0.12748031784E+02  0.69227155014E+01  0.52398270609E+02  0.54369247442E+02  0.51100000000E-03 0.  1.
         11    1    1    2    0    0 -0.12748031784E+02 -0.69227155014E+01  0.22505875820E+02  0.26775936043E+02  0.51100000000E-03 0. -1.
<mgrwt>
<rscale>  0 0.31207526E+02</rscale>
<asrwt>0</asrwt>
<pdfrwt beam="1">  1        2 0.12003794E-01 0.31207526E+02</pdfrwt>
<pdfrwt beam="2">  1       -2 0.48007981E-03 0.31207526E+02</pdfrwt>
<totfact> 0.17988855E+06</totfact>
</mgrwt>
</event>
<event>
 4    1  0.1433582E+000  0.2781452E+02  0.7818608E-02  0.1623584E+00
         -2   -1    0    0    0  501 -0.00000000000E+00  0.00000000000E+00  0.16493920204E+03  0.16493920206E+03  0.26000000000E-02 0. -1.
          2   -1    0    0  501    0  0.00000000000E+00 -0.00000000000E+00 -0.11726240655E+01  0.11726269479E+01  0.26000000000E-02 0.  1.
        -11    1    1    2    0    0  0.97307805160E+01 -0.99303831725E+01  0.83875859904E+02  0.85020353294E+02  0.51100000000E-03 0. -1.
         11    1    1    2    0    0 -0.97307805160E+01  0.99303831725E+01  0.79890718070E+02  0.81091475713E+02  0.51100000000E-03 0.  1.
<mgrwt>
<rscale>  0 0.27814523E+02</rscale>
<asrwt>0</asrwt>
<pdfrwt beam="2">  1        2 0.18040403E-03 0.27814523E+02</pdfrwt>
<pdfrwt beam="1">  1       -2 0.25375248E-01 0.27814523E+02</pdfrwt>
<totfact> 0.12250117E+06</totfact>
</mgrwt>
</event>
<event>
 4    1  0.1433582E+000  0.2208285E+02  0.7818608E-02  0.1706823E+00
          2   -1    0    0  501    0  0.00000000000E+00  0.00000000000E+00  0.12214675971E+02  0.12214676248E+02  0.26000000000E-02 0.  1.
         -2   -1    0    0    0  501 -0.00000000000E+00 -0.00000000000E+00 -0.99808664792E+01  0.99808668178E+01  0.26000000000E-02 0. -1.
        -11    1    1    2    0    0 -0.95190897639E+01  0.37500767736E+01 -0.30560184012E+01  0.10677799140E+02  0.51100000000E-03 0. -1.
         11    1    1    2    0    0  0.95190897639E+01 -0.37500767736E+01  0.52898278932E+01  0.11517743926E+02  0.51100000000E-03 0.  1.
<mgrwt>
<rscale>  0 0.22082849E+02</rscale>
<asrwt>0</asrwt>
<pdfrwt beam="1">  1        2 0.18791810E-02 0.22082849E+02</pdfrwt>
<pdfrwt beam="2">  1       -2 0.15355180E-02 0.22082849E+02</pdfrwt>
<totfact> 0.31892866E+06</totfact>
</mgrwt>
</event>
<event>
 4    1  0.1433582E+000  0.5131047E+02  0.7818608E-02  0.1438399E+00
          2   -1    0    0  501    0  0.00000000000E+00  0.00000000000E+00  0.19121612497E+02  0.19121612674E+02  0.26000000000E-02 0. -1.
         -2   -1    0    0    0  501 -0.00000000000E+00 -0.00000000000E+00 -0.34421319733E+02  0.34421319831E+02  0.26000000000E-02 0.  1.
        -11    1    1    2    0    0  0.25294498224E+02  0.20541861331E+01 -0.11576529564E+02  0.27893500283E+02  0.51100000000E-03 0. -1.
         11    1    1    2    0    0 -0.25294498224E+02 -0.20541861331E+01 -0.37231776716E+01  0.25649432222E+02  0.51100000000E-03 0.  1.
<mgrwt>
<rscale>  0 0.51310472E+02</rscale>
<asrwt>0</asrwt>
<pdfrwt beam="1">  1        2 0.29417866E-02 0.51310472E+02</pdfrwt>
<pdfrwt beam="2">  1       -2 0.52955877E-02 0.51310472E+02</pdfrwt>
<totfact> 0.40796366E+05</totfact>
</mgrwt>
</event>
<event>
 4    1  0.1433582E+000  0.4381660E+02  0.7818608E-02  0.1481867E+00
         -2   -1    0    0    0  501 -0.00000000000E+00  0.00000000000E+00  0.42448696506E+02  0.42448696585E+02  0.26000000000E-02 0. -1.
          2   -1    0    0  501    0  0.00000000000E+00 -0.00000000000E+00 -0.11307146513E+02  0.11307146812E+02  0.26000000000E-02 0.  1.
        -11    1    1    2    0    0  0.11841107478E+02 -0.13811407852E+02  0.59497350617E+00  0.18202219834E+02  0.51100000000E-03 0.  1.
         11    1    1    2    0    0 -0.11841107478E+02  0.13811407852E+02  0.30546576487E+02  0.35553623563E+02  0.51100000000E-03 0. -1.
<mgrwt>
<rscale>  0 0.43816601E+02</rscale>
<asrwt>0</asrwt>
<pdfrwt beam="2">  1        2 0.17395611E-02 0.43816601E+02</pdfrwt>
<pdfrwt beam="1">  1       -2 0.65305686E-02 0.43816601E+02</pdfrwt>
<totfact> 0.57395594E+05</totfact>
</mgrwt>
</event>
<event>
 4    1  0.1433582E+000  0.3036100E+02  0.7818608E-02  0.1594132E+00
         -2   -1    0    0    0  501 -0.00000000000E+00  0.00000000000E+00  0.13992086586E+01  0.13992110742E+01  0.26000000000E-02 0.  1.
          2   -1    0    0  501    0  0.00000000000E+00 -0.00000000000E+00 -0.16469832441E+03  0.16469832443E+03  0.26000000000E-02 0. -1.
        -11    1    1    2    0    0 -0.57139403770E+01 -0.14002171130E+02 -0.74438090351E+02  0.75958799400E+02  0.51100000000E-03 0. -1.
         11    1    1    2    0    0  0.57139403770E+01  0.14002171130E+02 -0.88861025402E+02  0.90138736106E+02  0.51100000000E-03 0.  1.
<mgrwt>
<rscale>  0 0.30360996E+02</rscale>
<asrwt>0</asrwt>
<pdfrwt beam="2">  1        2 0.25338189E-01 0.30360996E+02</pdfrwt>
<pdfrwt beam="1">  1       -2 0.21526319E-03 0.30360996E+02</pdfrwt>
<totfact> 0.23238489E+06</totfact>
</mgrwt>
</event>
<event>
 4    1  0.1433582E+000  0.2583696E+02  0.7818608E-02  0.1649263E+00
          2   -1    0    0  501    0  0.00000000000E+00  0.00000000000E+00  0.56334199302E+01  0.56334205302E+01  0.26000000000E-02 0. -1.
         -2   -1    0    0    0  501 -0.00000000000E+00 -0.00000000000E+00 -0.29624478222E+02  0.29624478336E+02  0.26000000000E-02 0.  1.
        -11    1    1    2    0    0  0.17421672745E+01  0.12767889379E+02 -0.10750052736E+02  0.16781471333E+02  0.51100000000E-03 0. -1.
         11    1    1    2    0    0 -0.17421672745E+01 -0.12767889379E+02 -0.13241005556E+02  0.18476427533E+02  0.51100000000E-03 0.  1.
<mgrwt>
<rscale>  0 0.25836961E+02</rscale>
<asrwt>0</asrwt>
<pdfrwt beam="1">  1        2 0.86668006E-03 0.25836961E+02</pdfrwt>
<pdfrwt beam="2">  1       -2 0.45576120E-02 0.25836961E+02</pdfrwt>
<totfact> 0.20455442E+06</totfact>
</mgrwt>
</event>
<event>
 4    1  0.1433582E+000  0.2133461E+02  0.7818608E-02  0.1720020E+00
          2   -1    0    0  501    0  0.00000000000E+00  0.00000000000E+00  0.43524807197E+01  0.43524814962E+01  0.26000000000E-02 0.  1.
         -2   -1    0    0    0  501 -0.00000000000E+00 -0.00000000000E+00 -0.26144027881E+02  0.26144028010E+02  0.26000000000E-02 0. -1.
        -11    1    1    2    0    0 -0.58763234237E+01  0.85589701476E+01 -0.14398406277E+02  0.17751091531E+02  0.51100000000E-03 0. -1.
         11    1    1    2    0    0  0.58763234237E+01 -0.85589701476E+01 -0.73931408839E+01  0.12745417975E+02  0.51100000000E-03 0.  1.
<mgrwt>
<rscale>  0 0.21334610E+02</rscale>
<asrwt>0</asrwt>
<pdfrwt beam="1">  1        2 0.66961250E-03 0.21334610E+02</pdfrwt>
<pdfrwt beam="2">  1       -2 0.40221581E-02 0.21334610E+02</pdfrwt>
<totfact> 0.31733500E+06</totfact>
</mgrwt>
</event>
<event>
 4    1  0.1433582E+000  0.3909972E+02  0.7818608E-02  0.1514943E+00
         -2   -1    0    0    0  501 -0.00000000000E+00  0.00000000000E+00  0.44483816672E+01  0.44483824270E+01  0.26000000000E-02 0. -1.
          2   -1    0    0  501    0  0.00000000000E+00 -0.00000000000E+00 -0.85918231237E+02  0.85918231276E+02  0.26000000000E-02 0.  1.
        -11    1    1    2    0    0 -0.10099570059E+02  0.94286397738E+01 -0.87689550361E+01  0.16364447319E+02  0.51100000000E-03 0. -1.
         11    1    1    2    0    0  0.10099570059E+02 -0.94286397738E+01 -0.72700894534E+02  0.74002166385E+02  0.51100000000E-03 0.  1.
<mgrwt>
<rscale>  0 0.39099725E+02</rscale>
<asrwt>0</asrwt>
<pdfrwt beam="2">  1        2 0.13218188E-01 0.39099725E+02</pdfrwt>
<pdfrwt beam="1">  1       -2 0.68436653E-03 0.39099725E+02</pdfrwt>
<totfact> 0.10651888E+06</totfact>
</mgrwt>
</event>
<event>
 4    1  0.1433582E+000  0.2098817E+02  0.7818608E-02  0.1726362E+00
         -2   -1    0    0    0  501 -0.00000000000E+00  0.00000000000E+00  0.31703936984E+01  0.31703947645E+01  0.26000000000E-02 0. -1.
          2   -1    0    0  501    0  0.00000000000E+00 -0.00000000000E+00 -0.34735686765E+02  0.34735686862E+02  0.26000000000E-02 0.  1.
        -11    1    1    2    0    0 -0.80030546978E+01 -0.67261099281E+01 -0.14130922769E+02  0.17577611266E+02  0.51100000000E-03 0.  1.
         11    1    1    2    0    0  0.80030546978E+01  0.67261099281E+01 -0.17434370298E+02  0.20328470360E+02  0.51100000000E-03 0. -1.
<mgrwt>
<rscale>  0 0.20988170E+02</rscale>
<asrwt>0</asrwt>
<pdfrwt beam="2">  1        2 0.53439516E-02 0.20988170E+02</pdfrwt>
<pdfrwt beam="1">  1       -2 0.48775299E-03 0.20988170E+02</pdfrwt>
<totfact> 0.39574124E+06</totfact>
</mgrwt>
</event>
<event>
 4    1  0.1433582E+000  0.2869315E+02  0.7818608E-02  0.1613000E+00
          2   -1    0    0  501    0  0.00000000000E+00  0.00000000000E+00  0.47944915415E+02  0.47944915485E+02  0.26000000000E-02 0.  1.
         -2   -1    0    0    0  501 -0.00000000000E+00 -0.00000000000E+00 -0.42929303332E+01  0.42929311205E+01  0.26000000000E-02 0. -1.
        -11    1    1    2    0    0 -0.72758326184E+01  0.11521247041E+02  0.13654228842E+02  0.19290278359E+02  0.51100000000E-03 0.  1.
         11    1    1    2    0    0  0.72758326184E+01 -0.11521247041E+02  0.29997756240E+02  0.32947568246E+02  0.51100000000E-03 0. -1.
<mgrwt>
<rscale>  0 0.28693149E+02</rscale>
<asrwt>0</asrwt>
<pdfrwt beam="1">  1        2 0.73761407E-02 0.28693149E+02</pdfrwt>
<pdfrwt beam="2">  1       -2 0.66045090E-03 0.28693149E+02</pdfrwt>
<totfact> 0.20075337E+06</totfact>
</mgrwt>
</event>
<event>
 4    1  0.1433582E+000  0.5101597E+02  0.7818608E-02  0.1439937E+00
          2   -1    0    0  501    0  0.00000000000E+00  0.00000000000E+00  0.94623138218E+01  0.94623141790E+01  0.26000000000E-02 0. -1.
         -2   -1    0    0    0  501 -0.00000000000E+00 -0.00000000000E+00 -0.68763021885E+02  0.68763021934E+02  0.26000000000E-02 0.  1.
        -11    1    1    2    0    0  0.19343423217E+02 -0.14634464406E+02 -0.17545457999E+02  0.29936243366E+02  0.51100000000E-03 0.  1.
         11    1    1    2    0    0 -0.19343423217E+02  0.14634464406E+02 -0.41755250064E+02  0.48289092748E+02  0.51100000000E-03 0. -1.
<mgrwt>
<rscale>  0 0.51015970E+02</rscale>
<asrwt>0</asrwt>
<pdfrwt beam="1">  1        2 0.14557407E-02 0.51015970E+02</pdfrwt>
<pdfrwt beam="2">  1       -2 0.10578926E-01 0.51015970E+02</pdfrwt>
<totfact> 0.36582578E+05</totfact>
</mgrwt>
</event>
<event>
 4    1  0.1433582E+000  0.3427669E+02  0.7818608E-02  0.1555119E+00
         -2   -1    0    0    0  501 -0.00000000000E+00  0.00000000000E+00  0.11020446935E+03  0.11020446938E+03  0.26000000000E-02 0. -1.
          2   -1    0    0  501    0  0.00000000000E+00 -0.00000000000E+00 -0.26652530704E+01  0.26652543385E+01  0.26000000000E-02 0.  1.
        -11    1    1    2    0    0  0.15495890515E+02  0.42474111114E+01  0.73405829875E+02  0.75143722185E+02  0.51100000000E-03 0. -1.
         11    1    1    2    0    0 -0.15495890515E+02 -0.42474111114E+01  0.34133386404E+02  0.37726001533E+02  0.51100000000E-03 0.  1.
<mgrwt>
<rscale>  0 0.34276690E+02</rscale>
<asrwt>0</asrwt>
<pdfrwt beam="2">  1        2 0.41003901E-03 0.34276690E+02</pdfrwt>
<pdfrwt beam="1">  1       -2 0.16954535E-01 0.34276690E+02</pdfrwt>
<totfact> 0.85247047E+05</totfact>
</mgrwt>
</event>
<event>
 4    1  0.1433582E+000  0.4349640E+02  0.7818608E-02  0.1483953E+00
          2   -1    0    0  501    0  0.00000000000E+00  0.00000000000E+00  0.12826395292E+03  0.12826395295E+03  0.26000000000E-02 0. -1.
         -2   -1    0    0    0  501 -0.00000000000E+00 -0.00000000000E+00 -0.36875839665E+01  0.36875848831E+01  0.26000000000E-02 0.  1.
        -11    1    1    2    0    0 -0.33838363912E+01 -0.21477550889E+02  0.63800794017E+02  0.67403834152E+02  0.51100000000E-03 0. -1.
         11    1    1    2    0    0  0.33838363912E+01  0.21477550889E+02  0.60775574936E+02  0.64547703677E+02  0.51100000000E-03 0.  1.
<mgrwt>
<rscale>  0 0.43496398E+02</rscale>
<asrwt>0</asrwt>
<pdfrwt beam="1">  1        2 0.19732917E-01 0.43496398E+02</pdfrwt>
<pdfrwt beam="2">  1       -2 0.56732065E-03 0.43496398E+02</pdfrwt>
<totfact> 0.90807655E+05</totfact>
</mgrwt>
</event>
<event>
 4    1  0.1433582E+000  0.2132795E+02  0.7818608E-02  0.1720141E+00
          2   -1    0    0  501    0  0.00000000000E+00  0.00000000000E+00  0.39170153909E+01  0.39170162538E+01  0.26000000000E-02 0. -1.
         -2   -1    0    0    0  501 -0.00000000000E+00 -0.00000000000E+00 -0.29032383665E+02  0.29032383781E+02  0.26000000000E-02 0.  1.
        -11    1    1    2    0    0  0.64280208661E+01 -0.85073141121E+01 -0.12809003032E+02  0.16666265466E+02  0.51100000000E-03 0.  1.
         11    1    1    2    0    0 -0.64280208661E+01  0.85073141121E+01 -0.12306365242E+02  0.16283134569E+02  0.51100000000E-03 0. -1.
<mgrwt>
<rscale>  0 0.21327945E+02</rscale>
<asrwt>0</asrwt>
<pdfrwt beam="1">  1        2 0.60261785E-03 0.21327945E+02</pdfrwt>
<pdfrwt beam="2">  1       -2 0.44665205E-02 0.21327945E+02</pdfrwt>
<totfact> 0.31428210E+06</totfact>
</mgrwt>
</event>
<event>
 4    1  0.1433582E+000  0.2215948E+02  0.7818608E-02  0.1705508E+00
          2   -1    0    0  501    0  0.00000000000E+00  0.00000000000E+00  0.49445009552E+01  0.49445016387E+01  0.26000000000E-02 0.  1.
         -2   -1    0    0    0  501 -0.00000000000E+00 -0.00000000000E+00 -0.24827702450E+02  0.24827702587E+02  0.26000000000E-02 0. -1.
        -11    1    1    2    0    0 -0.57189904935E+01  0.85693337573E+01 -0.44642493487E+01  0.11228083355E+02  0.51100000000E-03 0.  1.
         11    1    1    2    0    0  0.57189904935E+01 -0.85693337573E+01 -0.15418952147E+02  0.18544120871E+02  0.51100000000E-03 0. -1.
<mgrwt>
<rscale>  0 0.22159477E+02</rscale>
<asrwt>0</asrwt>
<pdfrwt beam="1">  1        2 0.76069253E-03 0.22159477E+02</pdfrwt>
<pdfrwt beam="2">  1       -2 0.38196465E-02 0.22159477E+02</pdfrwt>
<totfact> 0.29332673E+06</totfact>
</mgrwt>
</event>
<event>
 4    1  0.1433582E+000  0.2486396E+02  0.7818608E-02  0.1662964E+00
         -2   -1    0    0    0  501 -0.00000000000E+00  0.00000000000E+00  0.31846433268E+02  0.31846433374E+02  0.26000000000E-02 0.  1.
          2   -1    0    0  501    0  0.00000000000E+00 -0.00000000000E+00 -0.48531058211E+01  0.48531065176E+01  0.26000000000E-02 0. -1.
        -11    1    1    2    0    0  0.15166277828E+01  0.11767437024E+02  0.80172151744E+01  0.14319513726E+02  0.51100000000E-03 0. -1.
         11    1    1    2    0    0 -0.15166277828E+01 -0.11767437024E+02  0.18976112272E+02  0.22380026166E+02  0.51100000000E-03 0.  1.
<mgrwt>
<rscale>  0 0.24863960E+02</rscale>
<asrwt>0</asrwt>
<pdfrwt beam="2">  1        2 0.74663175E-03 0.24863960E+02</pdfrwt>
<pdfrwt beam="1">  1       -2 0.48994512E-02 0.24863960E+02</pdfrwt>
<totfact> 0.22126588E+06</totfact>
</mgrwt>
</event>
<event>
 4    1  0.1433582E+000  0.2811998E+02  0.7818608E-02  0.1619851E+00
         -2   -1    0    0    0  501 -0.00000000000E+00  0.00000000000E+00  0.62316952242E+01  0.62316957666E+01  0.26000000000E-02 0.  1.
          2   -1    0    0  501    0  0.00000000000E+00 -0.00000000000E+00 -0.31722234237E+02  0.31722234343E+02  0.26000000000E-02 0. -1.
        -11    1    1    2    0    0 -0.10713973091E+02 -0.31083282387E+01 -0.24295571612E+02  0.26734354753E+02  0.51100000000E-03 0. -1.
         11    1    1    2    0    0  0.10713973091E+02  0.31083282387E+01 -0.11949674006E+01  0.11219575357E+02  0.51100000000E-03 0.  1.
<mgrwt>
<rscale>  0 0.28119979E+02</rscale>
<asrwt>0</asrwt>
<pdfrwt beam="2">  1        2 0.48803437E-02 0.28119979E+02</pdfrwt>
<pdfrwt beam="1">  1       -2 0.95872241E-03 0.28119979E+02</pdfrwt>
<totfact> 0.19869167E+06</totfact>
</mgrwt>
</event>
<event>
 4    1  0.1433582E+000  0.2622851E+02  0.7818608E-02  0.1643959E+00
          2   -1    0    0  501    0  0.00000000000E+00  0.00000000000E+00  0.10905541844E+02  0.10905542154E+02  0.26000000000E-02 0.  1.
         -2   -1    0    0    0  501 -0.00000000000E+00 -0.00000000000E+00 -0.15770297619E+02  0.15770297833E+02  0.26000000000E-02 0. -1.
        -11    1    1    2    0    0  0.13378379921E+01 -0.10213653878E+02  0.58223965594E+01  0.11832533034E+02  0.51100000000E-03 0.  1.
         11    1    1    2    0    0 -0.13378379921E+01  0.10213653878E+02 -0.10687152334E+02  0.14843306953E+02  0.51100000000E-03 0. -1.
<mgrwt>
<rscale>  0 0.26228507E+02</rscale>
<asrwt>0</asrwt>
<pdfrwt beam="1">  1        2 0.16777757E-02 0.26228507E+02</pdfrwt>
<pdfrwt beam="2">  1       -2 0.24261997E-02 0.26228507E+02</pdfrwt>
<totfact> 0.21031680E+06</totfact>
</mgrwt>
</event>
<event>
 4    1  0.1433582E+000  0.3622391E+02  0.7818608E-02  0.1537993E+00
         -2   -1    0    0    0  501 -0.00000000000E+00  0.00000000000E+00  0.19918747937E+01  0.19918764906E+01  0.26000000000E-02 0.  1.
          2   -1    0    0  501    0  0.00000000000E+00 -0.00000000000E+00 -0.16469046094E+03  0.16469046096E+03  0.26000000000E-02 0. -1.
        -11    1    1    2    0    0  0.11928960390E+02  0.13570450661E+02 -0.75554954152E+02  0.77685316015E+02  0.51100000000E-03 0.  1.
         11    1    1    2    0    0 -0.11928960390E+02 -0.13570450661E+02 -0.87143631991E+02  0.88997021433E+02  0.51100000000E-03 0. -1.
<mgrwt>
<rscale>  0 0.36223910E+02</rscale>
<asrwt>0</asrwt>
<pdfrwt beam="2">  1        2 0.25336983E-01 0.36223910E+02</pdfrwt>
<pdfrwt beam="1">  1       -2 0.30644254E-03 0.36223910E+02</pdfrwt>
<totfact> 0.15273832E+06</totfact>
</mgrwt>
</event>
<event>
 4    1  0.1433582E+000  0.3624059E+02  0.7818608E-02  0.1537852E+00
         -2   -1    0    0    0  501 -0.00000000000E+00  0.00000000000E+00  0.68702221569E+01  0.68702226489E+01  0.26000000000E-02 0. -1.
          2   -1    0    0  501    0  0.00000000000E+00 -0.00000000000E+00 -0.47792495730E+02  0.47792495801E+02  0.26000000000E-02 0.  1.
        -11    1    1    2    0    0 -0.12549632312E+02  0.20968783235E+01 -0.10010721830E+01  0.12762927393E+02  0.51100000000E-03 0. -1.
         11    1    1    2    0    0  0.12549632312E+02 -0.20968783235E+01 -0.39921201390E+02  0.41899791056E+02  0.51100000000E-03 0.  1.
<mgrwt>
<rscale>  0 0.36240589E+02</rscale>
<asrwt>0</asrwt>
<pdfrwt beam="2">  1        2 0.73526915E-02 0.36240589E+02</pdfrwt>
<pdfrwt beam="1">  1       -2 0.10569573E-02 0.36240589E+02</pdfrwt>
<totfact> 0.11427033E+06</totfact>
</mgrwt>
</event>
<event>
 4    1  0.1433582E+000  0.2137100E+02  0.7818608E-02  0.1719363E+00
         -2   -1    0    0    0  501 -0.00000000000E+00  0.00000000000E+00  0.12763710742E+01  0.12763737223E+01  0.26000000000E-02 0. -1.
          2   -1    0    0  501    0  0.00000000000E+00 -0.00000000000E+00 -0.89456591943E+02  0.89456591981E+02  0.26000000000E-02 0.  1.
        -11    1    1    2    0    0  0.31578333549E+01 -0.94979912570E+01 -0.28206655881E+02  0.29929904538E+02  0.51100000000E-03 0. -1.
         11    1    1    2    0    0 -0.31578333549E+01  0.94979912570E+01 -0.59973564988E+02  0.60803061165E+02  0.51100000000E-03 0.  1.
<mgrwt>
<rscale>  0 0.21371002E+02</rscale>
<asrwt>0</asrwt>
<pdfrwt beam="2">  1        2 0.13762548E-01 0.21371002E+02</pdfrwt>
<pdfrwt beam="1">  1       -2 0.19636506E-03 0.21371002E+02</pdfrwt>
<totfact> 0.44422218E+06</totfact>
</mgrwt>
</event>
<event>
 4    1  0.1433582E+000  0.3586601E+02  0.7818608E-02  0.1541042E+00
         -2   -1    0    0    0  501 -0.00000000000E+00  0.00000000000E+00  0.70265208665E+01  0.70265213476E+01  0.26000000000E-02 0.  1.
          2   -1    0    0  501    0  0.00000000000E+00 -0.00000000000E+00 -0.45768405246E+02  0.45768405319E+02  0.26000000000E-02 0. -1.
        -11    1    1    2    0    0 -0.14439391935E+02  0.10608415664E+02 -0.20470665005E+02  0.27204460082E+02  0.51100000000E-03 0. -1.
         11    1    1    2    0    0  0.14439391935E+02 -0.10608415664E+02 -0.18271219375E+02  0.25590466585E+02  0.51100000000E-03 0.  1.
<mgrwt>
<rscale>  0 0.35866010E+02</rscale>
<asrwt>0</asrwt>
<pdfrwt beam="2">  1        2 0.70412930E-02 0.35866010E+02</pdfrwt>
<pdfrwt beam="1">  1       -2 0.10810033E-02 0.35866010E+02</pdfrwt>
<totfact> 0.11638793E+06</totfact>
</mgrwt>
</event>
<event>
 4    1  0.1433582E+000  0.7568375E+02  0.7818608E-02  0.1341767E+00
          2   -1    0    0  501    0  0.00000000000E+00  0.00000000000E+00  0.72318524503E+01  0.72318529177E+01  0.26000000000E-02 0. -1.
         -2   -1    0    0    0  501 -0.00000000000E+00 -0.00000000000E+00 -0.19801393231E+03  0.19801393233E+03  0.26000000000E-02 0.  1.
        -11    1    1    2    0    0 -0.22143946343E+02  0.21177919447E+02 -0.35168280348E+02  0.46644041148E+02  0.51100000000E-03 0. -1.
         11    1    1    2    0    0  0.22143946343E+02 -0.21177919447E+02 -0.15561379951E+03  0.15860174410E+03  0.51100000000E-03 0.  1.
<mgrwt>
<rscale>  0 0.75683752E+02</rscale>
<asrwt>0</asrwt>
<pdfrwt beam="1">  1        2 0.11125929E-02 0.75683752E+02</pdfrwt>
<pdfrwt beam="2">  1       -2 0.30463678E-01 0.75683752E+02</pdfrwt>
<totfact> 0.10051642E+05</totfact>
</mgrwt>
</event>
<event>
 4    1  0.1433582E+000  0.2637025E+02  0.7818608E-02  0.1642066E+00
          2   -1    0    0  501    0  0.00000000000E+00  0.00000000000E+00  0.82321712090E+01  0.82321716196E+01  0.26000000000E-02 0.  1.
         -2   -1    0    0    0  501 -0.00000000000E+00 -0.00000000000E+00 -0.21118057369E+02  0.21118057529E+02  0.26000000000E-02 0. -1.
        -11    1    1    2    0    0 -0.12889400798E+02  0.14106884074E+01 -0.91050459285E+01  0.15843880722E+02  0.51100000000E-03 0. -1.
         11    1    1    2    0    0  0.12889400798E+02 -0.14106884074E+01 -0.37808402318E+01  0.13506348427E+02  0.51100000000E-03 0.  1.
<mgrwt>
<rscale>  0 0.26370246E+02</rscale>
<asrwt>0</asrwt>
<pdfrwt beam="1">  1        2 0.12664879E-02 0.26370246E+02</pdfrwt>
<pdfrwt beam="2">  1       -2 0.32489319E-02 0.26370246E+02</pdfrwt>
<totfact> 0.20219620E+06</totfact>
</mgrwt>
</event>
<event>
 4    1  0.1433582E+000  0.3497139E+02  0.7818608E-02  0.1548855E+00
         -2   -1    0    0    0  501 -0.00000000000E+00  0.00000000000E+00  0.17111042723E+02  0.17111042920E+02  0.26000000000E-02 0.  1.
          2   -1    0    0  501    0  0.00000000000E+00 -0.00000000000E+00 -0.17868545208E+02  0.17868545398E+02  0.26000000000E-02 0. -1.
        -11    1    1    2    0    0 -0.11718197456E+02  0.98177275639E+00 -0.13322784286E+02  0.17770104411E+02  0.51100000000E-03 0. -1.
         11    1    1    2    0    0  0.11718197456E+02 -0.98177275639E+00  0.12565281800E+02  0.17209483907E+02  0.51100000000E-03 0.  1.
<mgrwt>
<rscale>  0 0.34971385E+02</rscale>
<asrwt>0</asrwt>
<pdfrwt beam="2">  1        2 0.27490070E-02 0.34971385E+02</pdfrwt>
<pdfrwt beam="1">  1       -2 0.26324681E-02 0.34971385E+02</pdfrwt>
<totfact> 0.10920275E+06</totfact>
</mgrwt>
</event>
<event>
 4    1  0.1433582E+000  0.2057662E+02  0.7818608E-02  0.1734098E+00
         -2   -1    0    0    0  501 -0.00000000000E+00  0.00000000000E+00  0.14814142829E+02  0.14814143058E+02  0.26000000000E-02 0. -1.
          2   -1    0    0  501    0  0.00000000000E+00 -0.00000000000E+00 -0.71451552842E+01  0.71451557572E+01  0.26000000000E-02 0.  1.
        -11    1    1    2    0    0  0.17393178281E+01 -0.98754939675E+01  0.13779126921E+01  0.10121721754E+02  0.51100000000E-03 0.  1.
         11    1    1    2    0    0 -0.17393178281E+01  0.98754939675E+01  0.62910748531E+01  0.11837577061E+02  0.51100000000E-03 0. -1.
<mgrwt>
<rscale>  0 0.20576623E+02</rscale>
<asrwt>0</asrwt>
<pdfrwt beam="2">  1        2 0.10992547E-02 0.20576623E+02</pdfrwt>
<pdfrwt beam="1">  1       -2 0.22790989E-02 0.20576623E+02</pdfrwt>
<totfact> 0.36046026E+06</totfact>
</mgrwt>
</event>
<event>
 4    1  0.1433582E+000  0.3926127E+02  0.7818608E-02  0.1513719E+00
          2   -1    0    0  501    0  0.00000000000E+00  0.00000000000E+00  0.26579505607E+02  0.26579505734E+02  0.26000000000E-02 0. -1.
         -2   -1    0    0    0  501 -0.00000000000E+00 -0.00000000000E+00 -0.14498454578E+02  0.14498454811E+02  0.26000000000E-02 0.  1.
        -11    1    1    2    0    0  0.10956038706E+02 -0.93870532153E+01  0.19968531281E+02  0.24635214510E+02  0.51100000000E-03 0. -1.
         11    1    1    2    0    0 -0.10956038706E+02  0.93870532153E+01 -0.78874802518E+01  0.16442746035E+02  0.51100000000E-03 0.  1.
<mgrwt>
<rscale>  0 0.39261267E+02</rscale>
<asrwt>0</asrwt>
<pdfrwt beam="1">  1        2 0.40891547E-02 0.39261267E+02</pdfrwt>
<pdfrwt beam="2">  1       -2 0.22305315E-02 0.39261267E+02</pdfrwt>
<totfact> 0.85815919E+05</totfact>
</mgrwt>
</event>
<event>
 4    1  0.1433582E+000  0.2934990E+02  0.7818608E-02  0.1605388E+00
          2   -1    0    0  501    0  0.00000000000E+00  0.00000000000E+00  0.86293153454E+01  0.86293157371E+01  0.26000000000E-02 0. -1.
         -2   -1    0    0    0  501 -0.00000000000E+00 -0.00000000000E+00 -0.24956112812E+02  0.24956112947E+02  0.26000000000E-02 0.  1.
        -11    1    1    2    0    0  0.13441407414E+02  0.15554337811E+01 -0.16636120403E+01  0.13632989870E+02  0.51100000000E-03 0. -1.
         11    1    1    2    0    0 -0.13441407414E+02 -0.15554337811E+01 -0.14663185426E+02  0.19952438814E+02  0.51100000000E-03 0.  1.
<mgrwt>
<rscale>  0 0.29349901E+02</rscale>
<asrwt>0</asrwt>
<pdfrwt beam="1">  1        2 0.13275870E-02 0.29349901E+02</pdfrwt>
<pdfrwt beam="2">  1       -2 0.38394020E-02 0.29349901E+02</pdfrwt>
<totfact> 0.15610685E+06</totfact>
</mgrwt>
</event>
<event>
 4    1  0.1433582E+000  0.2884867E+02  0.7818608E-02  0.1611175E+00
         -2   -1    0    0    0  501 -0.00000000000E+00  0.00000000000E+00  0.24886094568E+01  0.24886108149E+01  0.26000000000E-02 0.  1.
          2   -1    0    0  501    0  0.00000000000E+00 -0.00000000000E+00 -0.83605457591E+02  0.83605457631E+02  0.26000000000E-02 0. -1.
        -11    1    1    2    0    0 -0.42716996092E+01 -0.13723724949E+02 -0.36935992427E+02  0.39634020498E+02  0.51100000000E-03 0. -1.
         11    1    1    2    0    0  0.42716996092E+01  0.13723724949E+02 -0.44180855707E+02  0.46460047948E+02  0.51100000000E-03 0.  1.
<mgrwt>
<rscale>  0 0.28848667E+02</rscale>
<asrwt>0</asrwt>
<pdfrwt beam="2">  1        2 0.12862376E-01 0.28848667E+02</pdfrwt>
<pdfrwt beam="1">  1       -2 0.38286316E-03 0.28848667E+02</pdfrwt>
<totfact> 0.21990867E+06</totfact>
</mgrwt>
</event>
<event>
 4    1  0.1433582E+000  0.2205880E+02  0.7818608E-02  0.1707237E+00
         -2   -1    0    0    0  501 -0.00000000000E+00  0.00000000000E+00  0.51956095309E+01  0.51956101814E+01  0.26000000000E-02 0. -1.
          2   -1    0    0  501    0  0.00000000000E+00 -0.00000000000E+00 -0.23413546291E+02  0.23413546435E+02  0.26000000000E-02 0.  1.
        -11    1    1    2    0    0 -0.10828854074E+01 -0.10960938383E+02 -0.98572132740E+01  0.14781050871E+02  0.51100000000E-03 0.  1.
         11    1    1    2    0    0  0.10828854074E+01  0.10960938383E+02 -0.83607234858E+01  0.13828105746E+02  0.51100000000E-03 0. -1.
<mgrwt>
<rscale>  0 0.22058799E+02</rscale>
<asrwt>0</asrwt>
<pdfrwt beam="2">  1        2 0.36020840E-02 0.22058799E+02</pdfrwt>
<pdfrwt beam="1">  1       -2 0.79932462E-03 0.22058799E+02</pdfrwt>
<totfact> 0.33847208E+06</totfact>
</mgrwt>
</event>
<event>
 4    1  0.1433582E+000  0.2175654E+02  0.7818608E-02  0.1712497E+00
          2   -1    0    0  501    0  0.00000000000E+00  0.00000000000E+00  0.19382672671E+01  0.19382690109E+01  0.26000000000E-02 0.  1.
         -2   -1    0    0    0  501 -0.00000000000E+00 -0.00000000000E+00 -0.61052832330E+02  0.61052832386E+02  0.26000000000E-02 0. -1.
        -11    1    1    2    0    0 -0.15335805116E+01 -0.10416155499E+02 -0.21634282988E+02  0.24060140591E+02  0.51100000000E-03 0.  1.
         11    1    1    2    0    0  0.15335805116E+01  0.10416155499E+02 -0.37480282075E+02  0.38930960806E+02  0.51100000000E-03 0. -1.
<mgrwt>
<rscale>  0 0.21756540E+02</rscale>
<asrwt>0</asrwt>
<pdfrwt beam="1">  1        2 0.29819515E-03 0.21756540E+02</pdfrwt>
<pdfrwt beam="2">  1       -2 0.93927421E-02 0.21756540E+02</pdfrwt>
<totfact> 0.27305961E+06</totfact>
</mgrwt>
</event>
<event>
 4    1  0.1433582E+000  0.2215375E+02  0.7818608E-02  0.1705606E+00
         -2   -1    0    0    0  501 -0.00000000000E+00  0.00000000000E+00  0.43091551726E+01  0.43091559570E+01  0.26000000000E-02 0. -1.
          2   -1    0    0  501    0  0.00000000000E+00 -0.00000000000E+00 -0.28473590458E+02  0.28473590577E+02  0.26000000000E-02 0.  1.
        -11    1    1    2    0    0 -0.28432410329E+01 -0.10618257250E+02 -0.10060957357E+02  0.14901485490E+02  0.51100000000E-03 0. -1.
         11    1    1    2    0    0  0.28432410329E+01  0.10618257250E+02 -0.14103477929E+02  0.17881261044E+02  0.51100000000E-03 0.  1.
<mgrwt>
<rscale>  0 0.22153748E+02</rscale>
<asrwt>0</asrwt>
<pdfrwt beam="2">  1        2 0.43805523E-02 0.22153748E+02</pdfrwt>
<pdfrwt beam="1">  1       -2 0.66294704E-03 0.22153748E+02</pdfrwt>
<totfact> 0.34206262E+06</totfact>
</mgrwt>
</event>
<event>
 4    1  0.1433582E+000  0.2566752E+02  0.7818608E-02  0.1651595E+00
         -2   -1    0    0    0  501 -0.00000000000E+00  0.00000000000E+00  0.76577777263E+01  0.76577781676E+01  0.26000000000E-02 0. -1.
          2   -1    0    0  501    0  0.00000000000E+00 -0.00000000000E+00 -0.21508247643E+02  0.21508247800E+02  0.26000000000E-02 0.  1.
        -11    1    1    2    0    0 -0.67556090493E+01 -0.10876935630E+02 -0.59350180567E+01  0.14112775132E+02  0.51100000000E-03 0. -1.
         11    1    1    2    0    0  0.67556090493E+01  0.10876935630E+02 -0.79154518603E+01  0.15053250836E+02  0.51100000000E-03 0.  1.
<mgrwt>
<rscale>  0 0.25667519E+02</rscale>
<asrwt>0</asrwt>
<pdfrwt beam="2">  1        2 0.33089612E-02 0.25667519E+02</pdfrwt>
<pdfrwt beam="1">  1       -2 0.11781197E-02 0.25667519E+02</pdfrwt>
<totfact> 0.23602189E+06</totfact>
</mgrwt>
</event>
<event>
 4    1  0.1433582E+000  0.2769037E+02  0.7818608E-02  0.1625118E+00
          2   -1    0    0  501    0  0.00000000000E+00  0.00000000000E+00  0.78513859611E+01  0.78513863916E+01  0.26000000000E-02 0. -1.
         -2   -1    0    0    0  501 -0.00000000000E+00 -0.00000000000E+00 -0.24414692621E+02  0.24414692759E+02  0.26000000000E-02 0.  1.
        -11    1    1    2    0    0  0.80918731611E+01 -0.11213464947E+02 -0.74836716796E+01  0.15723407692E+02  0.51100000000E-03 0. -1.
         11    1    1    2    0    0 -0.80918731611E+01  0.11213464947E+02 -0.90796349800E+01  0.16542671459E+02  0.51100000000E-03 0.  1.
<mgrwt>
<rscale>  0 0.27690373E+02</rscale>
<asrwt>0</asrwt>
<pdfrwt beam="1">  1        2 0.12079056E-02 0.27690373E+02</pdfrwt>
<pdfrwt beam="2">  1       -2 0.37561066E-02 0.27690373E+02</pdfrwt>
<totfact> 0.17852692E+06</totfact>
</mgrwt>
</event>
<event>
 4    1  0.1433582E+000  0.8033241E+02  0.7818608E-02  0.1328111E+00
         -2   -1    0    0    0  501 -0.00000000000E+00  0.00000000000E+00  0.72975111044E+02  0.72975111090E+02  0.26000000000E-02 0.  1.
          2   -1    0    0  501    0  0.00000000000E+00 -0.00000000000E+00 -0.22107864993E+02  0.22107865146E+02  0.26000000000E-02 0. -1.
        -11    1    1    2    0    0  0.12786037921E+02 -0.71363717375E+01 -0.18836159933E+02  0.23858153503E+02  0.51100000000E-03 0. -1.
         11    1    1    2    0    0 -0.12786037921E+02  0.71363717375E+01  0.69703405984E+02  0.71224822733E+02  0.51100000000E-03 0.  1.
<mgrwt>
<rscale>  0 0.80332407E+02</rscale>
<asrwt>0</asrwt>
<pdfrwt beam="2">  1        2 0.34012100E-02 0.80332407E+02</pdfrwt>
<pdfrwt beam="1">  1       -2 0.11226940E-01 0.80332407E+02</pdfrwt>
<totfact> 0.11893388E+05</totfact>
</mgrwt>
</event>
<event>
 4    1  0.1433582E+000  0.3327919E+02  0.7818608E-02  0.1564435E+00
          2   -1    0    0  501    0  0.00000000000E+00  0.00000000000E+00  0.59327137673E+02  0.59327137730E+02  0.26000000000E-02 0. -1.
         -2   -1    0    0    0  501 -0.00000000000E+00 -0.00000000000E+00 -0.46669370715E+01  0.46669377957E+01  0.26000000000E-02 0.  1.
        -11    1    1    2    0    0  0.15528511968E+02  0.47860672378E+00  0.15870843524E+02  0.22209174293E+02  0.51100000000E-03 0. -1.
         11    1    1    2    0    0 -0.15528511968E+02 -0.47860672378E+00  0.38789357077E+02  0.41784901233E+02  0.51100000000E-03 0.  1.
<mgrwt>
<rscale>  0 0.33279185E+02</rscale>
<asrwt>0</asrwt>
<pdfrwt beam="1">  1        2 0.91272520E-02 0.33279185E+02</pdfrwt>
<pdfrwt beam="2">  1       -2 0.71799038E-03 0.33279185E+02</pdfrwt>
<totfact> 0.14604845E+06</totfact>
</mgrwt>
</event>
<event>
 4    1  0.1433582E+000  0.3641997E+02  0.7818608E-02  0.1536341E+00
          2   -1    0    0  501    0  0.00000000000E+00  0.00000000000E+00  0.48439130369E+01  0.48439137347E+01  0.26000000000E-02 0.  1.
         -2   -1    0    0    0  501 -0.00000000000E+00 -0.00000000000E+00 -0.68457785938E+02  0.68457785987E+02  0.26000000000E-02 0. -1.
        -11    1    1    2    0    0  0.11401468621E+02 -0.85553225873E+01 -0.89990548312E+01  0.16857343190E+02  0.51100000000E-03 0.  1.
         11    1    1    2    0    0 -0.11401468621E+02  0.85553225873E+01 -0.54614818070E+02  0.56444356532E+02  0.51100000000E-03 0. -1.
<mgrwt>
<rscale>  0 0.36419972E+02</rscale>
<asrwt>0</asrwt>
<pdfrwt beam="1">  1        2 0.74521749E-03 0.36419972E+02</pdfrwt>
<pdfrwt beam="2">  1       -2 0.10531966E-01 0.36419972E+02</pdfrwt>
<totfact> 0.82101427E+05</totfact>
</mgrwt>
</event>
<event>
 4    1  0.1433582E+000  0.4516789E+02  0.7818608E-02  0.1473296E+00
          2   -1    0    0  501    0  0.00000000000E+00  0.00000000000E+00  0.63706916601E+02  0.63706916654E+02  0.26000000000E-02 0.  1.
         -2   -1    0    0    0  501 -0.00000000000E+00 -0.00000000000E+00 -0.80059520456E+01  0.80059524678E+01  0.26000000000E-02 0. -1.
        -11    1    1    2    0    0  0.17236348162E+02  0.69483634476E+01  0.74769921978E+01  0.20031896194E+02  0.51100000000E-03 0.  1.
         11    1    1    2    0    0 -0.17236348162E+02 -0.69483634476E+01  0.48223972357E+02  0.51680972927E+02  0.51100000000E-03 0. -1.
<mgrwt>
<rscale>  0 0.45167888E+02</rscale>
<asrwt>0</asrwt>
<pdfrwt beam="1">  1        2 0.98010642E-02 0.45167888E+02</pdfrwt>
<pdfrwt beam="2">  1       -2 0.12316850E-02 0.45167888E+02</pdfrwt>
<totfact> 0.69701540E+05</totfact>
</mgrwt>
</event>
<event>
 4    1  0.1433582E+000  0.2726915E+02  0.7818608E-02  0.1630397E+00
          2   -1    0    0  501    0  0.00000000000E+00  0.00000000000E+00  0.46887902870E+02  0.46887902942E+02  0.26000000000E-02 0.  1.
         -2   -1    0    0    0  501 -0.00000000000E+00 -0.00000000000E+00 -0.39648101656E+01  0.39648110181E+01  0.26000000000E-02 0. -1.
        -11    1    1    2    0    0  0.76449643177E+01  0.95959035605E+01  0.10370064236E+02  0.16064404038E+02  0.51100000000E-03 0. -1.
         11    1    1    2    0    0 -0.76449643177E+01 -0.95959035605E+01  0.32553028468E+02  0.34788309923E+02  0.51100000000E-03 0.  1.
<mgrwt>
<rscale>  0 0.27269152E+02</rscale>
<asrwt>0</asrwt>
<pdfrwt beam="1">  1        2 0.72135230E-02 0.27269152E+02</pdfrwt>
<pdfrwt beam="2">  1       -2 0.60997091E-03 0.27269152E+02</pdfrwt>
<totfact> 0.22556249E+06</totfact>
</mgrwt>
</event>
<event>
 4    1  0.1433582E+000  0.2430583E+02  0.7818608E-02  0.1671177E+00
         -2   -1    0    0    0  501 -0.00000000000E+00  0.00000000000E+00  0.10369579107E+03  0.10369579111E+03  0.26000000000E-02 0. -1.
          2   -1    0    0  501    0  0.00000000000E+00 -0.00000000000E+00 -0.14242932392E+01  0.14242956123E+01  0.26000000000E-02 0.  1.
        -11    1    1    2    0    0 -0.10201606164E+02  0.64965992053E+01  0.45991543535E+02  0.47555237846E+02  0.51100000000E-03 0.  1.
         11    1    1    2    0    0  0.10201606164E+02 -0.64965992053E+01  0.56279954299E+02  0.57564848873E+02  0.51100000000E-03 0. -1.
<mgrwt>
<rscale>  0 0.24305830E+02</rscale>
<asrwt>0</asrwt>
<pdfrwt beam="2">  1        2 0.21912225E-03 0.24305830E+02</pdfrwt>
<pdfrwt beam="1">  1       -2 0.15953197E-01 0.24305830E+02</pdfrwt>
<totfact> 0.19125835E+06</totfact>
</mgrwt>
</event>
<event>
 4    1  0.1433582E+000  0.2836432E+02  0.7818608E-02  0.1616906E+00
         -2   -1    0    0    0  501 -0.00000000000E+00  0.00000000000E+00  0.10596120695E+02  0.10596121014E+02  0.26000000000E-02 0. -1.
          2   -1    0    0  501    0  0.00000000000E+00 -0.00000000000E+00 -0.18981820893E+02  0.18981821071E+02  0.26000000000E-02 0.  1.
        -11    1    1    2    0    0  0.15222008006E+01 -0.10974602233E+02 -0.13424587980E+02  0.17406279101E+02  0.51100000000E-03 0.  1.
         11    1    1    2    0    0 -0.15222008006E+01  0.10974602233E+02  0.50388877815E+01  0.12171662984E+02  0.51100000000E-03 0. -1.
<mgrwt>
<rscale>  0 0.28364321E+02</rscale>
<asrwt>0</asrwt>
<pdfrwt beam="2">  1        2 0.29202802E-02 0.28364321E+02</pdfrwt>
<pdfrwt beam="1">  1       -2 0.16301725E-02 0.28364321E+02</pdfrwt>
<totfact> 0.18371887E+06</totfact>
</mgrwt>
</event>
<event>
 4    1  0.1433582E+000  0.3954986E+02  0.7818608E-02  0.1511550E+00
          2   -1    0    0  501    0  0.00000000000E+00  0.00000000000E+00  0.23477602484E+02  0.23477602628E+02  0.26000000000E-02 0. -1.
         -2   -1    0    0    0  501 -0.00000000000E+00 -0.00000000000E+00 -0.16656212275E+02  0.16656212478E+02  0.26000000000E-02 0.  1.
        -11    1    1    2    0    0 -0.51254628062E+01 -0.18854964948E+02  0.64999611047E+01  0.20591978215E+02  0.51100000000E-03 0.  1.
         11    1    1    2    0    0  0.51254628062E+01  0.18854964948E+02  0.32142910453E+00  0.19541836892E+02  0.51100000000E-03 0. -1.
<mgrwt>
<rscale>  0 0.39549864E+02</rscale>
<asrwt>0</asrwt>
<pdfrwt beam="1">  1        2 0.36119389E-02 0.39549864E+02</pdfrwt>
<pdfrwt beam="2">  1       -2 0.25624942E-02 0.39549864E+02</pdfrwt>
<totfact> 0.82855450E+05</totfact>
</mgrwt>
</event>
<event>
 4    1  0.1433582E+000  0.3765137E+02  0.7818608E-02  0.1526242E+00
         -2   -1    0    0    0  501 -0.00000000000E+00  0.00000000000E+00  0.99108966678E+02  0.99108966712E+02  0.26000000000E-02 0.  1.
          2   -1    0    0  501    0  0.00000000000E+00 -0.00000000000E+00 -0.35759262758E+01  0.35759272210E+01  0.26000000000E-02 0. -1.
        -11    1    1    2    0    0  0.80041053164E+01  0.14700729859E+02  0.24269471881E+02  0.29481933890E+02  0.51100000000E-03 0. -1.
         11    1    1    2    0    0 -0.80041053164E+01 -0.14700729859E+02  0.71263568522E+02  0.73202960043E+02  0.51100000000E-03 0.  1.
<mgrwt>
<rscale>  0 0.37651370E+02</rscale>
<asrwt>0</asrwt>
<pdfrwt beam="2">  1        2 0.55014253E-03 0.37651370E+02</pdfrwt>
<pdfrwt beam="1">  1       -2 0.15247535E-01 0.37651370E+02</pdfrwt>
<totfact> 0.70097685E+05</totfact>
</mgrwt>
</event>
<event>
 4    1  0.1433582E+000  0.2505101E+02  0.7818608E-02  0.1660270E+00
         -2   -1    0    0    0  501 -0.00000000000E+00  0.00000000000E+00  0.32387448363E+02  0.32387448468E+02  0.26000000000E-02 0. -1.
          2   -1    0    0  501    0  0.00000000000E+00 -0.00000000000E+00 -0.48441075389E+01  0.48441082366E+01  0.26000000000E-02 0.  1.
        -11    1    1    2    0    0  0.98435706089E+01 -0.32976875725E+01  0.24187762490E+02  0.26321445253E+02  0.51100000000E-03 0. -1.
         11    1    1    2    0    0 -0.98435706089E+01  0.32976875725E+01  0.33555783340E+01  0.10910111451E+02  0.51100000000E-03 0.  1.
<mgrwt>
<rscale>  0 0.25051012E+02</rscale>
<asrwt>0</asrwt>
<pdfrwt beam="2">  1        2 0.74524739E-03 0.25051012E+02</pdfrwt>
<pdfrwt beam="1">  1       -2 0.49826843E-02 0.25051012E+02</pdfrwt>
<totfact> 0.21715787E+06</totfact>
</mgrwt>
</event>
<event>
 4    1  0.1433582E+000  0.2441842E+02  0.7818608E-02  0.1669499E+00
         -2   -1    0    0    0  501 -0.00000000000E+00  0.00000000000E+00  0.25153470525E+02  0.25153470659E+02  0.26000000000E-02 0.  1.
          2   -1    0    0  501    0  0.00000000000E+00 -0.00000000000E+00 -0.59262102543E+01  0.59262108246E+01  0.26000000000E-02 0. -1.
        -11    1    1    2    0    0 -0.47744806108E+01  0.94432357218E+01  0.18616395645E+01  0.10744117839E+02  0.51100000000E-03 0. -1.
         11    1    1    2    0    0  0.47744806108E+01 -0.94432357218E+01  0.17365620706E+02  0.20335563645E+02  0.51100000000E-03 0.  1.
<mgrwt>
<rscale>  0 0.24418416E+02</rscale>
<asrwt>0</asrwt>
<pdfrwt beam="2">  1        2 0.91172472E-03 0.24418416E+02</pdfrwt>
<pdfrwt beam="1">  1       -2 0.38697647E-02 0.24418416E+02</pdfrwt>
<totfact> 0.23617490E+06</totfact>
</mgrwt>
</event>
<event>
 4    1  0.1433582E+000  0.2771387E+02  0.7818608E-02  0.1624827E+00
         -2   -1    0    0    0  501 -0.00000000000E+00  0.00000000000E+00  0.24481727627E+02  0.24481727765E+02  0.26000000000E-02 0.  1.
          2   -1    0    0  501    0  0.00000000000E+00 -0.00000000000E+00 -0.78431808827E+01  0.78431813136E+01  0.26000000000E-02 0. -1.
        -11    1    1    2    0    0 -0.13783986169E+02 -0.11732450082E+01  0.73862796372E+01  0.15682216224E+02  0.51100000000E-03 0.  1.
         11    1    1    2    0    0  0.13783986169E+02  0.11732450082E+01  0.92522671075E+01  0.16642692855E+02  0.51100000000E-03 0. -1.
<mgrwt>
<rscale>  0 0.27713869E+02</rscale>
<asrwt>0</asrwt>
<pdfrwt beam="2">  1        2 0.12066433E-02 0.27713869E+02</pdfrwt>
<pdfrwt beam="1">  1       -2 0.37664197E-02 0.27713869E+02</pdfrwt>
<totfact> 0.17813452E+06</totfact>
</mgrwt>
</event>
<event>
 4    1  0.1433582E+000  0.4734113E+02  0.7818608E-02  0.1460234E+00
         -2   -1    0    0    0  501 -0.00000000000E+00  0.00000000000E+00  0.44179127005E+02  0.44179127081E+02  0.26000000000E-02 0. -1.
          2   -1    0    0  501    0  0.00000000000E+00 -0.00000000000E+00 -0.12682359488E+02  0.12682359754E+02  0.26000000000E-02 0.  1.
        -11    1    1    2    0    0 -0.74716914051E+01  0.22054562945E+02  0.10643256833E+02  0.25602906777E+02  0.51100000000E-03 0.  1.
         11    1    1    2    0    0  0.74716914051E+01 -0.22054562945E+02  0.20853510684E+02  0.31258580059E+02  0.51100000000E-03 0. -1.
<mgrwt>
<rscale>  0 0.47341127E+02</rscale>
<asrwt>0</asrwt>
<pdfrwt beam="2">  1        2 0.19511322E-02 0.47341127E+02</pdfrwt>
<pdfrwt beam="1">  1       -2 0.67967889E-02 0.47341127E+02</pdfrwt>
<totfact> 0.47441221E+05</totfact>
</mgrwt>
</event>
<event>
 4    1  0.1433582E+000  0.9932766E+02  0.7818608E-02  0.1281716E+00
         -2   -1    0    0    0  501 -0.00000000000E+00  0.00000000000E+00  0.50960660393E+02  0.50960660460E+02  0.26000000000E-02 0.  1.
          2   -1    0    0  501    0  0.00000000000E+00 -0.00000000000E+00 -0.48400004400E+02  0.48400004470E+02  0.26000000000E-02 0. -1.
        -11    1    1    2    0    0 -0.11411550507E+02  0.42015231001E+02  0.25183728512E+02  0.50296354769E+02  0.51100000000E-03 0.  1.
         11    1    1    2    0    0  0.11411550507E+02 -0.42015231001E+02 -0.22623072518E+02  0.49064310160E+02  0.51100000000E-03 0. -1.
<mgrwt>
<rscale>  0 0.99327664E+02</rscale>
<asrwt>0</asrwt>
<pdfrwt beam="2">  1        2 0.74461545E-02 0.99327664E+02</pdfrwt>
<pdfrwt beam="1">  1       -2 0.78401016E-02 0.99327664E+02</pdfrwt>
<totfact> 0.78284023E+04</totfact>
</mgrwt>
</event>
<event>
 4    1  0.1433582E+000  0.5555311E+02  0.7818608E-02  0.1417501E+00
         -2   -1    0    0    0  501 -0.00000000000E+00  0.00000000000E+00  0.34705521447E+02  0.34705521544E+02  0.26000000000E-02 0.  1.
          2   -1    0    0  501    0  0.00000000000E+00 -0.00000000000E+00 -0.22230955811E+02  0.22230955963E+02  0.26000000000E-02 0. -1.
        -11    1    1    2    0    0 -0.62004417598E+00  0.19110645131E+02 -0.14412280444E+02  0.23943997994E+02  0.51100000000E-03 0. -1.
         11    1    1    2    0    0  0.62004417598E+00 -0.19110645131E+02  0.26886846079E+02  0.32992479513E+02  0.51100000000E-03 0.  1.
<mgrwt>
<rscale>  0 0.55553107E+02</rscale>
<asrwt>0</asrwt>
<pdfrwt beam="2">  1        2 0.34201471E-02 0.55553107E+02</pdfrwt>
<pdfrwt beam="1">  1       -2 0.53393110E-02 0.55553107E+02</pdfrwt>
<totfact> 0.33755279E+05</totfact>
</mgrwt>
</event>
<event>
 4    1  0.1433582E+000  0.3947083E+02  0.7818608E-02  0.1512142E+00
         -2   -1    0    0    0  501 -0.00000000000E+00  0.00000000000E+00  0.36835211094E+02  0.36835211186E+02  0.26000000000E-02 0.  1.
          2   -1    0    0  501    0  0.00000000000E+00 -0.00000000000E+00 -0.10573757936E+02  0.10573758256E+02  0.26000000000E-02 0. -1.
        -11    1    1    2    0    0 -0.10690708078E+02  0.45994486353E+01 -0.60134056556E+01  0.13099893694E+02  0.51100000000E-03 0. -1.
         11    1    1    2    0    0  0.10690708078E+02 -0.45994486353E+01  0.32274858814E+02  0.34309075748E+02  0.51100000000E-03 0.  1.
<mgrwt>
<rscale>  0 0.39470831E+02</rscale>
<asrwt>0</asrwt>
<pdfrwt beam="2">  1        2 0.16267320E-02 0.39470831E+02</pdfrwt>
<pdfrwt beam="1">  1       -2 0.56669557E-02 0.39470831E+02</pdfrwt>
<totfact> 0.74992145E+05</totfact>
</mgrwt>
</event>
<event>
 4    1  0.1433582E+000  0.2720730E+02  0.7818608E-02  0.1631182E+00
          2   -1    0    0  501    0  0.00000000000E+00  0.00000000000E+00  0.57618916759E+02  0.57618916818E+02  0.26000000000E-02 0.  1.
         -2   -1    0    0    0  501 -0.00000000000E+00 -0.00000000000E+00 -0.32117793876E+01  0.32117804400E+01  0.26000000000E-02 0. -1.
        -11    1    1    2    0    0 -0.87693964163E+01 -0.67377489847E+01  0.94911521082E+01  0.14573316146E+02  0.51100000000E-03 0. -1.
         11    1    1    2    0    0  0.87693964163E+01  0.67377489847E+01  0.44915985263E+02  0.46257381112E+02  0.51100000000E-03 0.  1.
<mgrwt>
<rscale>  0 0.27207299E+02</rscale>
<asrwt>0</asrwt>
<pdfrwt beam="1">  1        2 0.88644490E-02 0.27207299E+02</pdfrwt>
<pdfrwt beam="2">  1       -2 0.49411998E-03 0.27207299E+02</pdfrwt>
<totfact> 0.23457351E+06</totfact>
</mgrwt>
</event>
<event>
 4    1  0.1433582E+000  0.8683062E+02  0.7818608E-02  0.1310714E+00
         -2   -1    0    0    0  501 -0.00000000000E+00  0.00000000000E+00  0.18635295133E+02  0.18635295314E+02  0.26000000000E-02 0. -1.
          2   -1    0    0  501    0  0.00000000000E+00 -0.00000000000E+00 -0.10114618575E+03  0.10114618579E+03  0.26000000000E-02 0.  1.
        -11    1    1    2    0    0 -0.33841110157E+02 -0.75670266254E+01 -0.77291644046E+02  0.84714100764E+02  0.51100000000E-03 0.  1.
         11    1    1    2    0    0  0.33841110157E+02  0.75670266254E+01 -0.52192465747E+01  0.35067380337E+02  0.51100000000E-03 0. -1.
<mgrwt>
<rscale>  0 0.86830618E+02</rscale>
<asrwt>0</asrwt>
<pdfrwt beam="2">  1        2 0.15560951E-01 0.86830618E+02</pdfrwt>
<pdfrwt beam="1">  1       -2 0.28669686E-02 0.86830618E+02</pdfrwt>
<totfact> 0.14072965E+05</totfact>
</mgrwt>
</event>
<event>
 4    1  0.1433582E+000  0.3674806E+02  0.7818608E-02  0.1533604E+00
         -2   -1    0    0    0  501 -0.00000000000E+00  0.00000000000E+00  0.49614104628E+01  0.49614111441E+01  0.26000000000E-02 0. -1.
          2   -1    0    0  501    0  0.00000000000E+00 -0.00000000000E+00 -0.68046147800E+02  0.68046147850E+02  0.26000000000E-02 0.  1.
        -11    1    1    2    0    0  0.16042086925E+02  0.69546614920E+01 -0.42761367325E+02  0.46197948062E+02  0.51100000000E-03 0.  1.
         11    1    1    2    0    0 -0.16042086925E+02 -0.69546614920E+01 -0.20323370012E+02  0.26809610932E+02  0.51100000000E-03 0. -1.
<mgrwt>
<rscale>  0 0.36748056E+02</rscale>
<asrwt>0</asrwt>
<pdfrwt beam="2">  1        2 0.10468638E-01 0.36748056E+02</pdfrwt>
<pdfrwt beam="1">  1       -2 0.76329402E-03 0.36748056E+02</pdfrwt>
<totfact> 0.11788385E+06</totfact>
</mgrwt>
</event>
<event>
 4    1  0.1433582E+000  0.2209331E+02  0.7818608E-02  0.1706643E+00
          2   -1    0    0  501    0  0.00000000000E+00  0.00000000000E+00  0.46247598197E+02  0.46247598270E+02  0.26000000000E-02 0. -1.
         -2   -1    0    0    0  501 -0.00000000000E+00 -0.00000000000E+00 -0.26385915490E+01  0.26385928300E+01  0.26000000000E-02 0.  1.
        -11    1    1    2    0    0  0.13713897500E+01  0.10865874517E+02  0.24996198532E+02  0.27290252475E+02  0.51100000000E-03 0.  1.
         11    1    1    2    0    0 -0.13713897500E+01 -0.10865874517E+02  0.18612808116E+02  0.21595938625E+02  0.51100000000E-03 0. -1.
<mgrwt>
<rscale>  0 0.22093307E+02</rscale>
<asrwt>0</asrwt>
<pdfrwt beam="1">  1        2 0.71150158E-02 0.22093307E+02</pdfrwt>
<pdfrwt beam="2">  1       -2 0.40593723E-03 0.22093307E+02</pdfrwt>
<totfact> 0.36605117E+06</totfact>
</mgrwt>
</event>
<event>
 4    1  0.1433582E+000  0.2872809E+02  0.7818608E-02  0.1612589E+00
         -2   -1    0    0    0  501 -0.00000000000E+00  0.00000000000E+00  0.55420688504E+02  0.55420688565E+02  0.26000000000E-02 0. -1.
          2   -1    0    0  501    0  0.00000000000E+00 -0.00000000000E+00 -0.37229012465E+01  0.37229021544E+01  0.26000000000E-02 0.  1.
        -11    1    1    2    0    0 -0.64853045426E+00  0.11665678334E+02  0.86467741373E+01  0.14535313756E+02  0.51100000000E-03 0.  1.
         11    1    1    2    0    0  0.64853045426E+00 -0.11665678334E+02  0.43051013120E+02  0.44608276964E+02  0.51100000000E-03 0. -1.
<mgrwt>
<rscale>  0 0.28728089E+02</rscale>
<asrwt>0</asrwt>
<pdfrwt beam="2">  1        2 0.57275415E-03 0.28728089E+02</pdfrwt>
<pdfrwt beam="1">  1       -2 0.85262593E-02 0.28728089E+02</pdfrwt>
<totfact> 0.14805135E+06</totfact>
</mgrwt>
</event>
<event>
 4    1  0.1433582E+000  0.7627339E+02  0.7818608E-02  0.1339973E+00
         -2   -1    0    0    0  501 -0.00000000000E+00  0.00000000000E+00  0.14327350374E+03  0.14327350376E+03  0.26000000000E-02 0.  1.
          2   -1    0    0  501    0  0.00000000000E+00 -0.00000000000E+00 -0.10151265547E+02  0.10151265880E+02  0.26000000000E-02 0. -1.
        -11    1    1    2    0    0 -0.28457306311E+02 -0.23370124160E+02  0.46604898427E+02  0.59396948941E+02  0.51100000000E-03 0. -1.
         11    1    1    2    0    0  0.28457306311E+02  0.23370124160E+02  0.86517339765E+02  0.94027820703E+02  0.51100000000E-03 0.  1.
<mgrwt>
<rscale>  0 0.76273387E+02</rscale>
<asrwt>0</asrwt>
<pdfrwt beam="2">  1        2 0.15617333E-02 0.76273387E+02</pdfrwt>
<pdfrwt beam="1">  1       -2 0.22042076E-01 0.76273387E+02</pdfrwt>
<totfact> 0.11140535E+05</totfact>
</mgrwt>
</event>
<event>
 4    1  0.1433582E+000  0.4159893E+02  0.7818608E-02  0.1496764E+00
         -2   -1    0    0    0  501 -0.00000000000E+00  0.00000000000E+00  0.43237610486E+02  0.43237610564E+02  0.26000000000E-02 0. -1.
          2   -1    0    0  501    0  0.00000000000E+00 -0.00000000000E+00 -0.10005587824E+02  0.10005588162E+02  0.26000000000E-02 0.  1.
        -11    1    1    2    0    0 -0.16318619866E+02  0.11231004164E+02  0.85024131405E+01  0.21557454357E+02  0.51100000000E-03 0.  1.
         11    1    1    2    0    0  0.16318619866E+02 -0.11231004164E+02  0.24729609522E+02  0.31685744369E+02  0.51100000000E-03 0. -1.
<mgrwt>
<rscale>  0 0.41598929E+02</rscale>
<asrwt>0</asrwt>
<pdfrwt beam="2">  1        2 0.15393212E-02 0.41598929E+02</pdfrwt>
<pdfrwt beam="1">  1       -2 0.66519401E-02 0.41598929E+02</pdfrwt>
<totfact> 0.64728485E+05</totfact>
</mgrwt>
</event>
<event>
 4    1  0.1433582E+000  0.2992208E+02  0.7818608E-02  0.1598952E+00
         -2   -1    0    0    0  501 -0.00000000000E+00  0.00000000000E+00  0.96790956046E+02  0.96790956081E+02  0.26000000000E-02 0. -1.
          2   -1    0    0  501    0  0.00000000000E+00 -0.00000000000E+00 -0.23125366520E+01  0.23125381136E+01  0.26000000000E-02 0.  1.
        -11    1    1    2    0    0 -0.14159105781E+02  0.48019375295E+01  0.45443885527E+02  0.47840209162E+02  0.51100000000E-03 0.  1.
         11    1    1    2    0    0  0.14159105781E+02 -0.48019375295E+01  0.49034533867E+02  0.51263285033E+02  0.51100000000E-03 0. -1.
<mgrwt>
<rscale>  0 0.29922079E+02</rscale>
<asrwt>0</asrwt>
<pdfrwt beam="2">  1        2 0.35577508E-03 0.29922079E+02</pdfrwt>
<pdfrwt beam="1">  1       -2 0.14890912E-01 0.29922079E+02</pdfrwt>
<totfact> 0.12094799E+06</totfact>
</mgrwt>
</event>
<event>
 4    1  0.1433582E+000  0.5047247E+02  0.7818608E-02  0.1442810E+00
          2   -1    0    0  501    0  0.00000000000E+00  0.00000000000E+00  0.27034333654E+02  0.27034333779E+02  0.26000000000E-02 0.  1.
         -2   -1    0    0    0  501 -0.00000000000E+00 -0.00000000000E+00 -0.23557728868E+02  0.23557729012E+02  0.26000000000E-02 0. -1.
        -11    1    1    2    0    0 -0.17813165162E+02  0.17848533738E+02  0.27348911935E+01  0.25364515367E+02  0.51100000000E-03 0.  1.
         11    1    1    2    0    0  0.17813165162E+02 -0.17848533738E+02  0.74171359180E+00  0.25227547423E+02  0.51100000000E-03 0. -1.
<mgrwt>
<rscale>  0 0.50472468E+02</rscale>
<asrwt>0</asrwt>
<pdfrwt beam="1">  1        2 0.41591283E-02 0.50472468E+02</pdfrwt>
<pdfrwt beam="2">  1       -2 0.36242660E-02 0.50472468E+02</pdfrwt>
<totfact> 0.45041553E+05</totfact>
</mgrwt>
</event>
<event>
 4    1  0.1433582E+000  0.2512878E+02  0.7818608E-02  0.1659159E+00
          2   -1    0    0  501    0  0.00000000000E+00  0.00000000000E+00  0.16489416630E+02  0.16489416835E+02  0.26000000000E-02 0.  1.
         -2   -1    0    0    0  501 -0.00000000000E+00 -0.00000000000E+00 -0.95736501136E+01  0.95736504666E+01  0.26000000000E-02 0. -1.
        -11    1    1    2    0    0  0.11498625678E+02 -0.40781057884E+01  0.34382537260E+00  0.12205226563E+02  0.51100000000E-03 0.  1.
         11    1    1    2    0    0 -0.11498625678E+02  0.40781057884E+01  0.65719411440E+01  0.13857840739E+02  0.51100000000E-03 0. -1.
<mgrwt>
<rscale>  0 0.25128781E+02</rscale>
<asrwt>0</asrwt>
<pdfrwt beam="1">  1        2 0.25368334E-02 0.25128781E+02</pdfrwt>
<pdfrwt beam="2">  1       -2 0.14728693E-02 0.25128781E+02</pdfrwt>
<totfact> 0.24185891E+06</totfact>
</mgrwt>
</event>
<event>
 4    1  0.1433582E+000  0.2160093E+02  0.7818608E-02  0.1715247E+00
          2   -1    0    0  501    0  0.00000000000E+00  0.00000000000E+00  0.16463701353E+01  0.16463721883E+01  0.26000000000E-02 0. -1.
         -2   -1    0    0    0  501 -0.00000000000E+00 -0.00000000000E+00 -0.70852811844E+02  0.70852811892E+02  0.26000000000E-02 0.  1.
        -11    1    1    2    0    0 -0.10031893593E+02  0.38653655988E+01 -0.31131293303E+02  0.32935351270E+02  0.51100000000E-03 0. -1.
         11    1    1    2    0    0  0.10031893593E+02 -0.38653655988E+01 -0.38075148405E+02  0.39563832810E+02  0.51100000000E-03 0.  1.
<mgrwt>
<rscale>  0 0.21600929E+02</rscale>
<asrwt>0</asrwt>
<pdfrwt beam="1">  1        2 0.25328793E-03 0.21600929E+02</pdfrwt>
<pdfrwt beam="2">  1       -2 0.10900430E-01 0.21600929E+02</pdfrwt>
<totfact> 0.27024038E+06</totfact>
</mgrwt>
</event>
<event>
 4    1  0.1433582E+000  0.3817152E+02  0.7818608E-02  0.1522115E+00
          2   -1    0    0  501    0  0.00000000000E+00  0.00000000000E+00  0.11094641050E+03  0.11094641053E+03  0.26000000000E-02 0.  1.
         -2   -1    0    0    0  501 -0.00000000000E+00 -0.00000000000E+00 -0.32832619449E+01  0.32832629744E+01  0.26000000000E-02 0. -1.
        -11    1    1    2    0    0  0.17226749146E+02 -0.37509175585E+01  0.31956166813E+02  0.36496943247E+02  0.51100000000E-03 0. -1.
         11    1    1    2    0    0 -0.17226749146E+02  0.37509175585E+01  0.75706981738E+02  0.77732730255E+02  0.51100000000E-03 0.  1.
<mgrwt>
<rscale>  0 0.38171518E+02</rscale>
<asrwt>0</asrwt>
<pdfrwt beam="1">  1        2 0.17068677E-01 0.38171518E+02</pdfrwt>
<pdfrwt beam="2">  1       -2 0.50511736E-03 0.38171518E+02</pdfrwt>
<totfact> 0.12031698E+06</totfact>
</mgrwt>
</event>
<event>
 4    1  0.1433582E+000  0.2247705E+02  0.7818608E-02  0.1700130E+00
         -2   -1    0    0    0  501 -0.00000000000E+00  0.00000000000E+00  0.17026438024E+01  0.17026457875E+01  0.26000000000E-02 0.  1.
          2   -1    0    0  501    0  0.00000000000E+00 -0.00000000000E+00 -0.74181324521E+02  0.74181324567E+02  0.26000000000E-02 0. -1.
        -11    1    1    2    0    0 -0.19785315570E+01  0.10610841881E+02 -0.46808038004E+02  0.48036413007E+02  0.51100000000E-03 0. -1.
         11    1    1    2    0    0  0.19785315570E+01 -0.10610841881E+02 -0.25670642715E+02  0.27847557347E+02  0.51100000000E-03 0.  1.
<mgrwt>
<rscale>  0 0.22477050E+02</rscale>
<asrwt>0</asrwt>
<pdfrwt beam="2">  1        2 0.11412509E-01 0.22477050E+02</pdfrwt>
<pdfrwt beam="1">  1       -2 0.26194541E-03 0.22477050E+02</pdfrwt>
<totfact> 0.38156051E+06</totfact>
</mgrwt>
</event>
<event>
 4    1  0.1433582E+000  0.4713868E+02  0.7818608E-02  0.1461415E+00
          2   -1    0    0  501    0  0.00000000000E+00  0.00000000000E+00  0.72677425703E+01  0.72677430353E+01  0.26000000000E-02 0.  1.
         -2   -1    0    0    0  501 -0.00000000000E+00 -0.00000000000E+00 -0.76435517043E+02  0.76435517087E+02  0.26000000000E-02 0. -1.
        -11    1    1    2    0    0  0.40205990686E+01 -0.18443318323E+02 -0.95227103911E+01  0.21142450687E+02  0.51100000000E-03 0.  1.
         11    1    1    2    0    0 -0.40205990686E+01  0.18443318323E+02 -0.59645064082E+02  0.62560809435E+02  0.51100000000E-03 0. -1.
<mgrwt>
<rscale>  0 0.47138676E+02</rscale>
<asrwt>0</asrwt>
<pdfrwt beam="1">  1        2 0.11181143E-02 0.47138676E+02</pdfrwt>
<pdfrwt beam="2">  1       -2 0.11759310E-01 0.47138676E+02</pdfrwt>
<totfact> 0.43336399E+05</totfact>
</mgrwt>
</event>
<event>
 4    1  0.1433582E+000  0.2634668E+02  0.7818608E-02  0.1642380E+00
         -2   -1    0    0    0  501 -0.00000000000E+00  0.00000000000E+00  0.19151216258E+01  0.19151233907E+01  0.26000000000E-02 0.  1.
          2   -1    0    0  501    0  0.00000000000E+00 -0.00000000000E+00 -0.90613969262E+02  0.90613969299E+02  0.26000000000E-02 0. -1.
        -11    1    1    2    0    0  0.56584889609E+01  0.10963682433E+02 -0.28134849145E+02  0.30721174562E+02  0.51100000000E-03 0.  1.
         11    1    1    2    0    0 -0.56584889609E+01 -0.10963682433E+02 -0.60563998490E+02  0.61807918127E+02  0.51100000000E-03 0. -1.
<mgrwt>
<rscale>  0 0.26346678E+02</rscale>
<asrwt>0</asrwt>
<pdfrwt beam="2">  1        2 0.13940607E-01 0.26346678E+02</pdfrwt>
<pdfrwt beam="1">  1       -2 0.29463430E-03 0.26346678E+02</pdfrwt>
<totfact> 0.27662824E+06</totfact>
</mgrwt>
</event>
<event>
 4    1  0.1433582E+000  0.2558905E+02  0.7818608E-02  0.1652683E+00
         -2   -1    0    0    0  501 -0.00000000000E+00  0.00000000000E+00  0.17021699016E+01  0.17021718873E+01  0.26000000000E-02 0. -1.
          2   -1    0    0  501    0  0.00000000000E+00 -0.00000000000E+00 -0.96171199849E+02  0.96171199884E+02  0.26000000000E-02 0.  1.
        -11    1    1    2    0    0  0.35361399958E+01  0.12227519173E+02 -0.52196922234E+02  0.53726485109E+02  0.51100000000E-03 0. -1.
         11    1    1    2    0    0 -0.35361399958E+01 -0.12227519173E+02 -0.42272107713E+02  0.44146886662E+02  0.51100000000E-03 0.  1.
<mgrwt>
<rscale>  0 0.25589046E+02</rscale>
<asrwt>0</asrwt>
<pdfrwt beam="2">  1        2 0.14795565E-01 0.25589046E+02</pdfrwt>
<pdfrwt beam="1">  1       -2 0.26187252E-03 0.25589046E+02</pdfrwt>
<totfact> 0.29994843E+06</totfact>
</mgrwt>
</event>
<event>
 4    1  0.1433582E+000  0.4637830E+02  0.7818608E-02  0.1465916E+00
         -2   -1    0    0    0  501 -0.00000000000E+00  0.00000000000E+00  0.37252830217E+01  0.37252839290E+01  0.26000000000E-02 0. -1.
          2   -1    0    0  501    0  0.00000000000E+00 -0.00000000000E+00 -0.14434784204E+03  0.14434784207E+03  0.26000000000E-02 0.  1.
        -11    1    1    2    0    0 -0.15184969840E+02  0.17280215255E+02 -0.60977003814E+02  0.65171958254E+02  0.51100000000E-03 0. -1.
         11    1    1    2    0    0  0.15184969840E+02 -0.17280215255E+02 -0.79645555206E+02  0.82901167740E+02  0.51100000000E-03 0.  1.
<mgrwt>
<rscale>  0 0.46378298E+02</rscale>
<asrwt>0</asrwt>
<pdfrwt beam="2">  1        2 0.22207356E-01 0.46378298E+02</pdfrwt>
<pdfrwt beam="1">  1       -2 0.57312065E-03 0.46378298E+02</pdfrwt>
<totfact> 0.80130972E+05</totfact>
</mgrwt>
</event>
<event>
 4    1  0.1433582E+000  0.2352207E+02  0.7818608E-02  0.1683185E+00
          2   -1    0    0  501    0  0.00000000000E+00  0.00000000000E+00  0.17678055100E+02  0.17678055291E+02  0.26000000000E-02 0.  1.
         -2   -1    0    0    0  501 -0.00000000000E+00 -0.00000000000E+00 -0.78244998776E+01  0.78245003096E+01  0.26000000000E-02 0. -1.
        -11    1    1    2    0    0  0.11065052419E+02  0.46064740594E+00  0.92192069953E+01  0.14409766096E+02  0.51100000000E-03 0.  1.
         11    1    1    2    0    0 -0.11065052419E+02 -0.46064740594E+00  0.63434822715E+00  0.11092789505E+02  0.51100000000E-03 0. -1.
<mgrwt>
<rscale>  0 0.23522070E+02</rscale>
<asrwt>0</asrwt>
<pdfrwt beam="1">  1        2 0.27197008E-02 0.23522070E+02</pdfrwt>
<pdfrwt beam="2">  1       -2 0.12037693E-02 0.23522070E+02</pdfrwt>
<totfact> 0.28419009E+06</totfact>
</mgrwt>
</event>
<event>
 4    1  0.1433582E+000  0.2292551E+02  0.7818608E-02  0.1692721E+00
         -2   -1    0    0    0  501 -0.00000000000E+00  0.00000000000E+00  0.20249624394E+01  0.20249641086E+01  0.26000000000E-02 0.  1.
          2   -1    0    0  501    0  0.00000000000E+00 -0.00000000000E+00 -0.64887447332E+02  0.64887447384E+02  0.26000000000E-02 0. -1.
        -11    1    1    2    0    0 -0.10490900148E+02  0.23005932746E+01 -0.43121668997E+02  0.44439059988E+02  0.51100000000E-03 0. -1.
         11    1    1    2    0    0  0.10490900148E+02 -0.23005932746E+01 -0.19740815895E+02  0.22473351504E+02  0.51100000000E-03 0.  1.
<mgrwt>
<rscale>  0 0.22925506E+02</rscale>
<asrwt>0</asrwt>
<pdfrwt beam="2">  1        2 0.99826827E-02 0.22925506E+02</pdfrwt>
<pdfrwt beam="1">  1       -2 0.31153287E-03 0.22925506E+02</pdfrwt>
<totfact> 0.35573853E+06</totfact>
</mgrwt>
</event>
<event>
 4    1  0.1433582E+000  0.2557509E+02  0.7818608E-02  0.1652877E+00
          2   -1    0    0  501    0  0.00000000000E+00  0.00000000000E+00  0.28297201173E+01  0.28297213117E+01  0.26000000000E-02 0. -1.
         -2   -1    0    0    0  501 -0.00000000000E+00 -0.00000000000E+00 -0.57787067855E+02  0.57787067914E+02  0.26000000000E-02 0.  1.
        -11    1    1    2    0    0 -0.14652357447E+01 -0.98935419549E+01 -0.46364497277E+02  0.47430957151E+02  0.51100000000E-03 0.  1.
         11    1    1    2    0    0  0.14652357447E+01  0.98935419549E+01 -0.85928504606E+01  0.13185832075E+02  0.51100000000E-03 0. -1.
<mgrwt>
<rscale>  0 0.25575087E+02</rscale>
<asrwt>0</asrwt>
<pdfrwt beam="1">  1        2 0.43534170E-03 0.25575087E+02</pdfrwt>
<pdfrwt beam="2">  1       -2 0.88903173E-02 0.25575087E+02</pdfrwt>
<totfact> 0.19176355E+06</totfact>
</mgrwt>
</event>
<event>
 4    1  0.1433582E+000  0.2561812E+02  0.7818608E-02  0.1652279E+00
         -2   -1    0    0    0  501 -0.00000000000E+00  0.00000000000E+00  0.16252708600E+02  0.16252708808E+02  0.26000000000E-02 0. -1.
          2   -1    0    0  501    0  0.00000000000E+00 -0.00000000000E+00 -0.10095055474E+02  0.10095055808E+02  0.26000000000E-02 0.  1.
        -11    1    1    2    0    0  0.12762414215E+02 -0.97786962118E+00  0.35790496327E+01  0.13290787867E+02  0.51100000000E-03 0. -1.
         11    1    1    2    0    0 -0.12762414215E+02  0.97786962118E+00  0.25786034933E+01  0.13056976749E+02  0.51100000000E-03 0.  1.
<mgrwt>
<rscale>  0 0.25618119E+02</rscale>
<asrwt>0</asrwt>
<pdfrwt beam="2">  1        2 0.15530855E-02 0.25618119E+02</pdfrwt>
<pdfrwt beam="1">  1       -2 0.25004167E-02 0.25618119E+02</pdfrwt>
<totfact> 0.22102294E+06</totfact>
</mgrwt>
</event>
<event>
 4    1  0.1433582E+000  0.3280209E+02  0.7818608E-02  0.1569032E+00
         -2   -1    0    0    0  501 -0.00000000000E+00  0.00000000000E+00  0.28831072405E+01  0.28831084128E+01  0.26000000000E-02 0.  1.
          2   -1    0    0  501    0  0.00000000000E+00 -0.00000000000E+00 -0.93300130705E+02  0.93300130741E+02  0.26000000000E-02 0. -1.
        -11    1    1    2    0    0 -0.29396575264E+01  0.13950482134E+02 -0.68982504055E+02  0.70440353521E+02  0.51100000000E-03 0. -1.
         11    1    1    2    0    0  0.29396575264E+01 -0.13950482134E+02 -0.21434519409E+02  0.25742885633E+02  0.51100000000E-03 0.  1.
<mgrwt>
<rscale>  0 0.32802094E+02</rscale>
<asrwt>0</asrwt>
<pdfrwt beam="2">  1        2 0.14353864E-01 0.32802094E+02</pdfrwt>
<pdfrwt beam="1">  1       -2 0.44355513E-03 0.32802094E+02</pdfrwt>
<totfact> 0.16623060E+06</totfact>
</mgrwt>
</event>
<event>
 4    1  0.1433582E+000  0.4701095E+02  0.7818608E-02  0.1462164E+00
          2   -1    0    0  501    0  0.00000000000E+00  0.00000000000E+00  0.24020915563E+02  0.24020915704E+02  0.26000000000E-02 0.  1.
         -2   -1    0    0    0  501 -0.00000000000E+00 -0.00000000000E+00 -0.23001093801E+02  0.23001093948E+02  0.26000000000E-02 0. -1.
        -11    1    1    2    0    0  0.18261728644E+02  0.35706548443E+01  0.14875289346E+02  0.23822563726E+02  0.51100000000E-03 0.  1.
         11    1    1    2    0    0 -0.18261728644E+02 -0.35706548443E+01 -0.13855467584E+02  0.23199445927E+02  0.51100000000E-03 0. -1.
<mgrwt>
<rscale>  0 0.47010949E+02</rscale>
<asrwt>0</asrwt>
<pdfrwt beam="1">  1        2 0.36955255E-02 0.47010949E+02</pdfrwt>
<pdfrwt beam="2">  1       -2 0.35386299E-02 0.47010949E+02</pdfrwt>
<totfact> 0.53281884E+05</totfact>
</mgrwt>
</event>
<event>
 4    1  0.1433582E+000  0.2616084E+02  0.7818608E-02  0.1644867E+00
          2   -1    0    0  501    0  0.00000000000E+00  0.00000000000E+00  0.79113585912E+02  0.79113585955E+02  0.26000000000E-02 0.  1.
         -2   -1    0    0    0  501 -0.00000000000E+00 -0.00000000000E+00 -0.21626800705E+01  0.21626816334E+01  0.26000000000E-02 0. -1.
        -11    1    1    2    0    0 -0.34363018774E+01  0.12380562188E+02  0.46092445835E+02  0.47849765454E+02  0.51100000000E-03 0.  1.
         11    1    1    2    0    0  0.34363018774E+01 -0.12380562188E+02  0.30858460006E+02  0.33426502134E+02  0.51100000000E-03 0. -1.
<mgrwt>
<rscale>  0 0.26160844E+02</rscale>
<asrwt>0</asrwt>
<pdfrwt beam="1">  1        2 0.12171318E-01 0.26160844E+02</pdfrwt>
<pdfrwt beam="2">  1       -2 0.33272021E-03 0.26160844E+02</pdfrwt>
<totfact> 0.27306606E+06</totfact>
</mgrwt>
</event>
<event>
 4    1  0.1433582E+000  0.2193920E+02  0.7818608E-02  0.1709306E+00
         -2   -1    0    0    0  501 -0.00000000000E+00  0.00000000000E+00  0.26809027065E+01  0.26809039672E+01  0.26000000000E-02 0.  1.
          2   -1    0    0  501    0  0.00000000000E+00 -0.00000000000E+00 -0.44884915894E+02  0.44884915969E+02  0.26000000000E-02 0. -1.
        -11    1    1    2    0    0  0.10737644067E+02 -0.21658839544E+01 -0.22373745589E+02  0.24911293531E+02  0.51100000000E-03 0. -1.
         11    1    1    2    0    0 -0.10737644067E+02  0.21658839544E+01 -0.19830267598E+02  0.22654526406E+02  0.51100000000E-03 0.  1.
<mgrwt>
<rscale>  0 0.21939200E+02</rscale>
<asrwt>0</asrwt>
<pdfrwt beam="2">  1        2 0.69053712E-02 0.21939200E+02</pdfrwt>
<pdfrwt beam="1">  1       -2 0.41244671E-03 0.21939200E+02</pdfrwt>
<totfact> 0.37030130E+06</totfact>
</mgrwt>
</event>
<event>
 4    1  0.1433582E+000  0.2854605E+02  0.7818608E-02  0.1614739E+00
          2   -1    0    0  501    0  0.00000000000E+00  0.00000000000E+00  0.22580484326E+02  0.22580484475E+02  0.26000000000E-02 0. -1.
         -2   -1    0    0    0  501 -0.00000000000E+00 -0.00000000000E+00 -0.90219148535E+01  0.90219152282E+01  0.26000000000E-02 0.  1.
        -11    1    1    2    0    0  0.61023061437E+01  0.12151430729E+02  0.11582452844E+02  0.17861932236E+02  0.51100000000E-03 0. -1.
         11    1    1    2    0    0 -0.61023061437E+01 -0.12151430729E+02  0.19761166278E+01  0.13740467468E+02  0.51100000000E-03 0.  1.
<mgrwt>
<rscale>  0 0.28546048E+02</rscale>
<asrwt>0</asrwt>
<pdfrwt beam="1">  1        2 0.34739207E-02 0.28546048E+02</pdfrwt>
<pdfrwt beam="2">  1       -2 0.13879870E-02 0.28546048E+02</pdfrwt>
<totfact> 0.18426737E+06</totfact>
</mgrwt>
</event>
<event>
 4    1  0.1433582E+000  0.4854326E+02  0.7818608E-02  0.1453361E+00
          2   -1    0    0  501    0  0.00000000000E+00  0.00000000000E+00  0.11090492442E+03  0.11090492445E+03  0.26000000000E-02 0. -1.
         -2   -1    0    0    0  501 -0.00000000000E+00 -0.00000000000E+00 -0.53118644262E+01  0.53118650625E+01  0.26000000000E-02 0.  1.
        -11    1    1    2    0    0 -0.23276280251E+02 -0.49732358747E+01  0.41416765120E+02  0.47768888731E+02  0.51100000000E-03 0. -1.
         11    1    1    2    0    0  0.23276280251E+02  0.49732358747E+01  0.64176294876E+02  0.68447900784E+02  0.51100000000E-03 0.  1.
<mgrwt>
<rscale>  0 0.48543257E+02</rscale>
<asrwt>0</asrwt>
<pdfrwt beam="1">  1        2 0.17062295E-01 0.48543257E+02</pdfrwt>
<pdfrwt beam="2">  1       -2 0.81721000E-03 0.48543257E+02</pdfrwt>
<totfact> 0.66309476E+05</totfact>
</mgrwt>
</event>
<event>
 4    1  0.1433582E+000  0.2717737E+02  0.7818608E-02  0.1631563E+00
         -2   -1    0    0    0  501 -0.00000000000E+00  0.00000000000E+00  0.51490857303E+01  0.51490863867E+01  0.26000000000E-02 0.  1.
          2   -1    0    0  501    0  0.00000000000E+00 -0.00000000000E+00 -0.35861192978E+02  0.35861193072E+02  0.26000000000E-02 0. -1.
        -11    1    1    2    0    0 -0.11867434980E+02 -0.57750958502E+01 -0.20237484740E+02  0.24160785044E+02  0.51100000000E-03 0. -1.
         11    1    1    2    0    0  0.11867434980E+02  0.57750958502E+01 -0.10474622508E+02  0.16849494415E+02  0.51100000000E-03 0.  1.
<mgrwt>
<rscale>  0 0.27177371E+02</rscale>
<asrwt>0</asrwt>
<pdfrwt beam="2">  1        2 0.55171065E-02 0.27177371E+02</pdfrwt>
<pdfrwt beam="1">  1       -2 0.79216711E-03 0.27177371E+02</pdfrwt>
<totfact> 0.21880829E+06</totfact>
</mgrwt>
</event>
<event>
 4    1  0.1433582E+000  0.2991321E+02  0.7818608E-02  0.1599050E+00
         -2   -1    0    0    0  501 -0.00000000000E+00  0.00000000000E+00  0.97600398448E+02  0.97600398482E+02  0.26000000000E-02 0. -1.
          2   -1    0    0  501    0  0.00000000000E+00 -0.00000000000E+00 -0.22919976800E+01  0.22919991547E+01  0.26000000000E-02 0.  1.
        -11    1    1    2    0    0  0.94369475603E+01  0.11563177896E+02  0.44421867954E+02  0.46862196012E+02  0.51100000000E-03 0.  1.
         11    1    1    2    0    0 -0.94369475603E+01 -0.11563177896E+02  0.50886532813E+02  0.53030201625E+02  0.51100000000E-03 0. -1.
<mgrwt>
<rscale>  0 0.29913205E+02</rscale>
<asrwt>0</asrwt>
<pdfrwt beam="2">  1        2 0.35261525E-03 0.29913205E+02</pdfrwt>
<pdfrwt beam="1">  1       -2 0.15015442E-01 0.29913205E+02</pdfrwt>
<totfact> 0.12079238E+06</totfact>
</mgrwt>
</event>
<event>
 4    1  0.1433582E+000  0.2331698E+02  0.7818608E-02  0.1686423E+00
         -2   -1    0    0    0  501 -0.00000000000E+00  0.00000000000E+00  0.11075949442E+01  0.11075979959E+01  0.26000000000E-02 0.  1.
          2   -1    0    0  501    0  0.00000000000E+00 -0.00000000000E+00 -0.12271653385E+03  0.12271653388E+03  0.26000000000E-02 0. -1.
        -11    1    1    2    0    0 -0.75942363121E+01 -0.87730033665E+01 -0.66818186140E+02  0.67818198240E+02  0.51100000000E-03 0. -1.
         11    1    1    2    0    0  0.75942363121E+01  0.87730033665E+01 -0.54790752763E+02  0.56005933631E+02  0.51100000000E-03 0.  1.
<mgrwt>
<rscale>  0 0.23316981E+02</rscale>
<asrwt>0</asrwt>
<pdfrwt beam="2">  1        2 0.18879456E-01 0.23316981E+02</pdfrwt>
<pdfrwt beam="1">  1       -2 0.17039956E-03 0.23316981E+02</pdfrwt>
<totfact> 0.39346785E+06</totfact>
</mgrwt>
</event>
<event>
 4    1  0.1433582E+000  0.2426681E+02  0.7818608E-02  0.1671762E+00
         -2   -1    0    0    0  501 -0.00000000000E+00  0.00000000000E+00  0.21756295351E+02  0.21756295506E+02  0.26000000000E-02 0.  1.
          2   -1    0    0  501    0  0.00000000000E+00 -0.00000000000E+00 -0.67667518345E+01  0.67667523340E+01  0.26000000000E-02 0. -1.
        -11    1    1    2    0    0  0.57636822266E+01 -0.10506172843E+02  0.52585070634E+01  0.13086313363E+02  0.51100000000E-03 0. -1.
         11    1    1    2    0    0 -0.57636822266E+01  0.10506172843E+02  0.97310364526E+01  0.15436734477E+02  0.51100000000E-03 0.  1.
<mgrwt>
<rscale>  0 0.24266805E+02</rscale>
<asrwt>0</asrwt>
<pdfrwt beam="2">  1        2 0.10410388E-02 0.24266805E+02</pdfrwt>
<pdfrwt beam="1">  1       -2 0.33471224E-02 0.24266805E+02</pdfrwt>
<totfact> 0.24282846E+06</totfact>
</mgrwt>
</event>
<event>
 4    1  0.1433582E+000  0.2549434E+02  0.7818608E-02  0.1654001E+00
         -2   -1    0    0    0  501 -0.00000000000E+00  0.00000000000E+00  0.74917291781E+01  0.74917296293E+01  0.26000000000E-02 0. -1.
          2   -1    0    0  501    0  0.00000000000E+00 -0.00000000000E+00 -0.21689291561E+02  0.21689291717E+02  0.26000000000E-02 0.  1.
        -11    1    1    2    0    0 -0.56923191488E+01 -0.97344310173E+01 -0.29546962247E+00  0.11280467503E+02  0.51100000000E-03 0. -1.
         11    1    1    2    0    0  0.56923191488E+01  0.97344310173E+01 -0.13902092761E+02  0.17900553844E+02  0.51100000000E-03 0.  1.
<mgrwt>
<rscale>  0 0.25494337E+02</rscale>
<asrwt>0</asrwt>
<pdfrwt beam="2">  1        2 0.33368141E-02 0.25494337E+02</pdfrwt>
<pdfrwt beam="1">  1       -2 0.11525738E-02 0.25494337E+02</pdfrwt>
<totfact> 0.24002133E+06</totfact>
</mgrwt>
</event>
<event>
 4    1  0.1433582E+000  0.3605122E+02  0.7818608E-02  0.1539459E+00
         -2   -1    0    0    0  501 -0.00000000000E+00  0.00000000000E+00  0.13282512768E+02  0.13282513022E+02  0.26000000000E-02 0.  1.
          2   -1    0    0  501    0  0.00000000000E+00 -0.00000000000E+00 -0.24462437636E+02  0.24462437774E+02  0.26000000000E-02 0. -1.
        -11    1    1    2    0    0  0.62232574193E+01  0.12014555478E+02 -0.18059335629E+02  0.22565860938E+02  0.51100000000E-03 0. -1.
         11    1    1    2    0    0 -0.62232574193E+01 -0.12014555478E+02  0.68794107607E+01  0.15179089858E+02  0.51100000000E-03 0.  1.
<mgrwt>
<rscale>  0 0.36051222E+02</rscale>
<asrwt>0</asrwt>
<pdfrwt beam="2">  1        2 0.37634520E-02 0.36051222E+02</pdfrwt>
<pdfrwt beam="1">  1       -2 0.20434635E-02 0.36051222E+02</pdfrwt>
<totfact> 0.10513538E+06</totfact>
</mgrwt>
</event>
<event>
 4    1  0.1433582E+000  0.3427110E+02  0.7818608E-02  0.1555170E+00
         -2   -1    0    0    0  501 -0.00000000000E+00  0.00000000000E+00  0.32259927937E+01  0.32259938415E+01  0.26000000000E-02 0. -1.
          2   -1    0    0  501    0  0.00000000000E+00 -0.00000000000E+00 -0.91019102799E+02  0.91019102836E+02  0.26000000000E-02 0.  1.
        -11    1    1    2    0    0  0.13943930341E+02 -0.91035285379E+01 -0.32787286773E+02  0.36773816764E+02  0.51100000000E-03 0. -1.
         11    1    1    2    0    0 -0.13943930341E+02  0.91035285379E+01 -0.55005823232E+02  0.57471279913E+02  0.51100000000E-03 0.  1.
<mgrwt>
<rscale>  0 0.34271097E+02</rscale>
<asrwt>0</asrwt>
<pdfrwt beam="2">  1        2 0.14002937E-01 0.34271097E+02</pdfrwt>
<pdfrwt beam="1">  1       -2 0.49630674E-03 0.34271097E+02</pdfrwt>
<totfact> 0.14877365E+06</totfact>
</mgrwt>
</event>
<event>
 4    1  0.1433582E+000  0.2201651E+02  0.7818608E-02  0.1707967E+00
          2   -1    0    0  501    0  0.00000000000E+00  0.00000000000E+00  0.13822167800E+02  0.13822168044E+02  0.26000000000E-02 0. -1.
         -2   -1    0    0    0  501 -0.00000000000E+00 -0.00000000000E+00 -0.87671955343E+01  0.87671959198E+01  0.26000000000E-02 0.  1.
        -11    1    1    2    0    0  0.52543398575E+01 -0.96152099557E+01  0.36139553213E+01  0.11537808421E+02  0.51100000000E-03 0. -1.
         11    1    1    2    0    0 -0.52543398575E+01  0.96152099557E+01  0.14410169441E+01  0.11051555543E+02  0.51100000000E-03 0.  1.
<mgrwt>
<rscale>  0 0.22016508E+02</rscale>
<asrwt>0</asrwt>
<pdfrwt beam="1">  1        2 0.21264874E-02 0.22016508E+02</pdfrwt>
<pdfrwt beam="2">  1       -2 0.13487994E-02 0.22016508E+02</pdfrwt>
<totfact> 0.32439044E+06</totfact>
</mgrwt>
</event>
<event>
 4    1  0.1433582E+000  0.3252373E+02  0.7818608E-02  0.1571758E+00
          2   -1    0    0  501    0  0.00000000000E+00  0.00000000000E+00  0.27068547358E+02  0.27068547483E+02  0.26000000000E-02 0. -1.
         -2   -1    0    0    0  501 -0.00000000000E+00 -0.00000000000E+00 -0.97695759059E+01  0.97695762519E+01  0.26000000000E-02 0.  1.
        -11    1    1    2    0    0 -0.12446290430E+02 -0.54966439603E+01  0.18737418949E+02  0.23156297404E+02  0.51100000000E-03 0. -1.
         11    1    1    2    0    0  0.12446290430E+02  0.54966439603E+01 -0.14384474968E+01  0.13681826331E+02  0.51100000000E-03 0.  1.
<mgrwt>
<rscale>  0 0.32523729E+02</rscale>
<asrwt>0</asrwt>
<pdfrwt beam="1">  1        2 0.41643918E-02 0.32523729E+02</pdfrwt>
<pdfrwt beam="2">  1       -2 0.15030118E-02 0.32523729E+02</pdfrwt>
<totfact> 0.13723079E+06</totfact>
</mgrwt>
</event>
<event>
 4    1  0.1433582E+000  0.2252359E+02  0.7818608E-02  0.1699351E+00
          2   -1    0    0  501    0  0.00000000000E+00  0.00000000000E+00  0.38952085713E+02  0.38952085800E+02  0.26000000000E-02 0.  1.
         -2   -1    0    0    0  501 -0.00000000000E+00 -0.00000000000E+00 -0.32559995184E+01  0.32560005564E+01  0.26000000000E-02 0. -1.
        -11    1    1    2    0    0  0.54761297383E+01  0.98207961043E+01  0.16674820260E+02  0.20111828957E+02  0.51100000000E-03 0. -1.
         11    1    1    2    0    0 -0.54761297383E+01 -0.98207961043E+01  0.19021265935E+02  0.22096257399E+02  0.51100000000E-03 0.  1.
<mgrwt>
<rscale>  0 0.22523587E+02</rscale>
<asrwt>0</asrwt>
<pdfrwt beam="1">  1        2 0.59926282E-02 0.22523587E+02</pdfrwt>
<pdfrwt beam="2">  1       -2 0.50092313E-03 0.22523587E+02</pdfrwt>
<totfact> 0.34204499E+06</totfact>
</mgrwt>
</event>
<event>
 4    1  0.1433582E+000  0.2297731E+02  0.7818608E-02  0.1691878E+00
          2   -1    0    0  501    0  0.00000000000E+00  0.00000000000E+00  0.32382618321E+02  0.32382618425E+02  0.26000000000E-02 0. -1.
         -2   -1    0    0    0  501 -0.00000000000E+00 -0.00000000000E+00 -0.40759279650E+01  0.40759287943E+01  0.26000000000E-02 0.  1.
        -11    1    1    2    0    0  0.10460395573E+02  0.41625905469E+01  0.10520416023E+02  0.15408640082E+02  0.51100000000E-03 0.  1.
         11    1    1    2    0    0 -0.10460395573E+02 -0.41625905469E+01  0.17786274333E+02  0.21049907138E+02  0.51100000000E-03 0. -1.
<mgrwt>
<rscale>  0 0.22977314E+02</rscale>
<asrwt>0</asrwt>
<pdfrwt beam="1">  1        2 0.49819413E-02 0.22977314E+02</pdfrwt>
<pdfrwt beam="2">  1       -2 0.62706592E-03 0.22977314E+02</pdfrwt>
<totfact> 0.31928708E+06</totfact>
</mgrwt>
</event>
<event>
 4    1  0.1433582E+000  0.7092181E+02  0.7818608E-02  0.1356986E+00
         -2   -1    0    0    0  501 -0.00000000000E+00  0.00000000000E+00  0.29514712271E+02  0.29514712385E+02  0.26000000000E-02 0.  1.
          2   -1    0    0  501    0  0.00000000000E+00 -0.00000000000E+00 -0.42605052920E+02  0.42605052999E+02  0.26000000000E-02 0. -1.
        -11    1    1    2    0    0 -0.21424090845E+02 -0.21711293425E+02 -0.24936679748E+02  0.39398095485E+02  0.51100000000E-03 0. -1.
         11    1    1    2    0    0  0.21424090845E+02  0.21711293425E+02  0.11846339099E+02  0.32721669900E+02  0.51100000000E-03 0.  1.
<mgrwt>
<rscale>  0 0.70921813E+02</rscale>
<asrwt>0</asrwt>
<pdfrwt beam="2">  1        2 0.65546236E-02 0.70921813E+02</pdfrwt>
<pdfrwt beam="1">  1       -2 0.45407250E-02 0.70921813E+02</pdfrwt>
<totfact> 0.19642756E+05</totfact>
</mgrwt>
</event>
<event>
 4    1  0.1433582E+000  0.2109252E+02  0.7818608E-02  0.1724436E+00
          2   -1    0    0  501    0  0.00000000000E+00  0.00000000000E+00  0.26416968408E+02  0.26416968536E+02  0.26000000000E-02 0.  1.
         -2   -1    0    0    0  501 -0.00000000000E+00 -0.00000000000E+00 -0.42103069377E+01  0.42103077405E+01  0.26000000000E-02 0. -1.
        -11    1    1    2    0    0 -0.92102950721E+01 -0.51311444764E+01  0.10732048839E+02  0.15044435898E+02  0.51100000000E-03 0.  1.
         11    1    1    2    0    0  0.92102950721E+01  0.51311444764E+01  0.11474612632E+02  0.15582840378E+02  0.51100000000E-03 0. -1.
<mgrwt>
<rscale>  0 0.21092516E+02</rscale>
<asrwt>0</asrwt>
<pdfrwt beam="1">  1        2 0.40641491E-02 0.21092516E+02</pdfrwt>
<pdfrwt beam="2">  1       -2 0.64773960E-03 0.21092516E+02</pdfrwt>
<totfact> 0.37948814E+06</totfact>
</mgrwt>
</event>
<event>
 4    1  0.1433582E+000  0.4353276E+02  0.7818608E-02  0.1483715E+00
          2   -1    0    0  501    0  0.00000000000E+00  0.00000000000E+00  0.83017995120E+02  0.83017995161E+02  0.26000000000E-02 0. -1.
         -2   -1    0    0    0  501 -0.00000000000E+00 -0.00000000000E+00 -0.57068993383E+01  0.57068999306E+01  0.26000000000E-02 0.  1.
        -11    1    1    2    0    0  0.11189687722E+02  0.16024353414E+02  0.58181774381E+02  0.61376769906E+02  0.51100000000E-03 0. -1.
         11    1    1    2    0    0 -0.11189687722E+02 -0.16024353414E+02  0.19129321400E+02  0.27348125185E+02  0.51100000000E-03 0.  1.
<mgrwt>
<rscale>  0 0.43532763E+02</rscale>
<asrwt>0</asrwt>
<pdfrwt beam="1">  1        2 0.12771998E-01 0.43532763E+02</pdfrwt>
<pdfrwt beam="2">  1       -2 0.87798466E-03 0.43532763E+02</pdfrwt>
<totfact> 0.81013184E+05</totfact>
</mgrwt>
</event>
<event>
 4    1  0.1433582E+000  0.2999230E+02  0.7818608E-02  0.1598174E+00
         -2   -1    0    0    0  501 -0.00000000000E+00  0.00000000000E+00  0.65363614554E+02  0.65363614606E+02  0.26000000000E-02 0.  1.
          2   -1    0    0  501    0  0.00000000000E+00 -0.00000000000E+00 -0.34405149472E+01  0.34405159296E+01  0.26000000000E-02 0. -1.
        -11    1    1    2    0    0  0.13771475425E+00 -0.13201099169E+02  0.47279483018E+02  0.49088058622E+02  0.51100000000E-03 0.  1.
         11    1    1    2    0    0 -0.13771475425E+00  0.13201099169E+02  0.14643616589E+02  0.19716071913E+02  0.51100000000E-03 0. -1.
<mgrwt>
<rscale>  0 0.29992301E+02</rscale>
<asrwt>0</asrwt>
<pdfrwt beam="2">  1        2 0.52931009E-03 0.29992301E+02</pdfrwt>
<pdfrwt beam="1">  1       -2 0.10055941E-01 0.29992301E+02</pdfrwt>
<totfact> 0.13039147E+06</totfact>
</mgrwt>
</event>
<event>
 4    1  0.1433582E+000  0.3365504E+02  0.7818608E-02  0.1560879E+00
         -2   -1    0    0    0  501 -0.00000000000E+00  0.00000000000E+00  0.13026564349E+02  0.13026564608E+02  0.26000000000E-02 0. -1.
          2   -1    0    0  501    0  0.00000000000E+00 -0.00000000000E+00 -0.21737534577E+02  0.21737534733E+02  0.26000000000E-02 0.  1.
        -11    1    1    2    0    0 -0.46217042232E+01  0.14269382478E+02  0.35241294456E+01  0.15407625217E+02  0.51100000000E-03 0. -1.
         11    1    1    2    0    0  0.46217042232E+01 -0.14269382478E+02 -0.12235099674E+02  0.19356474124E+02  0.51100000000E-03 0.  1.
<mgrwt>
<rscale>  0 0.33655038E+02</rscale>
<asrwt>0</asrwt>
<pdfrwt beam="2">  1        2 0.33442361E-02 0.33655038E+02</pdfrwt>
<pdfrwt beam="1">  1       -2 0.20040869E-02 0.33655038E+02</pdfrwt>
<totfact> 0.12290127E+06</totfact>
</mgrwt>
</event>
<event>
 4    1  0.1433582E+000  0.5658106E+02  0.7818608E-02  0.1412766E+00
         -2   -1    0    0    0  501 -0.00000000000E+00  0.00000000000E+00  0.32937850428E+02  0.32937850531E+02  0.26000000000E-02 0. -1.
          2   -1    0    0  501    0  0.00000000000E+00 -0.00000000000E+00 -0.24298919248E+02  0.24298919387E+02  0.26000000000E-02 0.  1.
        -11    1    1    2    0    0  0.23921263089E+02  0.49056438009E+01 -0.10131108109E+02  0.26437313038E+02  0.51100000000E-03 0.  1.
         11    1    1    2    0    0 -0.23921263089E+02 -0.49056438009E+01  0.18770039289E+02  0.30799456880E+02  0.51100000000E-03 0. -1.
<mgrwt>
<rscale>  0 0.56581063E+02</rscale>
<asrwt>0</asrwt>
<pdfrwt beam="2">  1        2 0.37382953E-02 0.56581063E+02</pdfrwt>
<pdfrwt beam="1">  1       -2 0.50673616E-02 0.56581063E+02</pdfrwt>
<totfact> 0.32617168E+05</totfact>
</mgrwt>
</event>
<event>
 4    1  0.1433582E+000  0.3452477E+02  0.7818608E-02  0.1552862E+00
         -2   -1    0    0    0  501 -0.00000000000E+00  0.00000000000E+00  0.42484387412E+02  0.42484387492E+02  0.26000000000E-02 0. -1.
          2   -1    0    0  501    0  0.00000000000E+00 -0.00000000000E+00 -0.70141042321E+01  0.70141047139E+01  0.26000000000E-02 0.  1.
        -11    1    1    2    0    0 -0.11676501832E+02 -0.60539842495E+01  0.33764406365E+02  0.36235708324E+02  0.51100000000E-03 0. -1.
         11    1    1    2    0    0  0.11676501832E+02  0.60539842495E+01  0.17058768150E+01  0.13262783881E+02  0.51100000000E-03 0.  1.
<mgrwt>
<rscale>  0 0.34524770E+02</rscale>
<asrwt>0</asrwt>
<pdfrwt beam="2">  1        2 0.10790930E-02 0.34524770E+02</pdfrwt>
<pdfrwt beam="1">  1       -2 0.65360596E-02 0.34524770E+02</pdfrwt>
<totfact> 0.10058823E+06</totfact>
</mgrwt>
</event>
<event>
 4    1  0.1433582E+000  0.5353242E+02  0.7818608E-02  0.1427169E+00
         -2   -1    0    0    0  501 -0.00000000000E+00  0.00000000000E+00  0.41828198238E+01  0.41828206318E+01  0.26000000000E-02 0. -1.
          2   -1    0    0  501    0  0.00000000000E+00 -0.00000000000E+00 -0.17127917624E+03  0.17127917626E+03  0.26000000000E-02 0.  1.
        -11    1    1    2    0    0  0.24239744278E+02  0.82210058186E+01 -0.57890042678E+02  0.63296186147E+02  0.51100000000E-03 0.  1.
         11    1    1    2    0    0 -0.24239744278E+02 -0.82210058186E+01 -0.10920631374E+03  0.11216581075E+03  0.51100000000E-03 0. -1.
<mgrwt>
<rscale>  0 0.53532420E+02</rscale>
<asrwt>0</asrwt>
<pdfrwt beam="2">  1        2 0.26350637E-01 0.53532420E+02</pdfrwt>
<pdfrwt beam="1">  1       -2 0.64351094E-03 0.53532420E+02</pdfrwt>
<totfact> 0.58930474E+05</totfact>
</mgrwt>
</event>
<event>
 4    1  0.1433582E+000  0.3056814E+02  0.7818608E-02  0.1591892E+00
         -2   -1    0    0    0  501 -0.00000000000E+00  0.00000000000E+00  0.13678228676E+02  0.13678228923E+02  0.26000000000E-02 0. -1.
          2   -1    0    0  501    0  0.00000000000E+00 -0.00000000000E+00 -0.17078439636E+02  0.17078439834E+02  0.26000000000E-02 0.  1.
        -11    1    1    2    0    0  0.80995028740E+01  0.10980636544E+02  0.52290567860E+01  0.14612301696E+02  0.51100000000E-03 0. -1.
         11    1    1    2    0    0 -0.80995028740E+01 -0.10980636544E+02 -0.86292677462E+01  0.16144367061E+02  0.51100000000E-03 0.  1.
<mgrwt>
<rscale>  0 0.30568141E+02</rscale>
<asrwt>0</asrwt>
<pdfrwt beam="2">  1        2 0.26274523E-02 0.30568141E+02</pdfrwt>
<pdfrwt beam="1">  1       -2 0.21043429E-02 0.30568141E+02</pdfrwt>
<totfact> 0.15156343E+06</totfact>
</mgrwt>
</event>
<event>
 4    1  0.1433582E+000  0.5430631E+02  0.7818608E-02  0.1423408E+00
          2   -1    0    0  501    0  0.00000000000E+00  0.00000000000E+00  0.17092406670E+02  0.17092406868E+02  0.26000000000E-02 0. -1.
         -2   -1    0    0    0  501 -0.00000000000E+00 -0.00000000000E+00 -0.43135759334E+02  0.43135759412E+02  0.26000000000E-02 0.  1.
        -11    1    1    2    0    0 -0.57693968188E+01 -0.10138211862E+02 -0.40215339027E+02  0.41872936041E+02  0.51100000000E-03 0.  1.
         11    1    1    2    0    0  0.57693968188E+01  0.10138211862E+02  0.14171986363E+02  0.18355230239E+02  0.51100000000E-03 0. -1.
<mgrwt>
<rscale>  0 0.54306315E+02</rscale>
<asrwt>0</asrwt>
<pdfrwt beam="1">  1        2 0.26296011E-02 0.54306315E+02</pdfrwt>
<pdfrwt beam="2">  1       -2 0.66362706E-02 0.54306315E+02</pdfrwt>
<totfact> 0.34317531E+05</totfact>
</mgrwt>
</event>
<event>
 4    1  0.1433582E+000  0.3586731E+02  0.7818608E-02  0.1541031E+00
          2   -1    0    0  501    0  0.00000000000E+00  0.00000000000E+00  0.52479367803E+01  0.52479374243E+01  0.26000000000E-02 0. -1.
         -2   -1    0    0    0  501 -0.00000000000E+00 -0.00000000000E+00 -0.61284257072E+02  0.61284257127E+02  0.26000000000E-02 0.  1.
        -11    1    1    2    0    0  0.84382460572E+01  0.14659321103E+02 -0.39072849834E+02  0.42576839786E+02  0.51100000000E-03 0.  1.
         11    1    1    2    0    0 -0.84382460572E+01 -0.14659321103E+02 -0.16963470458E+02  0.23955354766E+02  0.51100000000E-03 0. -1.
<mgrwt>
<rscale>  0 0.35867307E+02</rscale>
<asrwt>0</asrwt>
<pdfrwt beam="1">  1        2 0.80737499E-03 0.35867307E+02</pdfrwt>
<pdfrwt beam="2">  1       -2 0.94283468E-02 0.35867307E+02</pdfrwt>
<totfact> 0.86847238E+05</totfact>
</mgrwt>
</event>
<event>
 4    1  0.1433582E+000  0.4423860E+02  0.7818608E-02  0.1479152E+00
          2   -1    0    0  501    0  0.00000000000E+00  0.00000000000E+00  0.29189835567E+02  0.29189835682E+02  0.26000000000E-02 0.  1.
         -2   -1    0    0    0  501 -0.00000000000E+00 -0.00000000000E+00 -0.16761428733E+02  0.16761428934E+02  0.26000000000E-02 0. -1.
        -11    1    1    2    0    0 -0.16621989723E+02 -0.96271183885E+01  0.17606556216E+02  0.26056914109E+02  0.51100000000E-03 0.  1.
         11    1    1    2    0    0  0.16621989723E+02  0.96271183885E+01 -0.51781493820E+01  0.19894350508E+02  0.51100000000E-03 0. -1.
<mgrwt>
<rscale>  0 0.44238597E+02</rscale>
<asrwt>0</asrwt>
<pdfrwt beam="1">  1        2 0.44907439E-02 0.44238597E+02</pdfrwt>
<pdfrwt beam="2">  1       -2 0.25786814E-02 0.44238597E+02</pdfrwt>
<totfact> 0.64199574E+05</totfact>
</mgrwt>
</event>
<event>
 4    1  0.1433582E+000  0.4954359E+02  0.7818608E-02  0.1447819E+00
          2   -1    0    0  501    0  0.00000000000E+00  0.00000000000E+00  0.10438640735E+02  0.10438641058E+02  0.26000000000E-02 0. -1.
         -2   -1    0    0    0  501 -0.00000000000E+00 -0.00000000000E+00 -0.58785602508E+02  0.58785602565E+02  0.26000000000E-02 0.  1.
        -11    1    1    2    0    0  0.22777502373E+02  0.82948113187E+01 -0.31301220838E+02  0.39590212621E+02  0.51100000000E-03 0. -1.
         11    1    1    2    0    0 -0.22777502373E+02 -0.82948113187E+01 -0.17045740936E+02  0.29634031003E+02  0.51100000000E-03 0.  1.
<mgrwt>
<rscale>  0 0.49543589E+02</rscale>
<asrwt>0</asrwt>
<pdfrwt beam="1">  1        2 0.16059448E-02 0.49543589E+02</pdfrwt>
<pdfrwt beam="2">  1       -2 0.90439386E-02 0.49543589E+02</pdfrwt>
<totfact> 0.40480458E+05</totfact>
</mgrwt>
</event>
<event>
 4    1  0.1433582E+000  0.2343229E+02  0.7818608E-02  0.1684597E+00
         -2   -1    0    0    0  501 -0.00000000000E+00  0.00000000000E+00  0.69111635415E+01  0.69111640306E+01  0.26000000000E-02 0.  1.
          2   -1    0    0  501    0  0.00000000000E+00 -0.00000000000E+00 -0.19861792698E+02  0.19861792868E+02  0.26000000000E-02 0. -1.
        -11    1    1    2    0    0 -0.39598688216E+01 -0.11004793601E+02 -0.56820220672E+01  0.13002746568E+02  0.51100000000E-03 0.  1.
         11    1    1    2    0    0  0.39598688216E+01  0.11004793601E+02 -0.72686070890E+01  0.13770210331E+02  0.51100000000E-03 0. -1.
<mgrwt>
<rscale>  0 0.23432295E+02</rscale>
<asrwt>0</asrwt>
<pdfrwt beam="2">  1        2 0.30556605E-02 0.23432295E+02</pdfrwt>
<pdfrwt beam="1">  1       -2 0.10632560E-02 0.23432295E+02</pdfrwt>
<totfact> 0.28983143E+06</totfact>
</mgrwt>
</event>
<event>
 4    1  0.1433582E+000  0.3977249E+02  0.7818608E-02  0.1509892E+00
         -2   -1    0    0    0  501 -0.00000000000E+00  0.00000000000E+00  0.10972528325E+03  0.10972528328E+03  0.26000000000E-02 0.  1.
          2   -1    0    0  501    0  0.00000000000E+00 -0.00000000000E+00 -0.36041164128E+01  0.36041173506E+01  0.26000000000E-02 0. -1.
        -11    1    1    2    0    0  0.77007803928E+01  0.15389970019E+02  0.24664704261E+02  0.30074920322E+02  0.51100000000E-03 0. -1.
         11    1    1    2    0    0 -0.77007803928E+01 -0.15389970019E+02  0.81456462572E+02  0.83254480305E+02  0.51100000000E-03 0.  1.
<mgrwt>
<rscale>  0 0.39772490E+02</rscale>
<asrwt>0</asrwt>
<pdfrwt beam="2">  1        2 0.55447960E-03 0.39772490E+02</pdfrwt>
<pdfrwt beam="1">  1       -2 0.16880811E-01 0.39772490E+02</pdfrwt>
<totfact> 0.59941065E+05</totfact>
</mgrwt>
</event>
