<event>
 5    1  0.1270889E+001  0.9134883E+02  0.7546771E-02  0.1299618E+00
         -4   -1    0    0    0  501 -0.00000000000E+00  0.00000000000E+00  0.54616483951E+02  0.54616483951E+02  0.00000000000E+00 0. -1.
          4   -1    0    0  501    0  0.00000000000E+00 -0.00000000000E+00 -0.38196386912E+02  0.38196386912E+02  0.00000000000E+00 0.  1.
         23    2    1    2    0    0  0.00000000000E+00  0.00000000000E+00  0.16420097039E+02  0.92812870863E+02  0.91348833661E+02 0.  0.
        -11    1    3    3    0    0 -0.19296279889E+02  0.36560599209E+02 -0.11520987459E+02  0.42915696244E+02  0.00000000000E+00 0.  1.
         11    1    3    3    0    0  0.19296279889E+02 -0.36560599209E+02  0.27941084498E+02  0.49897174619E+02  0.00000000000E+00 0. -1.
<mgrwt>
<rscale>  0 0.91348834E+02</rscale>
<asrwt>0</asrwt>
<pdfrwt beam="2">  1        4 0.58763672E-02 0.91348834E+02</pdfrwt>
<pdfrwt beam="1">  1       -4 0.84025360E-02 0.91348834E+02</pdfrwt>
<totfact> 0.26773871E+04</totfact>
</mgrwt>
</event>
<event>
 5    1  0.1270889E+001  0.9153669E+02  0.7546771E-02  0.1299172E+00
          2   -1    0    0  501    0  0.00000000000E+00  0.00000000000E+00  0.26203847714E+02  0.26203847714E+02  0.00000000000E+00 0. -1.
         -2   -1    0    0    0  501 -0.00000000000E+00 -0.00000000000E+00 -0.79940226163E+02  0.79940226163E+02  0.00000000000E+00 0.  1.
         23    2    1    2    0    0  0.00000000000E+00  0.00000000000E+00 -0.53736378448E+02  0.10614407388E+03  0.91536692373E+02 0.  0.
        -13    1    3    3    0    0 -0.44902600023E+02  0.85787241511E+01 -0.24300429858E+02  0.51772085994E+02  0.00000000000E+00 0.  1.
         13    1    3    3    0    0  0.44902600023E+02 -0.85787241511E+01 -0.29435948591E+02  0.54371987883E+02  0.00000000000E+00 0. -1.
<mgrwt>
<rscale>  0 0.91536692E+02</rscale>
<asrwt>0</asrwt>
<pdfrwt beam="1">  1        2 0.40313612E-02 0.91536692E+02</pdfrwt>
<pdfrwt beam="2">  1       -2 0.12298496E-01 0.91536692E+02</pdfrwt>
<totfact> 0.84275918E+04</totfact>
</mgrwt>
</event>
<event>
 5    1  0.1270889E+001  0.9174026E+02  0.7546771E-02  0.1298691E+00
          3   -1    0    0  501    0  0.00000000000E+00  0.00000000000E+00  0.24448245916E+02  0.24448245916E+02  0.00000000000E+00 0. -1.
         -3   -1    0    0    0  501 -0.00000000000E+00 -0.00000000000E+00 -0.86062156232E+02  0.86062156232E+02  0.00000000000E+00 0.  1.
         23    2    1    2    0    0  0.00000000000E+00  0.00000000000E+00 -0.61613910315E+02  0.11051040215E+03  0.91740258548E+02 0.  0.
        -13    1    3    3    0    0 -0.15192971923E+02  0.35683218018E+02 -0.60312310044E+02  0.71705600805E+02  0.00000000000E+00 0. -1.
         13    1    3    3    0    0  0.15192971923E+02 -0.35683218018E+02 -0.13016002711E+01  0.38804801342E+02  0.00000000000E+00 0.  1.
<mgrwt>
<rscale>  0 0.91740259E+02</rscale>
<asrwt>0</asrwt>
<pdfrwt beam="1">  1        3 0.37612686E-02 0.91740259E+02</pdfrwt>
<pdfrwt beam="2">  1       -3 0.13240332E-01 0.91740259E+02</pdfrwt>
<totfact> 0.33345808E+04</totfact>
</mgrwt>
</event>
<event>
 5    1  0.1270889E+001  0.8886652E+02  0.7546771E-02  0.1305620E+00
          1   -1    0    0  501    0  0.00000000000E+00  0.00000000000E+00  0.24839081394E+03  0.24839081394E+03  0.00000000000E+00 0. -1.
         -1   -1    0    0    0  501 -0.00000000000E+00 -0.00000000000E+00 -0.79484209437E+01  0.79484209437E+01  0.00000000000E+00 0.  1.
         23    2    1    2    0    0  0.00000000000E+00  0.00000000000E+00  0.24044239299E+03  0.25633923488E+03  0.88866523454E+02 0.  0.
        -11    1    3    3    0    0 -0.26192044731E+02 -0.31504721800E+02  0.70615117862E+02  0.81639852851E+02  0.00000000000E+00 0.  1.
         11    1    3    3    0    0  0.26192044731E+02  0.31504721800E+02  0.16982727513E+03  0.17469938203E+03  0.00000000000E+00 0. -1.
<mgrwt>
<rscale>  0 0.88866523E+02</rscale>
<asrwt>0</asrwt>
<pdfrwt beam="1">  1        1 0.38213965E-01 0.88866523E+02</pdfrwt>
<pdfrwt beam="2">  1       -1 0.12228342E-02 0.88866523E+02</pdfrwt>
<totfact> 0.13226361E+05</totfact>
</mgrwt>
</event>
<event>
 5    1  0.1270889E+001  0.8886740E+02  0.7546771E-02  0.1305618E+00
          3   -1    0    0  501    0  0.00000000000E+00  0.00000000000E+00  0.53097989408E+02  0.53097989408E+02  0.00000000000E+00 0. -1.
         -3   -1    0    0    0  501 -0.00000000000E+00 -0.00000000000E+00 -0.37183207988E+02  0.37183207988E+02  0.00000000000E+00 0.  1.
         23    2    1    2    0    0  0.00000000000E+00  0.00000000000E+00  0.15914781420E+02  0.90281197396E+02  0.88867397485E+02 0.  0.
        -11    1    3    3    0    0  0.40055105956E+02  0.18633669589E+02  0.12800670428E+02  0.45994372688E+02  0.00000000000E+00 0. -1.
         11    1    3    3    0    0 -0.40055105956E+02 -0.18633669589E+02  0.31141109917E+01  0.44286824709E+02  0.00000000000E+00 0.  1.
<mgrwt>
<rscale>  0 0.88867397E+02</rscale>
<asrwt>0</asrwt>
<pdfrwt beam="1">  1        3 0.81689214E-02 0.88867397E+02</pdfrwt>
<pdfrwt beam="2">  1       -3 0.57204936E-02 0.88867397E+02</pdfrwt>
<totfact> 0.37963600E+04</totfact>
</mgrwt>
</event>
<event>
 5    1  0.1270889E+001  0.8678686E+02  0.7546771E-02  0.1310825E+00
          1   -1    0    0  501    0  0.00000000000E+00  0.00000000000E+00  0.34958965658E+02  0.34958965658E+02  0.00000000000E+00 0. -1.
         -1   -1    0    0    0  501 -0.00000000000E+00 -0.00000000000E+00 -0.53862852827E+02  0.53862852827E+02  0.00000000000E+00 0.  1.
         23    2    1    2    0    0  0.00000000000E+00  0.00000000000E+00 -0.18903887170E+02  0.88821818485E+02  0.86786856659E+02 0.  0.
        -11    1    3    3    0    0  0.78911961832E+01  0.13240966450E+02  0.32062655466E+02  0.35575385384E+02  0.00000000000E+00 0. -1.
         11    1    3    3    0    0 -0.78911961832E+01 -0.13240966450E+02 -0.50966542635E+02  0.53246433100E+02  0.00000000000E+00 0.  1.
<mgrwt>
<rscale>  0 0.86786857E+02</rscale>
<asrwt>0</asrwt>
<pdfrwt beam="1">  1        1 0.53783024E-02 0.86786857E+02</pdfrwt>
<pdfrwt beam="2">  1       -1 0.82865928E-02 0.86786857E+02</pdfrwt>
<totfact> 0.10211827E+05</totfact>
</mgrwt>
</event>
<event>
 5    1  0.1270889E+001  0.8989130E+02  0.7546771E-02  0.1303115E+00
          1   -1    0    0  501    0  0.00000000000E+00  0.00000000000E+00  0.14861011467E+02  0.14861011467E+02  0.00000000000E+00 0.  1.
         -1   -1    0    0    0  501 -0.00000000000E+00 -0.00000000000E+00 -0.13593364050E+03  0.13593364050E+03  0.00000000000E+00 0. -1.
         23    2    1    2    0    0  0.00000000000E+00  0.00000000000E+00 -0.12107262903E+03  0.15079465197E+03  0.89891298583E+02 0.  0.
        -13    1    3    3    0    0  0.15947569603E+02  0.13932029335E+02  0.59681858860E+01  0.22001037712E+02  0.00000000000E+00 0.  1.
         13    1    3    3    0    0 -0.15947569603E+02 -0.13932029335E+02 -0.12704081492E+03  0.12879361426E+03  0.00000000000E+00 0. -1.
<mgrwt>
<rscale>  0 0.89891299E+02</rscale>
<asrwt>0</asrwt>
<pdfrwt beam="1">  1        1 0.22863094E-02 0.89891299E+02</pdfrwt>
<pdfrwt beam="2">  1       -1 0.20912868E-01 0.89891299E+02</pdfrwt>
<totfact> 0.79342729E+04</totfact>
</mgrwt>
</event>
<event>
 5    1  0.1270889E+001  0.9198401E+02  0.7546771E-02  0.1298117E+00
          1   -1    0    0  501    0  0.00000000000E+00  0.00000000000E+00  0.11730640575E+03  0.11730640575E+03  0.00000000000E+00 0. -1.
         -1   -1    0    0    0  501 -0.00000000000E+00 -0.00000000000E+00 -0.18031959445E+02  0.18031959445E+02  0.00000000000E+00 0.  1.
         23    2    1    2    0    0  0.00000000000E+00  0.00000000000E+00  0.99274446307E+02  0.13533836520E+03  0.91984006243E+02 0.  0.
        -13    1    3    3    0    0 -0.29442829241E+02  0.35274064288E+02  0.52625333841E+02  0.69861044703E+02  0.00000000000E+00 0.  1.
         13    1    3    3    0    0  0.29442829241E+02 -0.35274064288E+02  0.46649112466E+02  0.65477320493E+02  0.00000000000E+00 0. -1.
<mgrwt>
<rscale>  0 0.91984006E+02</rscale>
<asrwt>0</asrwt>
<pdfrwt beam="1">  1        1 0.18047139E-01 0.91984006E+02</pdfrwt>
<pdfrwt beam="2">  1       -1 0.27741477E-02 0.91984006E+02</pdfrwt>
<totfact> 0.10477586E+05</totfact>
</mgrwt>
</event>
<event>
 5    1  0.1270889E+001  0.9177825E+02  0.7546771E-02  0.1298602E+00
         -1   -1    0    0    0  501 -0.00000000000E+00  0.00000000000E+00  0.28651400364E+02  0.28651400364E+02  0.00000000000E+00 0.  1.
          1   -1    0    0  501    0  0.00000000000E+00 -0.00000000000E+00 -0.73497699276E+02  0.73497699276E+02  0.00000000000E+00 0. -1.
         23    2    1    2    0    0  0.00000000000E+00  0.00000000000E+00 -0.44846298912E+02  0.10214909964E+03  0.91778254675E+02 0.  0.
        -11    1    3    3    0    0  0.42188531533E+01  0.22223922905E+02 -0.66861094205E+02  0.70584044864E+02  0.00000000000E+00 0. -1.
         11    1    3    3    0    0 -0.42188531533E+01 -0.22223922905E+02  0.22014795293E+02  0.31565054776E+02  0.00000000000E+00 0.  1.
<mgrwt>
<rscale>  0 0.91778255E+02</rscale>
<asrwt>0</asrwt>
<pdfrwt beam="2">  1        1 0.11307338E-01 0.91778255E+02</pdfrwt>
<pdfrwt beam="1">  1       -1 0.44079079E-02 0.91778255E+02</pdfrwt>
<totfact> 0.97629429E+04</totfact>
</mgrwt>
</event>
<event>
 5    1  0.1270889E+001  0.9365437E+02  0.7546771E-02  0.1294236E+00
          4   -1    0    0  501    0  0.00000000000E+00  0.00000000000E+00  0.15690604138E+02  0.15690604138E+02  0.00000000000E+00 0. -1.
         -4   -1    0    0    0  501 -0.00000000000E+00 -0.00000000000E+00 -0.13975147755E+03  0.13975147755E+03  0.00000000000E+00 0.  1.
         23    2    1    2    0    0  0.00000000000E+00  0.00000000000E+00 -0.12406087341E+03  0.15544208169E+03  0.93654366943E+02 0.  0.
        -11    1    3    3    0    0  0.93070984768E+01  0.25193507759E+02 -0.12569728549E+03  0.12853459649E+03  0.00000000000E+00 0.  1.
         11    1    3    3    0    0 -0.93070984768E+01 -0.25193507759E+02  0.16364120760E+01  0.26907485199E+02  0.00000000000E+00 0. -1.
<mgrwt>
<rscale>  0 0.93654367E+02</rscale>
<asrwt>0</asrwt>
<pdfrwt beam="1">  1        4 0.24139391E-02 0.93654367E+02</pdfrwt>
<pdfrwt beam="2">  1       -4 0.21500227E-01 0.93654367E+02</pdfrwt>
<totfact> 0.21769343E+04</totfact>
</mgrwt>
</event>
<event>
 5    1  0.1270889E+001  0.9183303E+02  0.7546771E-02  0.1298472E+00
          1   -1    0    0  501    0  0.00000000000E+00  0.00000000000E+00  0.14634248824E+03  0.14634248824E+03  0.00000000000E+00 0. -1.
         -1   -1    0    0    0  501 -0.00000000000E+00 -0.00000000000E+00 -0.14406796404E+02  0.14406796404E+02  0.00000000000E+00 0.  1.
         23    2    1    2    0    0  0.00000000000E+00  0.00000000000E+00  0.13193569183E+03  0.16074928464E+03  0.91833031821E+02 0.  0.
        -13    1    3    3    0    0 -0.86302693454E+01  0.42910728643E+02  0.41680415510E+02  0.60440625565E+02  0.00000000000E+00 0.  1.
         13    1    3    3    0    0  0.86302693454E+01 -0.42910728643E+02  0.90255276325E+02  0.10030865908E+03  0.00000000000E+00 0. -1.
<mgrwt>
<rscale>  0 0.91833032E+02</rscale>
<asrwt>0</asrwt>
<pdfrwt beam="1">  1        1 0.22514228E-01 0.91833032E+02</pdfrwt>
<pdfrwt beam="2">  1       -1 0.22164303E-02 0.91833032E+02</pdfrwt>
<totfact> 0.10948362E+05</totfact>
</mgrwt>
</event>
<event>
 5    1  0.1270889E+001  0.9334094E+02  0.7546771E-02  0.1294957E+00
          1   -1    0    0  501    0  0.00000000000E+00  0.00000000000E+00  0.21057153284E+03  0.21057153284E+03  0.00000000000E+00 0. -1.
         -1   -1    0    0    0  501 -0.00000000000E+00 -0.00000000000E+00 -0.10343909644E+02  0.10343909644E+02  0.00000000000E+00 0.  1.
         23    2    1    2    0    0  0.00000000000E+00  0.00000000000E+00  0.20022762319E+03  0.22091544248E+03  0.93340942984E+02 0.  0.
        -11    1    3    3    0    0  0.57353784559E+01  0.35859898895E+02  0.16949277580E+03  0.17333963183E+03  0.00000000000E+00 0. -1.
         11    1    3    3    0    0 -0.57353784559E+01 -0.35859898895E+02  0.30734847394E+02  0.47575810651E+02  0.00000000000E+00 0.  1.
<mgrwt>
<rscale>  0 0.93340943E+02</rscale>
<asrwt>0</asrwt>
<pdfrwt beam="1">  1        1 0.32395617E-01 0.93340943E+02</pdfrwt>
<pdfrwt beam="2">  1       -1 0.15913709E-02 0.93340943E+02</pdfrwt>
<totfact> 0.11229759E+05</totfact>
</mgrwt>
</event>
<event>
 5    1  0.1270889E+001  0.9137101E+02  0.7546771E-02  0.1299565E+00
          2   -1    0    0  501    0  0.00000000000E+00  0.00000000000E+00  0.57940583029E+02  0.57940583029E+02  0.00000000000E+00 0. -1.
         -2   -1    0    0    0  501 -0.00000000000E+00 -0.00000000000E+00 -0.36022514014E+02  0.36022514014E+02  0.00000000000E+00 0.  1.
         23    2    1    2    0    0  0.00000000000E+00  0.00000000000E+00  0.21918069016E+02  0.93963097043E+02  0.91371012124E+02 0.  0.
        -13    1    3    3    0    0 -0.22832970560E+01 -0.16597529461E+02 -0.32749349391E+02  0.36786020649E+02  0.00000000000E+00 0.  1.
         13    1    3    3    0    0  0.22832970560E+01  0.16597529461E+02  0.54667418407E+02  0.57177076393E+02  0.00000000000E+00 0. -1.
<mgrwt>
<rscale>  0 0.91371012E+02</rscale>
<asrwt>0</asrwt>
<pdfrwt beam="1">  1        2 0.89139358E-02 0.91371012E+02</pdfrwt>
<pdfrwt beam="2">  1       -2 0.55419252E-02 0.91371012E+02</pdfrwt>
<totfact> 0.10445239E+05</totfact>
</mgrwt>
</event>
<event>
 5    1  0.1270889E+001  0.8991568E+02  0.7546771E-02  0.1303056E+00
         -1   -1    0    0    0  501 -0.00000000000E+00  0.00000000000E+00  0.67391743826E+01  0.67391743826E+01  0.00000000000E+00 0.  1.
          1   -1    0    0  501    0  0.00000000000E+00 -0.00000000000E+00 -0.29991914500E+03  0.29991914500E+03  0.00000000000E+00 0. -1.
         23    2    1    2    0    0  0.00000000000E+00  0.00000000000E+00 -0.29317997062E+03  0.30665831938E+03  0.89915680920E+02 0.  0.
        -11    1    3    3    0    0 -0.41657316605E+02 -0.14449528363E+02 -0.11664607314E+03  0.12470135235E+03  0.00000000000E+00 0.  1.
         11    1    3    3    0    0  0.41657316605E+02  0.14449528363E+02 -0.17653389747E+03  0.18195696704E+03  0.00000000000E+00 0. -1.
<mgrwt>
<rscale>  0 0.89915681E+02</rscale>
<asrwt>0</asrwt>
<pdfrwt beam="2">  1        1 0.46141409E-01 0.89915681E+02</pdfrwt>
<pdfrwt beam="1">  1       -1 0.10367960E-02 0.89915681E+02</pdfrwt>
<totfact> 0.13295346E+05</totfact>
</mgrwt>
</event>
<event>
 5    1  0.1270889E+001  0.9055047E+02  0.7546771E-02  0.1301524E+00
         -2   -1    0    0    0  501 -0.00000000000E+00  0.00000000000E+00  0.90711694434E+02  0.90711694434E+02  0.00000000000E+00 0.  1.
          2   -1    0    0  501    0  0.00000000000E+00 -0.00000000000E+00 -0.22597385015E+02  0.22597385015E+02  0.00000000000E+00 0. -1.
         23    2    1    2    0    0  0.00000000000E+00  0.00000000000E+00  0.68114309418E+02  0.11330907945E+03  0.90550473980E+02 0.  0.
        -13    1    3    3    0    0  0.14492327984E+02 -0.28457712017E+02  0.74216626058E+02  0.80795894246E+02  0.00000000000E+00 0.  1.
         13    1    3    3    0    0 -0.14492327984E+02  0.28457712017E+02 -0.61023166394E+01  0.32513185202E+02  0.00000000000E+00 0. -1.
<mgrwt>
<rscale>  0 0.90550474E+02</rscale>
<asrwt>0</asrwt>
<pdfrwt beam="2">  1        2 0.34765208E-02 0.90550474E+02</pdfrwt>
<pdfrwt beam="1">  1       -2 0.13955645E-01 0.90550474E+02</pdfrwt>
<totfact> 0.83530820E+04</totfact>
</mgrwt>
</event>
<event>
 5    1  0.1270889E+001  0.8891783E+02  0.7546771E-02  0.1305494E+00
          3   -1    0    0  501    0  0.00000000000E+00  0.00000000000E+00  0.10990399149E+03  0.10990399149E+03  0.00000000000E+00 0. -1.
         -3   -1    0    0    0  501 -0.00000000000E+00 -0.00000000000E+00 -0.17984743526E+02  0.17984743526E+02  0.00000000000E+00 0.  1.
         23    2    1    2    0    0  0.00000000000E+00  0.00000000000E+00  0.91919247965E+02  0.12788873502E+03  0.88917829470E+02 0.  0.
        -11    1    3    3    0    0 -0.35630374567E+02  0.14377037576E+02  0.13786734443E+02  0.40820299458E+02  0.00000000000E+00 0. -1.
         11    1    3    3    0    0  0.35630374567E+02 -0.14377037576E+02  0.78132513522E+02  0.87068435558E+02  0.00000000000E+00 0.  1.
<mgrwt>
<rscale>  0 0.88917829E+02</rscale>
<asrwt>0</asrwt>
<pdfrwt beam="1">  1        3 0.16908306E-01 0.88917829E+02</pdfrwt>
<pdfrwt beam="2">  1       -3 0.27668837E-02 0.88917829E+02</pdfrwt>
<totfact> 0.35012857E+04</totfact>
</mgrwt>
</event>
<event>
 5    1  0.1270889E+001  0.9132931E+02  0.7546771E-02  0.1299664E+00
          1   -1    0    0  501    0  0.00000000000E+00  0.00000000000E+00  0.32673354441E+02  0.32673354441E+02  0.00000000000E+00 0. -1.
         -1   -1    0    0    0  501 -0.00000000000E+00 -0.00000000000E+00 -0.63821445654E+02  0.63821445654E+02  0.00000000000E+00 0.  1.
         23    2    1    2    0    0  0.00000000000E+00  0.00000000000E+00 -0.31148091213E+02  0.96494800094E+02  0.91329309967E+02 0.  0.
        -11    1    3    3    0    0  0.87125506326E+00 -0.43981741480E+02 -0.26292344287E+01  0.44068872718E+02  0.00000000000E+00 0. -1.
         11    1    3    3    0    0 -0.87125506326E+00  0.43981741480E+02 -0.28518856784E+02  0.52425927376E+02  0.00000000000E+00 0.  1.
<mgrwt>
<rscale>  0 0.91329310E+02</rscale>
<asrwt>0</asrwt>
<pdfrwt beam="1">  1        1 0.50266699E-02 0.91329310E+02</pdfrwt>
<pdfrwt beam="2">  1       -1 0.98186840E-02 0.91329310E+02</pdfrwt>
<totfact> 0.87453678E+04</totfact>
</mgrwt>
</event>
<event>
 5    1  0.1270889E+001  0.9192801E+02  0.7546771E-02  0.1298249E+00
          1   -1    0    0  501    0  0.00000000000E+00  0.00000000000E+00  0.50478925610E+02  0.50478925610E+02  0.00000000000E+00 0. -1.
         -1   -1    0    0    0  501 -0.00000000000E+00 -0.00000000000E+00 -0.41852906985E+02  0.41852906985E+02  0.00000000000E+00 0.  1.
         23    2    1    2    0    0  0.00000000000E+00  0.00000000000E+00  0.86260186254E+01  0.92331832595E+02  0.91928010492E+02 0.  0.
        -13    1    3    3    0    0  0.33644064178E+02 -0.18579755445E+02  0.29634057013E+02  0.48531512462E+02  0.00000000000E+00 0. -1.
         13    1    3    3    0    0 -0.33644064178E+02  0.18579755445E+02 -0.21008038388E+02  0.43800320133E+02  0.00000000000E+00 0.  1.
<mgrwt>
<rscale>  0 0.91928010E+02</rscale>
<asrwt>0</asrwt>
<pdfrwt beam="1">  1        1 0.77659886E-02 0.91928010E+02</pdfrwt>
<pdfrwt beam="2">  1       -1 0.64389088E-02 0.91928010E+02</pdfrwt>
<totfact> 0.91766575E+04</totfact>
</mgrwt>
</event>
<event>
 5    1  0.1270889E+001  0.9090803E+02  0.7546771E-02  0.1300668E+00
          1   -1    0    0  501    0  0.00000000000E+00  0.00000000000E+00  0.53736184453E+02  0.53736184453E+02  0.00000000000E+00 0. -1.
         -1   -1    0    0    0  501 -0.00000000000E+00 -0.00000000000E+00 -0.38448343924E+02  0.38448343924E+02  0.00000000000E+00 0.  1.
         23    2    1    2    0    0  0.00000000000E+00  0.00000000000E+00  0.15287840529E+02  0.92184528377E+02  0.90908026071E+02 0.  0.
        -13    1    3    3    0    0 -0.13288756880E+02  0.21356597414E+02 -0.30747596180E+02  0.39725432450E+02  0.00000000000E+00 0.  1.
         13    1    3    3    0    0  0.13288756880E+02 -0.21356597414E+02  0.46035436709E+02  0.52459095927E+02  0.00000000000E+00 0. -1.
<mgrwt>
<rscale>  0 0.90908026E+02</rscale>
<asrwt>0</asrwt>
<pdfrwt beam="1">  1        1 0.82671054E-02 0.90908026E+02</pdfrwt>
<pdfrwt beam="2">  1       -1 0.59151298E-02 0.90908026E+02</pdfrwt>
<totfact> 0.95566437E+04</totfact>
</mgrwt>
</event>
<event>
 5    1  0.1270889E+001  0.9125067E+02  0.7546771E-02  0.1299851E+00
         -2   -1    0    0    0  501 -0.00000000000E+00  0.00000000000E+00  0.13303467856E+02  0.13303467856E+02  0.00000000000E+00 0.  1.
          2   -1    0    0  501    0  0.00000000000E+00 -0.00000000000E+00 -0.15647581602E+03  0.15647581602E+03  0.00000000000E+00 0. -1.
         23    2    1    2    0    0  0.00000000000E+00  0.00000000000E+00 -0.14317234816E+03  0.16977928388E+03  0.91250665503E+02 0.  0.
        -11    1    3    3    0    0  0.22607697831E+02  0.38015710252E+02 -0.92418766862E+02  0.10245745798E+03  0.00000000000E+00 0. -1.
         11    1    3    3    0    0 -0.22607697831E+02 -0.38015710252E+02 -0.50753581301E+02  0.67321825897E+02  0.00000000000E+00 0.  1.
<mgrwt>
<rscale>  0 0.91250666E+02</rscale>
<asrwt>0</asrwt>
<pdfrwt beam="2">  1        2 0.24073204E-01 0.91250666E+02</pdfrwt>
<pdfrwt beam="1">  1       -2 0.20466872E-02 0.91250666E+02</pdfrwt>
<totfact> 0.14153320E+05</totfact>
</mgrwt>
</event>
<event>
 5    1  0.1270889E+001  0.9364246E+02  0.7546771E-02  0.1294263E+00
          1   -1    0    0  501    0  0.00000000000E+00  0.00000000000E+00  0.19988631110E+02  0.19988631110E+02  0.00000000000E+00 0. -1.
         -1   -1    0    0    0  501 -0.00000000000E+00 -0.00000000000E+00 -0.10967373373E+03  0.10967373373E+03  0.00000000000E+00 0.  1.
         23    2    1    2    0    0  0.00000000000E+00  0.00000000000E+00 -0.89685102617E+02  0.12966236484E+03  0.93642464853E+02 0.  0.
        -13    1    3    3    0    0 -0.39718468705E+02 -0.11564210233E+02 -0.14476620906E+02  0.43827619915E+02  0.00000000000E+00 0.  1.
         13    1    3    3    0    0  0.39718468705E+02  0.11564210233E+02 -0.75208481711E+02  0.85834744922E+02  0.00000000000E+00 0. -1.
<mgrwt>
<rscale>  0 0.93642465E+02</rscale>
<asrwt>0</asrwt>
<pdfrwt beam="1">  1        1 0.30751740E-02 0.93642465E+02</pdfrwt>
<pdfrwt beam="2">  1       -1 0.16872882E-01 0.93642465E+02</pdfrwt>
<totfact> 0.74626230E+04</totfact>
</mgrwt>
</event>
<event>
 5    1  0.1270889E+001  0.8945210E+02  0.7546771E-02  0.1304184E+00
         -1   -1    0    0    0  501 -0.00000000000E+00  0.00000000000E+00  0.13486175551E+03  0.13486175551E+03  0.00000000000E+00 0.  1.
          1   -1    0    0  501    0  0.00000000000E+00 -0.00000000000E+00 -0.14833112000E+02  0.14833112000E+02  0.00000000000E+00 0. -1.
         23    2    1    2    0    0  0.00000000000E+00  0.00000000000E+00  0.12002864351E+03  0.14969486751E+03  0.89452099448E+02 0.  0.
        -13    1    3    3    0    0 -0.33545807281E+02 -0.28642016103E+02  0.47633713100E+02  0.64920388910E+02  0.00000000000E+00 0.  1.
         13    1    3    3    0    0  0.33545807281E+02  0.28642016103E+02  0.72394930408E+02  0.84774478597E+02  0.00000000000E+00 0. -1.
<mgrwt>
<rscale>  0 0.89452099E+02</rscale>
<asrwt>0</asrwt>
<pdfrwt beam="2">  1        1 0.22820173E-02 0.89452099E+02</pdfrwt>
<pdfrwt beam="1">  1       -1 0.20747962E-01 0.89452099E+02</pdfrwt>
<totfact> 0.80493754E+04</totfact>
</mgrwt>
</event>
<event>
 5    1  0.1270889E+001  0.9620859E+02  0.7546771E-02  0.1288477E+00
         -1   -1    0    0    0  501 -0.00000000000E+00  0.00000000000E+00  0.29404928632E+02  0.29404928632E+02  0.00000000000E+00 0.  1.
          1   -1    0    0  501    0  0.00000000000E+00 -0.00000000000E+00 -0.78695075750E+02  0.78695075750E+02  0.00000000000E+00 0. -1.
         23    2    1    2    0    0  0.00000000000E+00  0.00000000000E+00 -0.49290147118E+02  0.10810000438E+03  0.96208587685E+02 0.  0.
        -11    1    3    3    0    0 -0.15145434211E+01  0.35069567529E+02  0.12311894601E+02  0.37198805856E+02  0.00000000000E+00 0.  1.
         11    1    3    3    0    0  0.15145434211E+01 -0.35069567529E+02 -0.61602041719E+02  0.70901198526E+02  0.00000000000E+00 0. -1.
<mgrwt>
<rscale>  0 0.96208588E+02</rscale>
<asrwt>0</asrwt>
<pdfrwt beam="2">  1        1 0.12106935E-01 0.96208588E+02</pdfrwt>
<pdfrwt beam="1">  1       -1 0.45238352E-02 0.96208588E+02</pdfrwt>
<totfact> 0.86641521E+04</totfact>
</mgrwt>
</event>
<event>
 5    1  0.1270889E+001  0.9218614E+02  0.7546771E-02  0.1297642E+00
          2   -1    0    0  501    0  0.00000000000E+00  0.00000000000E+00  0.14624546098E+03  0.14624546098E+03  0.00000000000E+00 0.  1.
         -2   -1    0    0    0  501 -0.00000000000E+00 -0.00000000000E+00 -0.14527433443E+02  0.14527433443E+02  0.00000000000E+00 0. -1.
         23    2    1    2    0    0  0.00000000000E+00  0.00000000000E+00  0.13171802754E+03  0.16077289443E+03  0.92186142144E+02 0.  0.
        -11    1    3    3    0    0 -0.22804018034E+02 -0.21885312039E+02  0.12436975257E+03  0.12832312915E+03  0.00000000000E+00 0.  1.
         11    1    3    3    0    0  0.22804018034E+02  0.21885312039E+02  0.73482749755E+01  0.32449765278E+02  0.00000000000E+00 0. -1.
<mgrwt>
<rscale>  0 0.92186142E+02</rscale>
<asrwt>0</asrwt>
<pdfrwt beam="1">  1        2 0.22499301E-01 0.92186142E+02</pdfrwt>
<pdfrwt beam="2">  1       -2 0.22349899E-02 0.92186142E+02</pdfrwt>
<totfact> 0.13452301E+05</totfact>
</mgrwt>
</event>
<event>
 5    1  0.1270889E+001  0.8911855E+02  0.7546771E-02  0.1305000E+00
          1   -1    0    0  501    0  0.00000000000E+00  0.00000000000E+00  0.12175301412E+03  0.12175301412E+03  0.00000000000E+00 0. -1.
         -1   -1    0    0    0  501 -0.00000000000E+00 -0.00000000000E+00 -0.16307842829E+02  0.16307842829E+02  0.00000000000E+00 0.  1.
         23    2    1    2    0    0  0.00000000000E+00  0.00000000000E+00  0.10544517129E+03  0.13806085695E+03  0.89118550667E+02 0.  0.
        -13    1    3    3    0    0  0.21720995636E+02 -0.84934444126E+01  0.11154233166E+03  0.11395451724E+03  0.00000000000E+00 0. -1.
         13    1    3    3    0    0 -0.21720995636E+02  0.84934444126E+01 -0.60971603649E+01  0.24106339704E+02  0.00000000000E+00 0.  1.
<mgrwt>
<rscale>  0 0.89118551E+02</rscale>
<asrwt>0</asrwt>
<pdfrwt beam="1">  1        1 0.18731232E-01 0.89118551E+02</pdfrwt>
<pdfrwt beam="2">  1       -1 0.25088990E-02 0.89118551E+02</pdfrwt>
<totfact> 0.11489333E+05</totfact>
</mgrwt>
</event>
<event>
 5    1  0.1270889E+001  0.9205481E+02  0.7546771E-02  0.1297951E+00
          1   -1    0    0  501    0  0.00000000000E+00  0.00000000000E+00  0.40088735009E+03  0.40088735009E+03  0.00000000000E+00 0. -1.
         -1   -1    0    0    0  501 -0.00000000000E+00 -0.00000000000E+00 -0.52845817984E+01  0.52845817984E+01  0.00000000000E+00 0.  1.
         23    2    1    2    0    0  0.00000000000E+00  0.00000000000E+00  0.39560276829E+03  0.40617193189E+03  0.92054809619E+02 0.  0.
        -13    1    3    3    0    0  0.20410048530E+02  0.40768749306E+02  0.16994418310E+03  0.17595364836E+03  0.00000000000E+00 0.  1.
         13    1    3    3    0    0 -0.20410048530E+02 -0.40768749306E+02  0.22565858519E+03  0.23021828353E+03  0.00000000000E+00 0. -1.
<mgrwt>
<rscale>  0 0.92054810E+02</rscale>
<asrwt>0</asrwt>
<pdfrwt beam="1">  1        1 0.61674953E-01 0.92054810E+02</pdfrwt>
<pdfrwt beam="2">  1       -1 0.81301290E-03 0.92054810E+02</pdfrwt>
<totfact> 0.13154680E+05</totfact>
</mgrwt>
</event>
<event>
 5    1  0.1270889E+001  0.9612526E+02  0.7546771E-02  0.1288662E+00
         -1   -1    0    0    0  501 -0.00000000000E+00  0.00000000000E+00  0.33125285846E+02  0.33125285846E+02  0.00000000000E+00 0.  1.
          1   -1    0    0  501    0  0.00000000000E+00 -0.00000000000E+00 -0.69735741136E+02  0.69735741136E+02  0.00000000000E+00 0. -1.
         23    2    1    2    0    0  0.00000000000E+00  0.00000000000E+00 -0.36610455290E+02  0.10286102698E+03  0.96125259090E+02 0.  0.
        -11    1    3    3    0    0 -0.44791010045E+02 -0.17194243492E+02 -0.15252279948E+02  0.50343903640E+02  0.00000000000E+00 0. -1.
         11    1    3    3    0    0  0.44791010045E+02  0.17194243492E+02 -0.21358175342E+02  0.52517123341E+02  0.00000000000E+00 0.  1.
<mgrwt>
<rscale>  0 0.96125259E+02</rscale>
<asrwt>0</asrwt>
<pdfrwt beam="2">  1        1 0.10728575E-01 0.96125259E+02</pdfrwt>
<pdfrwt beam="1">  1       -1 0.50961979E-02 0.96125259E+02</pdfrwt>
<totfact> 0.85175353E+04</totfact>
</mgrwt>
</event>
<event>
 5    1  0.1270889E+001  0.9015138E+02  0.7546771E-02  0.1302486E+00
          2   -1    0    0  501    0  0.00000000000E+00  0.00000000000E+00  0.29431721497E+03  0.29431721497E+03  0.00000000000E+00 0. -1.
         -2   -1    0    0    0  501 -0.00000000000E+00 -0.00000000000E+00 -0.69034966155E+01  0.69034966155E+01  0.00000000000E+00 0.  1.
         23    2    1    2    0    0  0.00000000000E+00  0.00000000000E+00  0.28741371836E+03  0.30122071159E+03  0.90151381519E+02 0.  0.
        -11    1    3    3    0    0 -0.42916280063E+02 -0.22269806393E+01  0.98254274500E+02  0.10724117211E+03  0.00000000000E+00 0.  1.
         11    1    3    3    0    0  0.42916280063E+02  0.22269806393E+01  0.18915944386E+03  0.19397953948E+03  0.00000000000E+00 0. -1.
<mgrwt>
<rscale>  0 0.90151382E+02</rscale>
<asrwt>0</asrwt>
<pdfrwt beam="1">  1        2 0.45279562E-01 0.90151382E+02</pdfrwt>
<pdfrwt beam="2">  1       -2 0.10620766E-02 0.90151382E+02</pdfrwt>
<totfact> 0.18384600E+05</totfact>
</mgrwt>
</event>
<event>
 5    1  0.1270889E+001  0.8512880E+02  0.7546771E-02  0.1315096E+00
          1   -1    0    0  501    0  0.00000000000E+00  0.00000000000E+00  0.24236645704E+03  0.24236645704E+03  0.00000000000E+00 0. -1.
         -1   -1    0    0    0  501 -0.00000000000E+00 -0.00000000000E+00 -0.74751611850E+01  0.74751611850E+01  0.00000000000E+00 0.  1.
         23    2    1    2    0    0  0.00000000000E+00  0.00000000000E+00  0.23489129586E+03  0.24984161823E+03  0.85128804343E+02 0.  0.
        -13    1    3    3    0    0 -0.43513225791E+01  0.36067295271E+02  0.18254045154E+03  0.18612039180E+03  0.00000000000E+00 0. -1.
         13    1    3    3    0    0  0.43513225791E+01 -0.36067295271E+02  0.52350844320E+02  0.63721226428E+02  0.00000000000E+00 0.  1.
<mgrwt>
<rscale>  0 0.85128804E+02</rscale>
<asrwt>0</asrwt>
<pdfrwt beam="1">  1        1 0.37287141E-01 0.85128804E+02</pdfrwt>
<pdfrwt beam="2">  1       -1 0.11500250E-02 0.85128804E+02</pdfrwt>
<totfact> 0.14756298E+05</totfact>
</mgrwt>
</event>
<event>
 4    1  0.1270889E+001  0.5341101E+02  0.7546771E-02  0.1427766E+00
          1   -1    0    0  501    0  0.00000000000E+00  0.00000000000E+00  0.12543286700E+03  0.12543286700E+03  0.00000000000E+00 0.  1.
         -1   -1    0    0    0  501 -0.00000000000E+00 -0.00000000000E+00 -0.56857828966E+01  0.56857828966E+01  0.00000000000E+00 0. -1.
        -11    1    1    2    0    0  0.19501497049E+02 -0.12135525874E+02  0.26428779489E+02  0.35015136165E+02  0.00000000000E+00 0. -1.
         11    1    1    2    0    0 -0.19501497049E+02  0.12135525874E+02  0.93318304610E+02  0.96103513727E+02  0.00000000000E+00 0.  1.
<mgrwt>
<rscale>  0 0.53411012E+02</rscale>
<asrwt>0</asrwt>
<pdfrwt beam="1">  1        1 0.19297362E-01 0.53411012E+02</pdfrwt>
<pdfrwt beam="2">  1       -1 0.87473593E-03 0.53411012E+02</pdfrwt>
<totfact> 0.44122059E+05</totfact>
</mgrwt>
</event>
<event>
 5    1  0.1270889E+001  0.7854724E+02  0.7546771E-02  0.1333225E+00
         -1   -1    0    0    0  501 -0.00000000000E+00  0.00000000000E+00  0.60129317476E+02  0.60129317476E+02  0.00000000000E+00 0.  1.
          1   -1    0    0  501    0  0.00000000000E+00 -0.00000000000E+00 -0.25651667270E+02  0.25651667270E+02  0.00000000000E+00 0. -1.
         23    2    1    2    0    0  0.00000000000E+00  0.00000000000E+00  0.34477650206E+02  0.85780984746E+02  0.78547240437E+02 0.  0.
        -11    1    3    3    0    0  0.81266851635E+01 -0.20445225181E+02 -0.18289786873E+02  0.28610602026E+02  0.00000000000E+00 0. -1.
         11    1    3    3    0    0 -0.81266851635E+01  0.20445225181E+02  0.52767437079E+02  0.57170382720E+02  0.00000000000E+00 0.  1.
<mgrwt>
<rscale>  0 0.78547240E+02</rscale>
<asrwt>0</asrwt>
<pdfrwt beam="2">  1        1 0.39464104E-02 0.78547240E+02</pdfrwt>
<pdfrwt beam="1">  1       -1 0.92506642E-02 0.78547240E+02</pdfrwt>
<totfact> 0.12931194E+05</totfact>
</mgrwt>
</event>
<event>
 5    1  0.1270889E+001  0.9171220E+02  0.7546771E-02  0.1298758E+00
         -1   -1    0    0    0  501 -0.00000000000E+00  0.00000000000E+00  0.21774159672E+02  0.21774159672E+02  0.00000000000E+00 0.  1.
          1   -1    0    0  501    0  0.00000000000E+00 -0.00000000000E+00 -0.96572358478E+02  0.96572358478E+02  0.00000000000E+00 0. -1.
         23    2    1    2    0    0  0.00000000000E+00  0.00000000000E+00 -0.74798198807E+02  0.11834651815E+03  0.91712201007E+02 0.  0.
        -11    1    3    3    0    0 -0.14043238541E+02  0.40300070397E+02 -0.59048571132E+02  0.72856310471E+02  0.00000000000E+00 0. -1.
         11    1    3    3    0    0  0.14043238541E+02 -0.40300070397E+02 -0.15749627674E+02  0.45490207678E+02  0.00000000000E+00 0.  1.
<mgrwt>
<rscale>  0 0.91712201E+02</rscale>
<asrwt>0</asrwt>
<pdfrwt beam="2">  1        1 0.14857286E-01 0.91712201E+02</pdfrwt>
<pdfrwt beam="1">  1       -1 0.33498707E-02 0.91712201E+02</pdfrwt>
<totfact> 0.10220222E+05</totfact>
</mgrwt>
</event>
<event>
 5    1  0.1270889E+001  0.9041458E+02  0.7546771E-02  0.1301851E+00
         -1   -1    0    0    0  501 -0.00000000000E+00  0.00000000000E+00  0.89325251164E+01  0.89325251164E+01  0.00000000000E+00 0.  1.
          1   -1    0    0  501    0  0.00000000000E+00 -0.00000000000E+00 -0.22879299651E+03  0.22879299651E+03  0.00000000000E+00 0. -1.
         23    2    1    2    0    0  0.00000000000E+00  0.00000000000E+00 -0.21986047139E+03  0.23772552162E+03  0.90414582624E+02 0.  0.
        -11    1    3    3    0    0  0.31994155938E+02 -0.13801922470E+02 -0.34200491029E+02  0.48824099220E+02  0.00000000000E+00 0.  1.
         11    1    3    3    0    0 -0.31994155938E+02  0.13801922470E+02 -0.18565998036E+03  0.18890142240E+03  0.00000000000E+00 0. -1.
<mgrwt>
<rscale>  0 0.90414583E+02</rscale>
<asrwt>0</asrwt>
<pdfrwt beam="2">  1        1 0.35198927E-01 0.90414583E+02</pdfrwt>
<pdfrwt beam="1">  1       -1 0.13742345E-02 0.90414583E+02</pdfrwt>
<totfact> 0.12430845E+05</totfact>
</mgrwt>
</event>
<event>
 5    1  0.1270889E+001  0.8929252E+02  0.7546771E-02  0.1304574E+00
          2   -1    0    0  501    0  0.00000000000E+00  0.00000000000E+00  0.95898758553E+01  0.95898758553E+01  0.00000000000E+00 0.  1.
         -2   -1    0    0    0  501 -0.00000000000E+00 -0.00000000000E+00 -0.20785343818E+03  0.20785343818E+03  0.00000000000E+00 0. -1.
         23    2    1    2    0    0  0.00000000000E+00  0.00000000000E+00 -0.19826356233E+03  0.21744331404E+03  0.89292523053E+02 0.  0.
        -13    1    3    3    0    0 -0.23149757621E+02  0.32809937570E+02 -0.51606125254E+02  0.65388037476E+02  0.00000000000E+00 0.  1.
         13    1    3    3    0    0  0.23149757621E+02 -0.32809937570E+02 -0.14665743708E+03  0.15205527656E+03  0.00000000000E+00 0. -1.
<mgrwt>
<rscale>  0 0.89292523E+02</rscale>
<asrwt>0</asrwt>
<pdfrwt beam="1">  1        2 0.14753654E-02 0.89292523E+02</pdfrwt>
<pdfrwt beam="2">  1       -2 0.31977455E-01 0.89292523E+02</pdfrwt>
<totfact> 0.64632365E+04</totfact>
</mgrwt>
</event>
<event>
 5    1  0.1270889E+001  0.9920198E+02  0.7546771E-02  0.1281983E+00
          2   -1    0    0  501    0  0.00000000000E+00  0.00000000000E+00  0.15735759953E+03  0.15735759953E+03  0.00000000000E+00 0. -1.
         -2   -1    0    0    0  501 -0.00000000000E+00 -0.00000000000E+00 -0.15634823511E+02  0.15634823511E+02  0.00000000000E+00 0.  1.
         23    2    1    2    0    0  0.00000000000E+00  0.00000000000E+00  0.14172277601E+03  0.17299242304E+03  0.99201981768E+02 0.  0.
        -11    1    3    3    0    0  0.42924756379E+02  0.38933611383E+01  0.28054978498E+02  0.51427373933E+02  0.00000000000E+00 0.  1.
         11    1    3    3    0    0 -0.42924756379E+02 -0.38933611383E+01  0.11366779752E+03  0.12156504910E+03  0.00000000000E+00 0. -1.
<mgrwt>
<rscale>  0 0.99201982E+02</rscale>
<asrwt>0</asrwt>
<pdfrwt beam="1">  1        2 0.24208860E-01 0.99201982E+02</pdfrwt>
<pdfrwt beam="2">  1       -2 0.24053576E-02 0.99201982E+02</pdfrwt>
<totfact> 0.11291539E+05</totfact>
</mgrwt>
</event>
<event>
 5    1  0.1270889E+001  0.9094535E+02  0.7546771E-02  0.1300578E+00
          2   -1    0    0  501    0  0.00000000000E+00  0.00000000000E+00  0.71982578679E+02  0.71982578679E+02  0.00000000000E+00 0. -1.
         -2   -1    0    0    0  501 -0.00000000000E+00 -0.00000000000E+00 -0.28725894484E+02  0.28725894484E+02  0.00000000000E+00 0.  1.
         23    2    1    2    0    0  0.00000000000E+00  0.00000000000E+00  0.43256684195E+02  0.10070847316E+03  0.90945345341E+02 0.  0.
        -11    1    3    3    0    0 -0.13188918373E+02  0.25650576327E+02  0.60557134642E+02  0.67075078754E+02  0.00000000000E+00 0. -1.
         11    1    3    3    0    0  0.13188918373E+02 -0.25650576327E+02 -0.17300450447E+02  0.33633394409E+02  0.00000000000E+00 0.  1.
<mgrwt>
<rscale>  0 0.90945345E+02</rscale>
<asrwt>0</asrwt>
<pdfrwt beam="1">  1        2 0.11074243E-01 0.90945345E+02</pdfrwt>
<pdfrwt beam="2">  1       -2 0.44193684E-02 0.90945345E+02</pdfrwt>
<totfact> 0.11227615E+05</totfact>
</mgrwt>
</event>
<event>
 5    1  0.1270889E+001  0.9123883E+02  0.7546771E-02  0.1299879E+00
         -1   -1    0    0    0  501 -0.00000000000E+00  0.00000000000E+00  0.35017386883E+02  0.35017386883E+02  0.00000000000E+00 0.  1.
          1   -1    0    0  501    0  0.00000000000E+00 -0.00000000000E+00 -0.59431357606E+02  0.59431357606E+02  0.00000000000E+00 0. -1.
         23    2    1    2    0    0  0.00000000000E+00  0.00000000000E+00 -0.24413970724E+02  0.94448744489E+02  0.91238825995E+02 0.  0.
        -11    1    3    3    0    0 -0.38503230797E+02 -0.19121071033E+02 -0.28008911495E+02  0.51308997870E+02  0.00000000000E+00 0.  1.
         11    1    3    3    0    0  0.38503230797E+02  0.19121071033E+02  0.35949407715E+01  0.43139746619E+02  0.00000000000E+00 0. -1.
<mgrwt>
<rscale>  0 0.91238826E+02</rscale>
<asrwt>0</asrwt>
<pdfrwt beam="2">  1        1 0.91432857E-02 0.91238826E+02</pdfrwt>
<pdfrwt beam="1">  1       -1 0.53872904E-02 0.91238826E+02</pdfrwt>
<totfact> 0.96051035E+04</totfact>
</mgrwt>
</event>
<event>
 5    1  0.1270889E+001  0.9361488E+02  0.7546771E-02  0.1294327E+00
          2   -1    0    0  501    0  0.00000000000E+00  0.00000000000E+00  0.93123268163E+02  0.93123268163E+02  0.00000000000E+00 0. -1.
         -2   -1    0    0    0  501 -0.00000000000E+00 -0.00000000000E+00 -0.23527271951E+02  0.23527271951E+02  0.00000000000E+00 0.  1.
         23    2    1    2    0    0  0.00000000000E+00  0.00000000000E+00  0.69595996212E+02  0.11665054011E+03  0.93614880335E+02 0.  0.
        -11    1    3    3    0    0 -0.21408866159E+02 -0.15612207159E+02 -0.13282416005E+02  0.29639553599E+02  0.00000000000E+00 0.  1.
         11    1    3    3    0    0  0.21408866159E+02  0.15612207159E+02  0.82878412218E+02  0.87010986515E+02  0.00000000000E+00 0. -1.
<mgrwt>
<rscale>  0 0.93614880E+02</rscale>
<asrwt>0</asrwt>
<pdfrwt beam="1">  1        2 0.14326656E-01 0.93614880E+02</pdfrwt>
<pdfrwt beam="2">  1       -2 0.36195803E-02 0.93614880E+02</pdfrwt>
<totfact> 0.11160902E+05</totfact>
</mgrwt>
</event>
<event>
 5    1  0.1270889E+001  0.8918558E+02  0.7546771E-02  0.1304836E+00
         -1   -1    0    0    0  501 -0.00000000000E+00  0.00000000000E+00  0.19459103338E+03  0.19459103338E+03  0.00000000000E+00 0.  1.
          1   -1    0    0  501    0  0.00000000000E+00 -0.00000000000E+00 -0.10218955425E+02  0.10218955425E+02  0.00000000000E+00 0. -1.
         23    2    1    2    0    0  0.00000000000E+00  0.00000000000E+00  0.18437207795E+03  0.20480998880E+03  0.89185583953E+02 0.  0.
        -11    1    3    3    0    0  0.22916178659E+02 -0.33257525753E+02  0.13559453142E+03  0.14148176990E+03  0.00000000000E+00 0.  1.
         11    1    3    3    0    0 -0.22916178659E+02  0.33257525753E+02  0.48777546533E+02  0.63328218902E+02  0.00000000000E+00 0. -1.
<mgrwt>
<rscale>  0 0.89185584E+02</rscale>
<asrwt>0</asrwt>
<pdfrwt beam="2">  1        1 0.15721471E-02 0.89185584E+02</pdfrwt>
<pdfrwt beam="1">  1       -1 0.29937079E-01 0.89185584E+02</pdfrwt>
<totfact> 0.74101999E+04</totfact>
</mgrwt>
</event>
<event>
 5    1  0.1270889E+001  0.9221542E+02  0.7546771E-02  0.1297574E+00
          2   -1    0    0  501    0  0.00000000000E+00  0.00000000000E+00  0.29239090810E+03  0.29239090810E+03  0.00000000000E+00 0. -1.
         -2   -1    0    0    0  501 -0.00000000000E+00 -0.00000000000E+00 -0.72708180081E+01  0.72708180081E+01  0.00000000000E+00 0.  1.
         23    2    1    2    0    0  0.00000000000E+00  0.00000000000E+00  0.28512009010E+03  0.29966172611E+03  0.92215423440E+02 0.  0.
        -13    1    3    3    0    0 -0.27101135260E+02  0.27489326261E+02  0.22449766775E+03  0.22779231202E+03  0.00000000000E+00 0.  1.
         13    1    3    3    0    0  0.27101135260E+02 -0.27489326261E+02  0.60622422344E+02  0.71869414089E+02  0.00000000000E+00 0. -1.
<mgrwt>
<rscale>  0 0.92215423E+02</rscale>
<asrwt>0</asrwt>
<pdfrwt beam="1">  1        2 0.44983208E-01 0.92215423E+02</pdfrwt>
<pdfrwt beam="2">  1       -2 0.11185876E-02 0.92215423E+02</pdfrwt>
<totfact> 0.17264190E+05</totfact>
</mgrwt>
</event>
<event>
 5    1  0.1270889E+001  0.9023679E+02  0.7546771E-02  0.1302279E+00
         -1   -1    0    0    0  501 -0.00000000000E+00  0.00000000000E+00  0.10514616366E+02  0.10514616366E+02  0.00000000000E+00 0.  1.
          1   -1    0    0  501    0  0.00000000000E+00 -0.00000000000E+00 -0.19360379198E+03  0.19360379198E+03  0.00000000000E+00 0. -1.
         23    2    1    2    0    0  0.00000000000E+00  0.00000000000E+00 -0.18308917562E+03  0.20411840835E+03  0.90236790715E+02 0.  0.
        -13    1    3    3    0    0 -0.45049345944E+02 -0.17117052173E+01 -0.95651338939E+02  0.10574285860E+03  0.00000000000E+00 0.  1.
         13    1    3    3    0    0  0.45049345944E+02  0.17117052173E+01 -0.87437836678E+02  0.98375549745E+02  0.00000000000E+00 0. -1.
<mgrwt>
<rscale>  0 0.90236791E+02</rscale>
<asrwt>0</asrwt>
<pdfrwt beam="2">  1        1 0.29785200E-01 0.90236791E+02</pdfrwt>
<pdfrwt beam="1">  1       -1 0.16176332E-02 0.90236791E+02</pdfrwt>
<totfact> 0.12097765E+05</totfact>
</mgrwt>
</event>
<event>
 5    1  0.1270889E+001  0.8930497E+02  0.7546771E-02  0.1304544E+00
         -1   -1    0    0    0  501 -0.00000000000E+00  0.00000000000E+00  0.19102975667E+02  0.19102975667E+02  0.00000000000E+00 0.  1.
          1   -1    0    0  501    0  0.00000000000E+00 -0.00000000000E+00 -0.10437348937E+03  0.10437348937E+03  0.00000000000E+00 0. -1.
         23    2    1    2    0    0  0.00000000000E+00  0.00000000000E+00 -0.85270513705E+02  0.12347646504E+03  0.89304965769E+02 0.  0.
        -11    1    3    3    0    0  0.18896225025E+02 -0.25888937555E+02  0.34989396843E+00  0.32053499554E+02  0.00000000000E+00 0.  1.
         11    1    3    3    0    0 -0.18896225025E+02  0.25888937555E+02 -0.85620407673E+02  0.91422965485E+02  0.00000000000E+00 0. -1.
<mgrwt>
<rscale>  0 0.89304966E+02</rscale>
<asrwt>0</asrwt>
<pdfrwt beam="2">  1        1 0.16057460E-01 0.89304966E+02</pdfrwt>
<pdfrwt beam="1">  1       -1 0.29389193E-02 0.89304966E+02</pdfrwt>
<totfact> 0.11130122E+05</totfact>
</mgrwt>
</event>
<event>
 5    1  0.1270889E+001  0.9315732E+02  0.7546771E-02  0.1295381E+00
          1   -1    0    0  501    0  0.00000000000E+00  0.00000000000E+00  0.80541145275E+02  0.80541145275E+02  0.00000000000E+00 0. -1.
         -1   -1    0    0    0  501 -0.00000000000E+00 -0.00000000000E+00 -0.26937432240E+02  0.26937432240E+02  0.00000000000E+00 0.  1.
         23    2    1    2    0    0  0.00000000000E+00  0.00000000000E+00  0.53603713035E+02  0.10747857751E+03  0.93157321631E+02 0.  0.
        -11    1    3    3    0    0  0.95157751706E+01 -0.25912667575E+02 -0.16483166558E+02  0.32151377851E+02  0.00000000000E+00 0.  1.
         11    1    3    3    0    0 -0.95157751706E+01  0.25912667575E+02  0.70086879593E+02  0.75327199663E+02  0.00000000000E+00 0. -1.
<mgrwt>
<rscale>  0 0.93157322E+02</rscale>
<asrwt>0</asrwt>
<pdfrwt beam="1">  1        1 0.12390945E-01 0.93157322E+02</pdfrwt>
<pdfrwt beam="2">  1       -1 0.41442204E-02 0.93157322E+02</pdfrwt>
<totfact> 0.95062863E+04</totfact>
</mgrwt>
</event>
<event>
 5    1  0.1270889E+001  0.9120463E+02  0.7546771E-02  0.1299960E+00
         -3   -1    0    0    0  501 -0.00000000000E+00  0.00000000000E+00  0.10841694929E+03  0.10841694929E+03  0.00000000000E+00 0.  1.
          3   -1    0    0  501    0  0.00000000000E+00 -0.00000000000E+00 -0.19181234904E+02  0.19181234904E+02  0.00000000000E+00 0. -1.
         23    2    1    2    0    0  0.00000000000E+00  0.00000000000E+00  0.89235714383E+02  0.12759818419E+03  0.91204626457E+02 0.  0.
        -11    1    3    3    0    0  0.12817928923E+02 -0.17083074610E+02  0.10098756418E+03  0.10322121322E+03  0.00000000000E+00 0.  1.
         11    1    3    3    0    0 -0.12817928923E+02  0.17083074610E+02 -0.11751849796E+02  0.24376970969E+02  0.00000000000E+00 0. -1.
<mgrwt>
<rscale>  0 0.91204626E+02</rscale>
<asrwt>0</asrwt>
<pdfrwt beam="2">  1        3 0.29509593E-02 0.91204626E+02</pdfrwt>
<pdfrwt beam="1">  1       -3 0.16679530E-01 0.91204626E+02</pdfrwt>
<totfact> 0.32709102E+04</totfact>
</mgrwt>
</event>
<event>
 5    1  0.1270889E+001  0.1021889E+03  0.7546771E-02  0.1275759E+00
          1   -1    0    0  501    0  0.00000000000E+00  0.00000000000E+00  0.12862321661E+03  0.12862321661E+03  0.00000000000E+00 0. -1.
         -1   -1    0    0    0  501 -0.00000000000E+00 -0.00000000000E+00 -0.20296805606E+02  0.20296805606E+02  0.00000000000E+00 0.  1.
         23    2    1    2    0    0  0.00000000000E+00  0.00000000000E+00  0.10832641101E+03  0.14892002222E+03  0.10218885309E+03 0.  0.
        -13    1    3    3    0    0 -0.31506250618E+02 -0.39379174700E+02  0.66116386854E+02  0.83154914700E+02  0.00000000000E+00 0.  1.
         13    1    3    3    0    0  0.31506250618E+02  0.39379174700E+02  0.42210024152E+02  0.65765107519E+02  0.00000000000E+00 0. -1.
<mgrwt>
<rscale>  0 0.10218885E+03</rscale>
<asrwt>0</asrwt>
<pdfrwt beam="1">  1        1 0.19788187E-01 0.10218885E+03</pdfrwt>
<pdfrwt beam="2">  1       -1 0.31225856E-02 0.10218885E+03</pdfrwt>
<totfact> 0.79905057E+04</totfact>
</mgrwt>
</event>
<event>
 5    1  0.1270889E+001  0.9247788E+02  0.7546771E-02  0.1296960E+00
          4   -1    0    0  501    0  0.00000000000E+00  0.00000000000E+00  0.78966658441E+02  0.78966658441E+02  0.00000000000E+00 0. -1.
         -4   -1    0    0    0  501 -0.00000000000E+00 -0.00000000000E+00 -0.27075218212E+02  0.27075218212E+02  0.00000000000E+00 0.  1.
         23    2    1    2    0    0  0.00000000000E+00  0.00000000000E+00  0.51891440229E+02  0.10604187665E+03  0.92477878625E+02 0.  0.
        -11    1    3    3    0    0  0.44665615168E+02  0.39805740167E+01  0.13014352726E+02  0.46692992244E+02  0.00000000000E+00 0.  1.
         11    1    3    3    0    0 -0.44665615168E+02 -0.39805740167E+01  0.38877087503E+02  0.59348884409E+02  0.00000000000E+00 0. -1.
<mgrwt>
<rscale>  0 0.92477879E+02</rscale>
<asrwt>0</asrwt>
<pdfrwt beam="1">  1        4 0.12148717E-01 0.92477879E+02</pdfrwt>
<pdfrwt beam="2">  1       -4 0.41654182E-02 0.92477879E+02</pdfrwt>
<totfact> 0.25104761E+04</totfact>
</mgrwt>
</event>
<event>
 5    1  0.1270889E+001  0.9144515E+02  0.7546771E-02  0.1299389E+00
          3   -1    0    0  501    0  0.00000000000E+00  0.00000000000E+00  0.78582686365E+02  0.78582686365E+02  0.00000000000E+00 0. -1.
         -3   -1    0    0    0  501 -0.00000000000E+00 -0.00000000000E+00 -0.26603239703E+02  0.26603239703E+02  0.00000000000E+00 0.  1.
         23    2    1    2    0    0  0.00000000000E+00  0.00000000000E+00  0.51979446662E+02  0.10518592607E+03  0.91445153877E+02 0.  0.
        -11    1    3    3    0    0  0.11518687141E+02 -0.35762753749E+02 -0.39811660494E+01  0.37782329100E+02  0.00000000000E+00 0.  1.
         11    1    3    3    0    0 -0.11518687141E+02  0.35762753749E+02  0.55960612711E+02  0.67403596968E+02  0.00000000000E+00 0. -1.
<mgrwt>
<rscale>  0 0.91445154E+02</rscale>
<asrwt>0</asrwt>
<pdfrwt beam="1">  1        3 0.12089644E-01 0.91445154E+02</pdfrwt>
<pdfrwt beam="2">  1       -3 0.40928062E-02 0.91445154E+02</pdfrwt>
<totfact> 0.34017358E+04</totfact>
</mgrwt>
</event>
<event>
 5    1  0.1270889E+001  0.9004668E+02  0.7546771E-02  0.1302739E+00
          1   -1    0    0  501    0  0.00000000000E+00  0.00000000000E+00  0.11159146956E+02  0.11159146956E+02  0.00000000000E+00 0. -1.
         -1   -1    0    0    0  501 -0.00000000000E+00 -0.00000000000E+00 -0.18165378242E+03  0.18165378242E+03  0.00000000000E+00 0.  1.
         23    2    1    2    0    0  0.00000000000E+00  0.00000000000E+00 -0.17049463546E+03  0.19281292938E+03  0.90046682406E+02 0.  0.
        -13    1    3    3    0    0 -0.40951452267E+01  0.28621025046E+02 -0.11345531005E+02  0.31058885410E+02  0.00000000000E+00 0. -1.
         13    1    3    3    0    0  0.40951452267E+01 -0.28621025046E+02 -0.15914910446E+03  0.16175404397E+03  0.00000000000E+00 0.  1.
<mgrwt>
<rscale>  0 0.90046682E+02</rscale>
<asrwt>0</asrwt>
<pdfrwt beam="1">  1        1 0.17167919E-02 0.90046682E+02</pdfrwt>
<pdfrwt beam="2">  1       -1 0.27946735E-01 0.90046682E+02</pdfrwt>
<totfact> 0.73645242E+04</totfact>
</mgrwt>
</event>
<event>
 5    1  0.1270889E+001  0.9126538E+02  0.7546771E-02  0.1299816E+00
          1   -1    0    0  501    0  0.00000000000E+00  0.00000000000E+00  0.66018919520E+02  0.66018919520E+02  0.00000000000E+00 0. -1.
         -1   -1    0    0    0  501 -0.00000000000E+00 -0.00000000000E+00 -0.31541598146E+02  0.31541598146E+02  0.00000000000E+00 0.  1.
         23    2    1    2    0    0  0.00000000000E+00  0.00000000000E+00  0.34477321374E+02  0.97560517666E+02  0.91265376338E+02 0.  0.
        -13    1    3    3    0    0  0.29128123458E+02 -0.64266040634E+01 -0.19677306418E+02  0.35734370064E+02  0.00000000000E+00 0.  1.
         13    1    3    3    0    0 -0.29128123458E+02  0.64266040634E+01  0.54154627792E+02  0.61826147602E+02  0.00000000000E+00 0. -1.
<mgrwt>
<rscale>  0 0.91265376E+02</rscale>
<asrwt>0</asrwt>
<pdfrwt beam="1">  1        1 0.10156757E-01 0.91265376E+02</pdfrwt>
<pdfrwt beam="2">  1       -1 0.48525536E-02 0.91265376E+02</pdfrwt>
<totfact> 0.97520907E+04</totfact>
</mgrwt>
</event>
<event>
 5    1  0.1270889E+001  0.8785724E+02  0.7546771E-02  0.1308125E+00
          1   -1    0    0  501    0  0.00000000000E+00  0.00000000000E+00  0.20722624886E+03  0.20722624886E+03  0.00000000000E+00 0.  1.
         -1   -1    0    0    0  501 -0.00000000000E+00 -0.00000000000E+00 -0.93121575993E+01  0.93121575993E+01  0.00000000000E+00 0. -1.
         23    2    1    2    0    0  0.00000000000E+00  0.00000000000E+00  0.19791409127E+03  0.21653840646E+03  0.87857236199E+02 0.  0.
        -13    1    3    3    0    0  0.31478283522E+02  0.30461702985E+02  0.90810300321E+02  0.10082315372E+03  0.00000000000E+00 0. -1.
         13    1    3    3    0    0 -0.31478283522E+02 -0.30461702985E+02  0.10710379094E+03  0.11571525274E+03  0.00000000000E+00 0.  1.
<mgrwt>
<rscale>  0 0.87857236E+02</rscale>
<asrwt>0</asrwt>
<pdfrwt beam="1">  1        1 0.31880958E-01 0.87857236E+02</pdfrwt>
<pdfrwt beam="2">  1       -1 0.14326398E-02 0.87857236E+02</pdfrwt>
<totfact> 0.13165035E+05</totfact>
</mgrwt>
</event>
<event>
 5    1  0.1270889E+001  0.9107121E+02  0.7546771E-02  0.1300278E+00
         -2   -1    0    0    0  501 -0.00000000000E+00  0.00000000000E+00  0.18759214625E+03  0.18759214625E+03  0.00000000000E+00 0.  1.
          2   -1    0    0  501    0  0.00000000000E+00 -0.00000000000E+00 -0.11053189239E+02  0.11053189239E+02  0.00000000000E+00 0. -1.
         23    2    1    2    0    0  0.00000000000E+00  0.00000000000E+00  0.17653895701E+03  0.19864533549E+03  0.91071213724E+02 0.  0.
        -13    1    3    3    0    0 -0.39405987471E+02  0.10418591722E+02  0.13254923138E+03  0.13867471882E+03  0.00000000000E+00 0.  1.
         13    1    3    3    0    0  0.39405987471E+02 -0.10418591722E+02  0.43989725635E+02  0.59970616667E+02  0.00000000000E+00 0. -1.
<mgrwt>
<rscale>  0 0.91071214E+02</rscale>
<asrwt>0</asrwt>
<pdfrwt beam="2">  1        2 0.17004908E-02 0.91071214E+02</pdfrwt>
<pdfrwt beam="1">  1       -2 0.28860328E-01 0.91071214E+02</pdfrwt>
<totfact> 0.64226592E+04</totfact>
</mgrwt>
</event>
<event>
 5    1  0.1270889E+001  0.8992037E+02  0.7546771E-02  0.1303045E+00
          2   -1    0    0  501    0  0.00000000000E+00  0.00000000000E+00  0.91218406567E+02  0.91218406567E+02  0.00000000000E+00 0. -1.
         -2   -1    0    0    0  501 -0.00000000000E+00 -0.00000000000E+00 -0.22160199412E+02  0.22160199412E+02  0.00000000000E+00 0.  1.
         23    2    1    2    0    0  0.00000000000E+00  0.00000000000E+00  0.69058207155E+02  0.11337860598E+03  0.89920366537E+02 0.  0.
        -13    1    3    3    0    0 -0.22955151049E+02 -0.36720229007E+01  0.83052355033E+02  0.86244515121E+02  0.00000000000E+00 0. -1.
         13    1    3    3    0    0  0.22955151049E+02  0.36720229007E+01 -0.13994147878E+02  0.27134090858E+02  0.00000000000E+00 0.  1.
<mgrwt>
<rscale>  0 0.89920367E+02</rscale>
<asrwt>0</asrwt>
<pdfrwt beam="1">  1        2 0.14033601E-01 0.89920367E+02</pdfrwt>
<pdfrwt beam="2">  1       -2 0.34092615E-02 0.89920367E+02</pdfrwt>
<totfact> 0.12398899E+05</totfact>
</mgrwt>
</event>
<event>
 5    1  0.1270889E+001  0.9152175E+02  0.7546771E-02  0.1299208E+00
         -1   -1    0    0    0  501 -0.00000000000E+00  0.00000000000E+00  0.21327762221E+03  0.21327762221E+03  0.00000000000E+00 0.  1.
          1   -1    0    0  501    0  0.00000000000E+00 -0.00000000000E+00 -0.98184585586E+01  0.98184585586E+01  0.00000000000E+00 0. -1.
         23    2    1    2    0    0  0.00000000000E+00  0.00000000000E+00  0.20345916366E+03  0.22309608077E+03  0.91521745944E+02 0.  0.
        -11    1    3    3    0    0  0.42169622833E+02  0.42935469375E+00  0.58425041728E+02  0.72055165923E+02  0.00000000000E+00 0.  1.
         11    1    3    3    0    0 -0.42169622833E+02 -0.42935469375E+00  0.14503412193E+03  0.15104091485E+03  0.00000000000E+00 0. -1.
<mgrwt>
<rscale>  0 0.91521746E+02</rscale>
<asrwt>0</asrwt>
<pdfrwt beam="2">  1        1 0.15105322E-02 0.91521746E+02</pdfrwt>
<pdfrwt beam="1">  1       -1 0.32811938E-01 0.91521746E+02</pdfrwt>
<totfact> 0.67461671E+04</totfact>
</mgrwt>
</event>
<event>
 5    1  0.1270889E+001  0.9581475E+02  0.7546771E-02  0.1289352E+00
         -1   -1    0    0    0  501 -0.00000000000E+00  0.00000000000E+00  0.22006776629E+03  0.22006776629E+03  0.00000000000E+00 0.  1.
          1   -1    0    0  501    0  0.00000000000E+00 -0.00000000000E+00 -0.10429135584E+02  0.10429135584E+02  0.00000000000E+00 0. -1.
         23    2    1    2    0    0  0.00000000000E+00  0.00000000000E+00  0.20963863070E+03  0.23049690187E+03  0.95814749851E+02 0.  0.
        -13    1    3    3    0    0  0.79568761653E+01 -0.43933978867E+02  0.14659809315E+03  0.15324655719E+03  0.00000000000E+00 0.  1.
         13    1    3    3    0    0 -0.79568761653E+01  0.43933978867E+02  0.63040537557E+02  0.77250344678E+02  0.00000000000E+00 0. -1.
<mgrwt>
<rscale>  0 0.95814750E+02</rscale>
<asrwt>0</asrwt>
<pdfrwt beam="2">  1        1 0.16044826E-02 0.95814750E+02</pdfrwt>
<pdfrwt beam="1">  1       -1 0.33856576E-01 0.95814750E+02</pdfrwt>
<totfact> 0.59276606E+04</totfact>
</mgrwt>
</event>
<event>
 5    1  0.1270889E+001  0.9068743E+02  0.7546771E-02  0.1301195E+00
         -3   -1    0    0    0  501 -0.00000000000E+00  0.00000000000E+00  0.48994385249E+02  0.48994385249E+02  0.00000000000E+00 0.  1.
          3   -1    0    0  501    0  0.00000000000E+00 -0.00000000000E+00 -0.41965062367E+02  0.41965062367E+02  0.00000000000E+00 0. -1.
         23    2    1    2    0    0  0.00000000000E+00  0.00000000000E+00  0.70293228820E+01  0.90959447615E+02  0.90687428734E+02 0.  0.
        -13    1    3    3    0    0  0.88493795774E+01  0.58933740672E+01 -0.40697132593E+02  0.42063047656E+02  0.00000000000E+00 0. -1.
         13    1    3    3    0    0 -0.88493795774E+01 -0.58933740672E+01  0.47726455475E+02  0.48896399960E+02  0.00000000000E+00 0.  1.
<mgrwt>
<rscale>  0 0.90687429E+02</rscale>
<asrwt>0</asrwt>
<pdfrwt beam="2">  1        3 0.64561634E-02 0.90687429E+02</pdfrwt>
<pdfrwt beam="1">  1       -3 0.75375977E-02 0.90687429E+02</pdfrwt>
<totfact> 0.35877452E+04</totfact>
</mgrwt>
</event>
<event>
 5    1  0.1270889E+001  0.8711630E+02  0.7546771E-02  0.1309989E+00
         -4   -1    0    0    0  501 -0.00000000000E+00  0.00000000000E+00  0.64864399610E+02  0.64864399610E+02  0.00000000000E+00 0.  1.
          4   -1    0    0  501    0  0.00000000000E+00 -0.00000000000E+00 -0.29250444848E+02  0.29250444848E+02  0.00000000000E+00 0. -1.
         23    2    1    2    0    0  0.00000000000E+00  0.00000000000E+00  0.35613954762E+02  0.94114844459E+02  0.87116302571E+02 0.  0.
        -11    1    3    3    0    0  0.24072984549E+02 -0.35863659299E+02  0.11733809435E+02  0.44759277556E+02  0.00000000000E+00 0. -1.
         11    1    3    3    0    0 -0.24072984549E+02  0.35863659299E+02  0.23880145327E+02  0.49355566903E+02  0.00000000000E+00 0.  1.
<mgrwt>
<rscale>  0 0.87116303E+02</rscale>
<asrwt>0</asrwt>
<pdfrwt beam="2">  1        4 0.45000684E-02 0.87116303E+02</pdfrwt>
<pdfrwt beam="1">  1       -4 0.99791384E-02 0.87116303E+02</pdfrwt>
<totfact> 0.30338896E+04</totfact>
</mgrwt>
</event>
<event>
 5    1  0.1270889E+001  0.9167640E+02  0.7546771E-02  0.1298842E+00
          1   -1    0    0  501    0  0.00000000000E+00  0.00000000000E+00  0.20648229199E+03  0.20648229199E+03  0.00000000000E+00 0. -1.
         -1   -1    0    0    0  501 -0.00000000000E+00 -0.00000000000E+00 -0.10175888151E+02  0.10175888151E+02  0.00000000000E+00 0.  1.
         23    2    1    2    0    0  0.00000000000E+00  0.00000000000E+00  0.19630640384E+03  0.21665818014E+03  0.91676402819E+02 0.  0.
        -11    1    3    3    0    0 -0.39096879640E+02  0.22675332015E+02  0.11621408288E+03  0.12469342300E+03  0.00000000000E+00 0. -1.
         11    1    3    3    0    0  0.39096879640E+02 -0.22675332015E+02  0.80092320958E+02  0.91964757141E+02  0.00000000000E+00 0.  1.
<mgrwt>
<rscale>  0 0.91676403E+02</rscale>
<asrwt>0</asrwt>
<pdfrwt beam="1">  1        1 0.31766503E-01 0.91676403E+02</pdfrwt>
<pdfrwt beam="2">  1       -1 0.15655214E-02 0.91676403E+02</pdfrwt>
<totfact> 0.11740780E+05</totfact>
</mgrwt>
</event>
<event>
 4    1  0.1270889E+001  0.1309478E+03  0.7546771E-02  0.1226056E+00
          1   -1    0    0  501    0  0.00000000000E+00  0.00000000000E+00  0.10099433939E+03  0.10099433939E+03  0.00000000000E+00 0. -1.
         -1   -1    0    0    0  501 -0.00000000000E+00 -0.00000000000E+00 -0.42446250875E+02  0.42446250875E+02  0.00000000000E+00 0.  1.
        -11    1    1    2    0    0 -0.36901730485E+02  0.53396357689E+02  0.19855978151E+02  0.67876126846E+02  0.00000000000E+00 0.  1.
         11    1    1    2    0    0  0.36901730485E+02 -0.53396357689E+02  0.38692110362E+02  0.75564463417E+02  0.00000000000E+00 0. -1.
<mgrwt>
<rscale>  0 0.13094779E+03</rscale>
<asrwt>0</asrwt>
<pdfrwt beam="1">  1        1 0.15537591E-01 0.13094779E+03</pdfrwt>
<pdfrwt beam="2">  1       -1 0.65301925E-02 0.13094779E+03</pdfrwt>
<totfact> 0.38035409E+04</totfact>
</mgrwt>
</event>
<event>
 5    1  0.1270889E+001  0.7863695E+02  0.7546771E-02  0.1332965E+00
          2   -1    0    0  501    0  0.00000000000E+00  0.00000000000E+00  0.85127233678E+02  0.85127233678E+02  0.00000000000E+00 0. -1.
         -2   -1    0    0    0  501 -0.00000000000E+00 -0.00000000000E+00 -0.18160375676E+02  0.18160375676E+02  0.00000000000E+00 0.  1.
         23    2    1    2    0    0  0.00000000000E+00  0.00000000000E+00  0.66966858002E+02  0.10328760935E+03  0.78636951717E+02 0.  0.
        -13    1    3    3    0    0 -0.97887731274E+01  0.13276755842E+02  0.80362688007E+02  0.82038124971E+02  0.00000000000E+00 0. -1.
         13    1    3    3    0    0  0.97887731274E+01 -0.13276755842E+02 -0.13395830005E+02  0.21249484383E+02  0.00000000000E+00 0.  1.
<mgrwt>
<rscale>  0 0.78636952E+02</rscale>
<asrwt>0</asrwt>
<pdfrwt beam="1">  1        2 0.13096497E-01 0.78636952E+02</pdfrwt>
<pdfrwt beam="2">  1       -2 0.27939040E-02 0.78636952E+02</pdfrwt>
<totfact> 0.17536525E+05</totfact>
</mgrwt>
</event>
<event>
 5    1  0.1270889E+001  0.9082779E+02  0.7546771E-02  0.1300859E+00
         -2   -1    0    0    0  501 -0.00000000000E+00  0.00000000000E+00  0.77896706269E+02  0.77896706269E+02  0.00000000000E+00 0.  1.
          2   -1    0    0  501    0  0.00000000000E+00 -0.00000000000E+00 -0.26476365076E+02  0.26476365076E+02  0.00000000000E+00 0. -1.
         23    2    1    2    0    0  0.00000000000E+00  0.00000000000E+00  0.51420341192E+02  0.10437307134E+03  0.90827785031E+02 0.  0.
        -13    1    3    3    0    0 -0.27452356058E+02 -0.11984266951E+02 -0.13514910624E+02  0.32861943288E+02  0.00000000000E+00 0. -1.
         13    1    3    3    0    0  0.27452356058E+02  0.11984266951E+02  0.64935251817E+02  0.71511128057E+02  0.00000000000E+00 0.  1.
<mgrwt>
<rscale>  0 0.90827785E+02</rscale>
<asrwt>0</asrwt>
<pdfrwt beam="2">  1        2 0.40732870E-02 0.90827785E+02</pdfrwt>
<pdfrwt beam="1">  1       -2 0.11984109E-01 0.90827785E+02</pdfrwt>
<totfact> 0.86514830E+04</totfact>
</mgrwt>
</event>
<event>
 4    1  0.1270889E+001  0.4626676E+02  0.7546771E-02  0.1466585E+00
          2   -1    0    0  501    0  0.00000000000E+00  0.00000000000E+00  0.14519935894E+03  0.14519935894E+03  0.00000000000E+00 0. -1.
         -2   -1    0    0    0  501 -0.00000000000E+00 -0.00000000000E+00 -0.36856454915E+01  0.36856454915E+01  0.00000000000E+00 0.  1.
        -13    1    1    2    0    0  0.82952811798E+00 -0.22463265017E+02  0.53170437571E+02  0.57726786015E+02  0.00000000000E+00 0. -1.
         13    1    1    2    0    0 -0.82952811798E+00  0.22463265017E+02  0.88343275881E+02  0.91158218420E+02  0.00000000000E+00 0.  1.
<mgrwt>
<rscale>  0 0.46266764E+02</rscale>
<asrwt>0</asrwt>
<pdfrwt beam="1">  1        2 0.22338359E-01 0.46266764E+02</pdfrwt>
<pdfrwt beam="2">  1       -2 0.56702249E-03 0.46266764E+02</pdfrwt>
<totfact> 0.80754994E+05</totfact>
</mgrwt>
</event>
<event>
 5    1  0.1270889E+001  0.7856712E+02  0.7546771E-02  0.1333168E+00
          1   -1    0    0  501    0  0.00000000000E+00  0.00000000000E+00  0.63340595378E+01  0.63340595378E+01  0.00000000000E+00 0. -1.
         -1   -1    0    0    0  501 -0.00000000000E+00 -0.00000000000E+00 -0.24363489321E+03  0.24363489321E+03  0.00000000000E+00 0.  1.
         23    2    1    2    0    0  0.00000000000E+00  0.00000000000E+00 -0.23730083367E+03  0.24996895275E+03  0.78567115744E+02 0.  0.
        -11    1    3    3    0    0  0.12166738822E+02  0.32843358523E+02 -0.62049965320E+02  0.71252466125E+02  0.00000000000E+00 0.  1.
         11    1    3    3    0    0 -0.12166738822E+02 -0.32843358523E+02 -0.17525086835E+03  0.17871648662E+03  0.00000000000E+00 0. -1.
<mgrwt>
<rscale>  0 0.78567116E+02</rscale>
<asrwt>0</asrwt>
<pdfrwt beam="1">  1        1 0.97447083E-03 0.78567116E+02</pdfrwt>
<pdfrwt beam="2">  1       -1 0.37482286E-01 0.78567116E+02</pdfrwt>
<totfact> 0.96152367E+04</totfact>
</mgrwt>
</event>
<event>
 5    1  0.1270889E+001  0.8649201E+02  0.7546771E-02  0.1311576E+00
         -1   -1    0    0    0  501 -0.00000000000E+00  0.00000000000E+00  0.28382189935E+02  0.28382189935E+02  0.00000000000E+00 0.  1.
          1   -1    0    0  501    0  0.00000000000E+00 -0.00000000000E+00 -0.65894025576E+02  0.65894025576E+02  0.00000000000E+00 0. -1.
         23    2    1    2    0    0  0.00000000000E+00  0.00000000000E+00 -0.37511835640E+02  0.94276215511E+02  0.86492005399E+02 0.  0.
        -13    1    3    3    0    0  0.13661540838E+02 -0.39793077701E+02 -0.78510210568E+01  0.42799126891E+02  0.00000000000E+00 0.  1.
         13    1    3    3    0    0 -0.13661540838E+02  0.39793077701E+02 -0.29660814584E+02  0.51477088620E+02  0.00000000000E+00 0. -1.
<mgrwt>
<rscale>  0 0.86492005E+02</rscale>
<asrwt>0</asrwt>
<pdfrwt beam="2">  1        1 0.10137542E-01 0.86492005E+02</pdfrwt>
<pdfrwt beam="1">  1       -1 0.43664908E-02 0.86492005E+02</pdfrwt>
<totfact> 0.11302205E+05</totfact>
</mgrwt>
</event>
<event>
 5    1  0.1270889E+001  0.9048606E+02  0.7546771E-02  0.1301679E+00
          2   -1    0    0  501    0  0.00000000000E+00  0.00000000000E+00  0.26516027182E+02  0.26516027182E+02  0.00000000000E+00 0. -1.
         -2   -1    0    0    0  501 -0.00000000000E+00 -0.00000000000E+00 -0.77196027165E+02  0.77196027165E+02  0.00000000000E+00 0.  1.
         23    2    1    2    0    0  0.00000000000E+00  0.00000000000E+00 -0.50679999984E+02  0.10371205435E+03  0.90486064222E+02 0.  0.
        -11    1    3    3    0    0 -0.42576428332E+02 -0.15299356150E+02 -0.25719113401E+02  0.52041284979E+02  0.00000000000E+00 0. -1.
         11    1    3    3    0    0  0.42576428332E+02  0.15299356150E+02 -0.24960886583E+02  0.51670769368E+02  0.00000000000E+00 0.  1.
<mgrwt>
<rscale>  0 0.90486064E+02</rscale>
<asrwt>0</asrwt>
<pdfrwt beam="1">  1        2 0.40793888E-02 0.90486064E+02</pdfrwt>
<pdfrwt beam="2">  1       -2 0.11876312E-01 0.90486064E+02</pdfrwt>
<totfact> 0.87533109E+04</totfact>
</mgrwt>
</event>
<event>
 5    1  0.1270889E+001  0.8942600E+02  0.7546771E-02  0.1304248E+00
         -3   -1    0    0    0  501 -0.00000000000E+00  0.00000000000E+00  0.74429178728E+02  0.74429178728E+02  0.00000000000E+00 0.  1.
          3   -1    0    0  501    0  0.00000000000E+00 -0.00000000000E+00 -0.26861136598E+02  0.26861136598E+02  0.00000000000E+00 0. -1.
         23    2    1    2    0    0  0.00000000000E+00  0.00000000000E+00  0.47568042130E+02  0.10129031533E+03  0.89425999278E+02 0.  0.
        -13    1    3    3    0    0 -0.37462106535E+02 -0.92988826456E+01 -0.17796003283E+01  0.38639948523E+02  0.00000000000E+00 0. -1.
         13    1    3    3    0    0  0.37462106535E+02  0.92988826456E+01  0.49347642458E+02  0.62650366804E+02  0.00000000000E+00 0.  1.
<mgrwt>
<rscale>  0 0.89425999E+02</rscale>
<asrwt>0</asrwt>
<pdfrwt beam="2">  1        3 0.41324826E-02 0.89425999E+02</pdfrwt>
<pdfrwt beam="1">  1       -3 0.11450643E-01 0.89425999E+02</pdfrwt>
<totfact> 0.36445721E+04</totfact>
</mgrwt>
</event>
<event>
 5    1  0.1270889E+001  0.9135990E+02  0.7546771E-02  0.1299592E+00
         -1   -1    0    0    0  501 -0.00000000000E+00  0.00000000000E+00  0.55106594764E+01  0.55106594764E+01  0.00000000000E+00 0.  1.
          1   -1    0    0  501    0  0.00000000000E+00 -0.00000000000E+00 -0.37865848070E+03  0.37865848070E+03  0.00000000000E+00 0. -1.
         23    2    1    2    0    0  0.00000000000E+00  0.00000000000E+00 -0.37314782122E+03  0.38416914017E+03  0.91359902473E+02 0.  0.
        -11    1    3    3    0    0 -0.11163465693E+02 -0.42673241182E+02 -0.23651083361E+03  0.24058886694E+03  0.00000000000E+00 0. -1.
         11    1    3    3    0    0  0.11163465693E+02  0.42673241182E+02 -0.13663698761E+03  0.14358027324E+03  0.00000000000E+00 0.  1.
<mgrwt>
<rscale>  0 0.91359902E+02</rscale>
<asrwt>0</asrwt>
<pdfrwt beam="2">  1        1 0.58255140E-01 0.91359902E+02</pdfrwt>
<pdfrwt beam="1">  1       -1 0.84779392E-03 0.91359902E+02</pdfrwt>
<totfact> 0.13294638E+05</totfact>
</mgrwt>
</event>
<event>
 5    1  0.1270889E+001  0.9159675E+02  0.7546771E-02  0.1299030E+00
          3   -1    0    0  501    0  0.00000000000E+00  0.00000000000E+00  0.93452357726E+02  0.93452357726E+02  0.00000000000E+00 0. -1.
         -3   -1    0    0    0  501 -0.00000000000E+00 -0.00000000000E+00 -0.22444495237E+02  0.22444495237E+02  0.00000000000E+00 0.  1.
         23    2    1    2    0    0  0.00000000000E+00  0.00000000000E+00  0.71007862489E+02  0.11589685296E+03  0.91596746621E+02 0.  0.
        -13    1    3    3    0    0  0.12766905225E+02 -0.29208114004E+02  0.77112368538E+02  0.83441147968E+02  0.00000000000E+00 0. -1.
         13    1    3    3    0    0 -0.12766905225E+02  0.29208114004E+02 -0.61045060489E+01  0.32455704996E+02  0.00000000000E+00 0.  1.
<mgrwt>
<rscale>  0 0.91596747E+02</rscale>
<asrwt>0</asrwt>
<pdfrwt beam="1">  1        3 0.14377286E-01 0.91596747E+02</pdfrwt>
<pdfrwt beam="2">  1       -3 0.34529993E-02 0.91596747E+02</pdfrwt>
<totfact> 0.33112540E+04</totfact>
</mgrwt>
</event>
<event>
 5    1  0.1270889E+001  0.9037125E+02  0.7546771E-02  0.1301955E+00
         -1   -1    0    0    0  501 -0.00000000000E+00  0.00000000000E+00  0.85635432515E+02  0.85635432515E+02  0.00000000000E+00 0.  1.
          1   -1    0    0  501    0  0.00000000000E+00 -0.00000000000E+00 -0.23842243294E+02  0.23842243294E+02  0.00000000000E+00 0. -1.
         23    2    1    2    0    0  0.00000000000E+00  0.00000000000E+00  0.61793189221E+02  0.10947767581E+03  0.90371252433E+02 0.  0.
        -13    1    3    3    0    0  0.21476406590E+02  0.20733617536E+02  0.71989001705E+02  0.77932889736E+02  0.00000000000E+00 0.  1.
         13    1    3    3    0    0 -0.21476406590E+02 -0.20733617536E+02 -0.10195812484E+02  0.31544786073E+02  0.00000000000E+00 0. -1.
<mgrwt>
<rscale>  0 0.90371252E+02</rscale>
<asrwt>0</asrwt>
<pdfrwt beam="2">  1        1 0.36680375E-02 0.90371252E+02</pdfrwt>
<pdfrwt beam="1">  1       -1 0.13174682E-01 0.90371252E+02</pdfrwt>
<totfact> 0.85593817E+04</totfact>
</mgrwt>
</event>
<event>
 5    1  0.1270889E+001  0.8856483E+02  0.7546771E-02  0.1306365E+00
         -4   -1    0    0    0  501 -0.00000000000E+00  0.00000000000E+00  0.75876808035E+02  0.75876808035E+02  0.00000000000E+00 0.  1.
          4   -1    0    0  501    0  0.00000000000E+00 -0.00000000000E+00 -0.25843628974E+02  0.25843628974E+02  0.00000000000E+00 0. -1.
         23    2    1    2    0    0  0.00000000000E+00  0.00000000000E+00  0.50033179060E+02  0.10172043701E+03  0.88564825402E+02 0.  0.
        -11    1    3    3    0    0  0.53985666188E+01 -0.19877910576E+02 -0.20006501328E+02  0.28714733949E+02  0.00000000000E+00 0. -1.
         11    1    3    3    0    0 -0.53985666188E+01  0.19877910576E+02  0.70039680388E+02  0.73005703060E+02  0.00000000000E+00 0.  1.
<mgrwt>
<rscale>  0 0.88564825E+02</rscale>
<asrwt>0</asrwt>
<pdfrwt beam="2">  1        4 0.39759429E-02 0.88564825E+02</pdfrwt>
<pdfrwt beam="1">  1       -4 0.11673355E-01 0.88564825E+02</pdfrwt>
<totfact> 0.28502743E+04</totfact>
</mgrwt>
</event>
<event>
 5    1  0.1270889E+001  0.9117017E+02  0.7546771E-02  0.1300042E+00
         -4   -1    0    0    0  501 -0.00000000000E+00  0.00000000000E+00  0.36046888095E+02  0.36046888095E+02  0.00000000000E+00 0.  1.
          4   -1    0    0  501    0  0.00000000000E+00 -0.00000000000E+00 -0.57647143448E+02  0.57647143448E+02  0.00000000000E+00 0. -1.
         23    2    1    2    0    0  0.00000000000E+00  0.00000000000E+00 -0.21600255353E+02  0.93694031542E+02  0.91170173386E+02 0.  0.
        -13    1    3    3    0    0  0.22026854094E+01  0.36331225084E+02  0.17403925888E+02  0.40344843232E+02  0.00000000000E+00 0.  1.
         13    1    3    3    0    0 -0.22026854094E+01 -0.36331225084E+02 -0.39004181240E+02  0.53349188310E+02  0.00000000000E+00 0. -1.
<mgrwt>
<rscale>  0 0.91170173E+02</rscale>
<asrwt>0</asrwt>
<pdfrwt beam="2">  1        4 0.88687913E-02 0.91170173E+02</pdfrwt>
<pdfrwt beam="1">  1       -4 0.55456751E-02 0.91170173E+02</pdfrwt>
<totfact> 0.26860521E+04</totfact>
</mgrwt>
</event>
<event>
 5    1  0.1270889E+001  0.9118799E+02  0.7546771E-02  0.1300000E+00
         -3   -1    0    0    0  501 -0.00000000000E+00  0.00000000000E+00  0.10235300854E+03  0.10235300854E+03  0.00000000000E+00 0.  1.
          3   -1    0    0  501    0  0.00000000000E+00 -0.00000000000E+00 -0.20310224016E+02  0.20310224016E+02  0.00000000000E+00 0. -1.
         23    2    1    2    0    0  0.00000000000E+00  0.00000000000E+00  0.82042784520E+02  0.12266323255E+03  0.91187993335E+02 0.  0.
        -13    1    3    3    0    0 -0.37992732948E+02  0.18065129273E+02  0.64667907341E+02  0.77147487920E+02  0.00000000000E+00 0.  1.
         13    1    3    3    0    0  0.37992732948E+02 -0.18065129273E+02  0.17374877179E+02  0.45515744633E+02  0.00000000000E+00 0. -1.
<mgrwt>
<rscale>  0 0.91187993E+02</rscale>
<asrwt>0</asrwt>
<pdfrwt beam="2">  1        3 0.31246499E-02 0.91187993E+02</pdfrwt>
<pdfrwt beam="1">  1       -3 0.15746616E-01 0.91187993E+02</pdfrwt>
<totfact> 0.33055834E+04</totfact>
</mgrwt>
</event>
<event>
 5    1  0.1270889E+001  0.8917807E+02  0.7546771E-02  0.1304854E+00
         -3   -1    0    0    0  501 -0.00000000000E+00  0.00000000000E+00  0.10497837759E+03  0.10497837759E+03  0.00000000000E+00 0.  1.
          3   -1    0    0  501    0  0.00000000000E+00 -0.00000000000E+00 -0.18938967530E+02  0.18938967530E+02  0.00000000000E+00 0. -1.
         23    2    1    2    0    0  0.00000000000E+00  0.00000000000E+00  0.86039410059E+02  0.12391734512E+03  0.89178070949E+02 0.  0.
        -11    1    3    3    0    0 -0.43524881801E+02 -0.94465836465E+01  0.40062605819E+02  0.59905472733E+02  0.00000000000E+00 0. -1.
         11    1    3    3    0    0  0.43524881801E+02  0.94465836465E+01  0.45976804240E+02  0.64011872387E+02  0.00000000000E+00 0.  1.
<mgrwt>
<rscale>  0 0.89178071E+02</rscale>
<asrwt>0</asrwt>
<pdfrwt beam="2">  1        3 0.29136874E-02 0.89178071E+02</pdfrwt>
<pdfrwt beam="1">  1       -3 0.16150519E-01 0.89178071E+02</pdfrwt>
<totfact> 0.35022206E+04</totfact>
</mgrwt>
</event>
<event>
 5    1  0.1270889E+001  0.9173169E+02  0.7546771E-02  0.1298712E+00
         -1   -1    0    0    0  501 -0.00000000000E+00  0.00000000000E+00  0.12133435488E+03  0.12133435488E+03  0.00000000000E+00 0.  1.
          1   -1    0    0  501    0  0.00000000000E+00 -0.00000000000E+00 -0.17337839809E+02  0.17337839809E+02  0.00000000000E+00 0. -1.
         23    2    1    2    0    0  0.00000000000E+00  0.00000000000E+00  0.10399651507E+03  0.13867219469E+03  0.91731687181E+02 0.  0.
        -11    1    3    3    0    0 -0.29401174547E+02 -0.72034200159E+01 -0.92505357222E-01  0.30270891660E+02  0.00000000000E+00 0. -1.
         11    1    3    3    0    0  0.29401174547E+02  0.72034200159E+01  0.10408902043E+03  0.10840130303E+03  0.00000000000E+00 0.  1.
<mgrwt>
<rscale>  0 0.91731687E+02</rscale>
<asrwt>0</asrwt>
<pdfrwt beam="2">  1        1 0.26673601E-02 0.91731687E+02</pdfrwt>
<pdfrwt beam="1">  1       -1 0.18666823E-01 0.91731687E+02</pdfrwt>
<totfact> 0.77131847E+04</totfact>
</mgrwt>
</event>
<event>
 5    1  0.1270889E+001  0.9024951E+02  0.7546771E-02  0.1302249E+00
         -1   -1    0    0    0  501 -0.00000000000E+00  0.00000000000E+00  0.47939015970E+02  0.47939015970E+02  0.00000000000E+00 0.  1.
          1   -1    0    0  501    0  0.00000000000E+00 -0.00000000000E+00 -0.42475701232E+02  0.42475701232E+02  0.00000000000E+00 0. -1.
         23    2    1    2    0    0  0.00000000000E+00  0.00000000000E+00  0.54633147379E+01  0.90414717202E+02  0.90249505698E+02 0.  0.
        -13    1    3    3    0    0  0.44118747046E+02 -0.94063091871E+01  0.38742829634E+01  0.45276401821E+02  0.00000000000E+00 0.  1.
         13    1    3    3    0    0 -0.44118747046E+02  0.94063091871E+01  0.15890317745E+01  0.45138315381E+02  0.00000000000E+00 0. -1.
<mgrwt>
<rscale>  0 0.90249506E+02</rscale>
<asrwt>0</asrwt>
<pdfrwt beam="2">  1        1 0.65347232E-02 0.90249506E+02</pdfrwt>
<pdfrwt beam="1">  1       -1 0.73752333E-02 0.90249506E+02</pdfrwt>
<totfact> 0.94160424E+04</totfact>
</mgrwt>
</event>
<event>
 5    1  0.1270889E+001  0.9807117E+02  0.7546771E-02  0.1284405E+00
          3   -1    0    0  501    0  0.00000000000E+00  0.00000000000E+00  0.45129954932E+02  0.45129954932E+02  0.00000000000E+00 0. -1.
         -3   -1    0    0    0  501 -0.00000000000E+00 -0.00000000000E+00 -0.53279216577E+02  0.53279216577E+02  0.00000000000E+00 0.  1.
         23    2    1    2    0    0  0.00000000000E+00  0.00000000000E+00 -0.81492616452E+01  0.98409171510E+02  0.98071170952E+02 0.  0.
        -13    1    3    3    0    0 -0.47381398663E+02 -0.12126272293E+02 -0.76145681470E+01  0.49497727898E+02  0.00000000000E+00 0.  1.
         13    1    3    3    0    0  0.47381398663E+02  0.12126272293E+02 -0.53469349820E+00  0.48911443611E+02  0.00000000000E+00 0. -1.
<mgrwt>
<rscale>  0 0.98071171E+02</rscale>
<asrwt>0</asrwt>
<pdfrwt beam="1">  1        3 0.69430700E-02 0.98071171E+02</pdfrwt>
<pdfrwt beam="2">  1       -3 0.81968025E-02 0.98071171E+02</pdfrwt>
<totfact> 0.28496715E+04</totfact>
</mgrwt>
</event>
<event>
 5    1  0.1270889E+001  0.8447205E+02  0.7546771E-02  0.1316819E+00
         -1   -1    0    0    0  501 -0.00000000000E+00  0.00000000000E+00  0.41888223675E+02  0.41888223675E+02  0.00000000000E+00 0.  1.
          1   -1    0    0  501    0  0.00000000000E+00 -0.00000000000E+00 -0.42586713977E+02  0.42586713977E+02  0.00000000000E+00 0. -1.
         23    2    1    2    0    0  0.00000000000E+00  0.00000000000E+00 -0.69849030179E+00  0.84474937652E+02  0.84472049831E+02 0.  0.
        -13    1    3    3    0    0  0.22248116753E+02 -0.13834592298E+02  0.32780532982E+02  0.41963531616E+02  0.00000000000E+00 0.  1.
         13    1    3    3    0    0 -0.22248116753E+02  0.13834592298E+02 -0.33479023284E+02  0.42511406036E+02  0.00000000000E+00 0. -1.
<mgrwt>
<rscale>  0 0.84472050E+02</rscale>
<asrwt>0</asrwt>
<pdfrwt beam="2">  1        1 0.65518021E-02 0.84472050E+02</pdfrwt>
<pdfrwt beam="1">  1       -1 0.64443421E-02 0.84472050E+02</pdfrwt>
<totfact> 0.11331972E+05</totfact>
</mgrwt>
</event>
<event>
 5    1  0.1270889E+001  0.9326297E+02  0.7546771E-02  0.1295137E+00
         -2   -1    0    0    0  501 -0.00000000000E+00  0.00000000000E+00  0.97214547966E+01  0.97214547966E+01  0.00000000000E+00 0.  1.
          2   -1    0    0  501    0  0.00000000000E+00 -0.00000000000E+00 -0.22368003352E+03  0.22368003352E+03  0.00000000000E+00 0. -1.
         23    2    1    2    0    0  0.00000000000E+00  0.00000000000E+00 -0.21395857872E+03  0.23340148832E+03  0.93262968745E+02 0.  0.
        -13    1    3    3    0    0 -0.21137345058E+02 -0.24602308168E+02 -0.23134732898E+02  0.39840642434E+02  0.00000000000E+00 0.  1.
         13    1    3    3    0    0  0.21137345058E+02  0.24602308168E+02 -0.19082384583E+03  0.19356084588E+03  0.00000000000E+00 0. -1.
<mgrwt>
<rscale>  0 0.93262969E+02</rscale>
<asrwt>0</asrwt>
<pdfrwt beam="2">  1        2 0.34412313E-01 0.93262969E+02</pdfrwt>
<pdfrwt beam="1">  1       -2 0.14956084E-02 0.93262969E+02</pdfrwt>
<totfact> 0.15160283E+05</totfact>
</mgrwt>
</event>
<event>
 5    1  0.1270889E+001  0.9246478E+02  0.7546771E-02  0.1296990E+00
         -2   -1    0    0    0  501 -0.00000000000E+00  0.00000000000E+00  0.23122931754E+02  0.23122931754E+02  0.00000000000E+00 0.  1.
          2   -1    0    0  501    0  0.00000000000E+00 -0.00000000000E+00 -0.92437830901E+02  0.92437830901E+02  0.00000000000E+00 0. -1.
         23    2    1    2    0    0  0.00000000000E+00  0.00000000000E+00 -0.69314899147E+02  0.11556076265E+03  0.92464775031E+02 0.  0.
        -11    1    3    3    0    0  0.16034231177E+02  0.22666123097E+02  0.11543642349E+02  0.30068345221E+02  0.00000000000E+00 0.  1.
         11    1    3    3    0    0 -0.16034231177E+02 -0.22666123097E+02 -0.80858541496E+02  0.85492417433E+02  0.00000000000E+00 0. -1.
<mgrwt>
<rscale>  0 0.92464775E+02</rscale>
<asrwt>0</asrwt>
<pdfrwt beam="2">  1        2 0.14221205E-01 0.92464775E+02</pdfrwt>
<pdfrwt beam="1">  1       -2 0.35573742E-02 0.92464775E+02</pdfrwt>
<totfact> 0.11524373E+05</totfact>
</mgrwt>
</event>
<event>
 5    1  0.1270889E+001  0.8948848E+02  0.7546771E-02  0.1304095E+00
          2   -1    0    0  501    0  0.00000000000E+00  0.00000000000E+00  0.18291073915E+02  0.18291073915E+02  0.00000000000E+00 0. -1.
         -2   -1    0    0    0  501 -0.00000000000E+00 -0.00000000000E+00 -0.10945487589E+03  0.10945487589E+03  0.00000000000E+00 0.  1.
         23    2    1    2    0    0  0.00000000000E+00  0.00000000000E+00 -0.91163801980E+02  0.12774594981E+03  0.89488484742E+02 0.  0.
        -11    1    3    3    0    0  0.24150848789E+02  0.34556796387E+02 -0.66976099893E+02  0.79140594075E+02  0.00000000000E+00 0.  1.
         11    1    3    3    0    0 -0.24150848789E+02 -0.34556796387E+02 -0.24187702087E+02  0.48605355734E+02  0.00000000000E+00 0. -1.
<mgrwt>
<rscale>  0 0.89488485E+02</rscale>
<asrwt>0</asrwt>
<pdfrwt beam="1">  1        2 0.28140114E-02 0.89488485E+02</pdfrwt>
<pdfrwt beam="2">  1       -2 0.16839211E-01 0.89488485E+02</pdfrwt>
<totfact> 0.81354584E+04</totfact>
</mgrwt>
</event>
<event>
 5    1  0.1270889E+001  0.9082037E+02  0.7546771E-02  0.1300877E+00
          3   -1    0    0  501    0  0.00000000000E+00  0.00000000000E+00  0.23398661772E+03  0.23398661772E+03  0.00000000000E+00 0. -1.
         -3   -1    0    0    0  501 -0.00000000000E+00 -0.00000000000E+00 -0.88128331615E+01  0.88128331615E+01  0.00000000000E+00 0.  1.
         23    2    1    2    0    0  0.00000000000E+00  0.00000000000E+00  0.22517378456E+03  0.24279945088E+03  0.90820372692E+02 0.  0.
        -11    1    3    3    0    0  0.12197689428E+02  0.32424888000E+02  0.19107428885E+03  0.19418944578E+03  0.00000000000E+00 0.  1.
         11    1    3    3    0    0 -0.12197689428E+02 -0.32424888000E+02  0.34099495705E+02  0.48610005107E+02  0.00000000000E+00 0. -1.
<mgrwt>
<rscale>  0 0.90820373E+02</rscale>
<asrwt>0</asrwt>
<pdfrwt beam="1">  1        3 0.35997936E-01 0.90820373E+02</pdfrwt>
<pdfrwt beam="2">  1       -3 0.13558207E-02 0.90820373E+02</pdfrwt>
<totfact> 0.26706886E+04</totfact>
</mgrwt>
</event>
<event>
 5    1  0.1270889E+001  0.9440281E+02  0.7546771E-02  0.1292527E+00
         -2   -1    0    0    0  501 -0.00000000000E+00  0.00000000000E+00  0.13782244769E+02  0.13782244769E+02  0.00000000000E+00 0.  1.
          2   -1    0    0  501    0  0.00000000000E+00 -0.00000000000E+00 -0.16165527254E+03  0.16165527254E+03  0.00000000000E+00 0. -1.
         23    2    1    2    0    0  0.00000000000E+00  0.00000000000E+00 -0.14787302777E+03  0.17543751731E+03  0.94402807888E+02 0.  0.
        -11    1    3    3    0    0  0.20258636283E+01  0.27285240610E+02 -0.24575863644E+01  0.27470497071E+02  0.00000000000E+00 0.  1.
         11    1    3    3    0    0 -0.20258636283E+01 -0.27285240610E+02 -0.14541544141E+03  0.14796702024E+03  0.00000000000E+00 0. -1.
<mgrwt>
<rscale>  0 0.94402808E+02</rscale>
<asrwt>0</asrwt>
<pdfrwt beam="2">  1        2 0.24870042E-01 0.94402808E+02</pdfrwt>
<pdfrwt beam="1">  1       -2 0.21203454E-02 0.94402808E+02</pdfrwt>
<totfact> 0.13051853E+05</totfact>
</mgrwt>
</event>
<event>
 5    1  0.1270889E+001  0.9075357E+02  0.7546771E-02  0.1301037E+00
         -1   -1    0    0    0  501 -0.00000000000E+00  0.00000000000E+00  0.57695100156E+02  0.57695100156E+02  0.00000000000E+00 0.  1.
          1   -1    0    0  501    0  0.00000000000E+00 -0.00000000000E+00 -0.35688516651E+02  0.35688516651E+02  0.00000000000E+00 0. -1.
         23    2    1    2    0    0  0.00000000000E+00  0.00000000000E+00  0.22006583505E+02  0.93383616807E+02  0.90753568362E+02 0.  0.
        -13    1    3    3    0    0  0.43287647905E+02  0.13524966887E+02  0.94402739721E+01  0.46323470975E+02  0.00000000000E+00 0.  1.
         13    1    3    3    0    0 -0.43287647905E+02 -0.13524966887E+02  0.12566309533E+02  0.47060145832E+02  0.00000000000E+00 0. -1.
<mgrwt>
<rscale>  0 0.90753568E+02</rscale>
<asrwt>0</asrwt>
<pdfrwt beam="2">  1        1 0.54905410E-02 0.90753568E+02</pdfrwt>
<pdfrwt beam="1">  1       -1 0.88761692E-02 0.90753568E+02</pdfrwt>
<totfact> 0.90277951E+04</totfact>
</mgrwt>
</event>
<event>
 5    1  0.1270889E+001  0.9119083E+02  0.7546771E-02  0.1299993E+00
         -1   -1    0    0    0  501 -0.00000000000E+00  0.00000000000E+00  0.43504188179E+02  0.43504188179E+02  0.00000000000E+00 0.  1.
          1   -1    0    0  501    0  0.00000000000E+00 -0.00000000000E+00 -0.47787165506E+02  0.47787165506E+02  0.00000000000E+00 0. -1.
         23    2    1    2    0    0  0.00000000000E+00  0.00000000000E+00 -0.42829773270E+01  0.91291353686E+02  0.91190829380E+02 0.  0.
        -13    1    3    3    0    0  0.19298587966E+02 -0.27677061965E+02 -0.32842648574E+02  0.47086036379E+02  0.00000000000E+00 0. -1.
         13    1    3    3    0    0 -0.19298587966E+02  0.27677061965E+02  0.28559671247E+02  0.44205317307E+02  0.00000000000E+00 0.  1.
<mgrwt>
<rscale>  0 0.91190829E+02</rscale>
<asrwt>0</asrwt>
<pdfrwt beam="2">  1        1 0.73518715E-02 0.91190829E+02</pdfrwt>
<pdfrwt beam="1">  1       -1 0.66929521E-02 0.91190829E+02</pdfrwt>
<totfact> 0.93088939E+04</totfact>
</mgrwt>
</event>
<event>
 5    1  0.1270889E+001  0.9004674E+02  0.7546771E-02  0.1302739E+00
         -1   -1    0    0    0  501 -0.00000000000E+00  0.00000000000E+00  0.88636092808E+01  0.88636092808E+01  0.00000000000E+00 0.  1.
          1   -1    0    0  501    0  0.00000000000E+00 -0.00000000000E+00 -0.22869960908E+03  0.22869960908E+03  0.00000000000E+00 0. -1.
         23    2    1    2    0    0  0.00000000000E+00  0.00000000000E+00 -0.21983599980E+03  0.23756321836E+03  0.90046742918E+02 0.  0.
        -11    1    3    3    0    0 -0.35538673213E+02  0.24326911760E+02 -0.75287084375E+02  0.86734889192E+02  0.00000000000E+00 0.  1.
         11    1    3    3    0    0  0.35538673213E+02 -0.24326911760E+02 -0.14454891542E+03  0.15082832917E+03  0.00000000000E+00 0. -1.
<mgrwt>
<rscale>  0 0.90046743E+02</rscale>
<asrwt>0</asrwt>
<pdfrwt beam="2">  1        1 0.35184560E-01 0.90046743E+02</pdfrwt>
<pdfrwt beam="1">  1       -1 0.13636320E-02 0.90046743E+02</pdfrwt>
<totfact> 0.12565909E+05</totfact>
</mgrwt>
</event>
<event>
 5    1  0.1270889E+001  0.1214531E+03  0.7546771E-02  0.1240719E+00
          1   -1    0    0  501    0  0.00000000000E+00  0.00000000000E+00  0.44250937760E+02  0.44250937760E+02  0.00000000000E+00 0. -1.
         -1   -1    0    0    0  501 -0.00000000000E+00 -0.00000000000E+00 -0.83336342638E+02  0.83336342638E+02  0.00000000000E+00 0.  1.
         23    2    1    2    0    0  0.00000000000E+00  0.00000000000E+00 -0.39085404878E+02  0.12758728040E+03  0.12145305778E+03 0.  0.
        -11    1    3    3    0    0  0.42845086932E+01  0.52391777107E+02 -0.51483227187E+02  0.73578380009E+02  0.00000000000E+00 0.  1.
         11    1    3    3    0    0 -0.42845086932E+01 -0.52391777107E+02  0.12397822310E+02  0.54008900389E+02  0.00000000000E+00 0. -1.
<mgrwt>
<rscale>  0 0.12145306E+03</rscale>
<asrwt>0</asrwt>
<pdfrwt beam="1">  1        1 0.68078366E-02 0.12145306E+03</pdfrwt>
<pdfrwt beam="2">  1       -1 0.12820976E-01 0.12145306E+03</pdfrwt>
<totfact> 0.40250867E+04</totfact>
</mgrwt>
</event>
<event>
 5    1  0.1270889E+001  0.9171684E+02  0.7546771E-02  0.1298747E+00
          1   -1    0    0  501    0  0.00000000000E+00  0.00000000000E+00  0.24880799429E+03  0.24880799429E+03  0.00000000000E+00 0. -1.
         -1   -1    0    0    0  501 -0.00000000000E+00 -0.00000000000E+00 -0.84522794732E+01  0.84522794732E+01  0.00000000000E+00 0.  1.
         23    2    1    2    0    0  0.00000000000E+00  0.00000000000E+00  0.24035571482E+03  0.25726027376E+03  0.91716840393E+02 0.  0.
        -11    1    3    3    0    0 -0.28921069267E+02  0.35318815500E+02  0.13245174825E+03  0.14009751101E+03  0.00000000000E+00 0.  1.
         11    1    3    3    0    0  0.28921069267E+02 -0.35318815500E+02  0.10790396656E+03  0.11716276275E+03  0.00000000000E+00 0. -1.
<mgrwt>
<rscale>  0 0.91716840E+02</rscale>
<asrwt>0</asrwt>
<pdfrwt beam="1">  1        1 0.38278147E-01 0.91716840E+02</pdfrwt>
<pdfrwt beam="2">  1       -1 0.13003509E-02 0.91716840E+02</pdfrwt>
<totfact> 0.12161899E+05</totfact>
</mgrwt>
</event>
<event>
 5    1  0.1270889E+001  0.8875426E+02  0.7546771E-02  0.1305897E+00
         -1   -1    0    0    0  501 -0.00000000000E+00  0.00000000000E+00  0.49861196338E+01  0.49861196338E+01  0.00000000000E+00 0.  1.
          1   -1    0    0  501    0  0.00000000000E+00 -0.00000000000E+00 -0.39496241737E+03  0.39496241737E+03  0.00000000000E+00 0. -1.
         23    2    1    2    0    0  0.00000000000E+00  0.00000000000E+00 -0.38997629773E+03  0.39994853700E+03  0.88754264435E+02 0.  0.
        -11    1    3    3    0    0 -0.25575617947E+02 -0.34845265756E+02 -0.24028098284E+03  0.24413777973E+03  0.00000000000E+00 0. -1.
         11    1    3    3    0    0  0.25575617947E+02  0.34845265756E+02 -0.14969531489E+03  0.15581075727E+03  0.00000000000E+00 0.  1.
<mgrwt>
<rscale>  0 0.88754264E+02</rscale>
<asrwt>0</asrwt>
<pdfrwt beam="2">  1        1 0.60763456E-01 0.88754264E+02</pdfrwt>
<pdfrwt beam="1">  1       -1 0.76709523E-03 0.88754264E+02</pdfrwt>
<totfact> 0.14457125E+05</totfact>
</mgrwt>
</event>
<event>
 5    1  0.1270889E+001  0.8827726E+02  0.7546771E-02  0.1307078E+00
          4   -1    0    0  501    0  0.00000000000E+00  0.00000000000E+00  0.33884850649E+02  0.33884850649E+02  0.00000000000E+00 0. -1.
         -4   -1    0    0    0  501 -0.00000000000E+00 -0.00000000000E+00 -0.57495273821E+02  0.57495273821E+02  0.00000000000E+00 0.  1.
         23    2    1    2    0    0  0.00000000000E+00  0.00000000000E+00 -0.23610423171E+02  0.91380124470E+02  0.88277262451E+02 0.  0.
        -11    1    3    3    0    0  0.96039833765E+01  0.40232518421E+01  0.32595270937E+02  0.34218046986E+02  0.00000000000E+00 0. -1.
         11    1    3    3    0    0 -0.96039833765E+01 -0.40232518421E+01 -0.56205694108E+02  0.57162077484E+02  0.00000000000E+00 0.  1.
<mgrwt>
<rscale>  0 0.88277262E+02</rscale>
<asrwt>0</asrwt>
<pdfrwt beam="1">  1        4 0.52130540E-02 0.88277262E+02</pdfrwt>
<pdfrwt beam="2">  1       -4 0.88454266E-02 0.88277262E+02</pdfrwt>
<totfact> 0.29468847E+04</totfact>
</mgrwt>
</event>
<event>
 5    1  0.1270889E+001  0.9381722E+02  0.7546771E-02  0.1293862E+00
          1   -1    0    0  501    0  0.00000000000E+00  0.00000000000E+00  0.43667725425E+02  0.43667725425E+02  0.00000000000E+00 0. -1.
         -1   -1    0    0    0  501 -0.00000000000E+00 -0.00000000000E+00 -0.50390027451E+02  0.50390027451E+02  0.00000000000E+00 0.  1.
         23    2    1    2    0    0  0.00000000000E+00  0.00000000000E+00 -0.67223020264E+01  0.94057752876E+02  0.93817224067E+02 0.  0.
        -11    1    3    3    0    0 -0.16048217411E+02  0.34180410047E+02  0.24541339214E+02  0.45034687114E+02  0.00000000000E+00 0. -1.
         11    1    3    3    0    0  0.16048217411E+02 -0.34180410047E+02 -0.31263641241E+02  0.49023065762E+02  0.00000000000E+00 0.  1.
<mgrwt>
<rscale>  0 0.93817224E+02</rscale>
<asrwt>0</asrwt>
<pdfrwt beam="1">  1        1 0.67181116E-02 0.93817224E+02</pdfrwt>
<pdfrwt beam="2">  1       -1 0.77523119E-02 0.93817224E+02</pdfrwt>
<totfact> 0.84763950E+04</totfact>
</mgrwt>
</event>
<event>
 5    1  0.1270889E+001  0.9021743E+02  0.7546771E-02  0.1302326E+00
          1   -1    0    0  501    0  0.00000000000E+00  0.00000000000E+00  0.19512921641E+02  0.19512921641E+02  0.00000000000E+00 0. -1.
         -1   -1    0    0    0  501 -0.00000000000E+00 -0.00000000000E+00 -0.10427941953E+03  0.10427941953E+03  0.00000000000E+00 0.  1.
         23    2    1    2    0    0  0.00000000000E+00  0.00000000000E+00 -0.84766497889E+02  0.12379234117E+03  0.90217429403E+02 0.  0.
        -11    1    3    3    0    0 -0.32062958855E+01 -0.42599097096E+02 -0.62259750592E+02  0.75506555679E+02  0.00000000000E+00 0.  1.
         11    1    3    3    0    0  0.32062958855E+01  0.42599097096E+02 -0.22506747297E+02  0.48285785492E+02  0.00000000000E+00 0. -1.
<mgrwt>
<rscale>  0 0.90217429E+02</rscale>
<asrwt>0</asrwt>
<pdfrwt beam="1">  1        1 0.30019879E-02 0.90217429E+02</pdfrwt>
<pdfrwt beam="2">  1       -1 0.16042988E-01 0.90217429E+02</pdfrwt>
<totfact> 0.82962148E+04</totfact>
</mgrwt>
</event>
<event>
 5    1  0.1270889E+001  0.9217109E+02  0.7546771E-02  0.1297678E+00
         -3   -1    0    0    0  501 -0.00000000000E+00  0.00000000000E+00  0.11325065696E+02  0.11325065696E+02  0.00000000000E+00 0.  1.
          3   -1    0    0  501    0  0.00000000000E+00 -0.00000000000E+00 -0.18753774748E+03  0.18753774748E+03  0.00000000000E+00 0. -1.
         23    2    1    2    0    0  0.00000000000E+00  0.00000000000E+00 -0.17621268179E+03  0.19886281318E+03  0.92171086805E+02 0.  0.
        -13    1    3    3    0    0  0.16227801700E+02  0.37239119804E+02 -0.41144086507E+02  0.57818071970E+02  0.00000000000E+00 0.  1.
         13    1    3    3    0    0 -0.16227801700E+02 -0.37239119804E+02 -0.13506859528E+03  0.14104474121E+03  0.00000000000E+00 0. -1.
<mgrwt>
<rscale>  0 0.92171087E+02</rscale>
<asrwt>0</asrwt>
<pdfrwt beam="2">  1        3 0.28851959E-01 0.92171087E+02</pdfrwt>
<pdfrwt beam="1">  1       -3 0.17423180E-02 0.92171087E+02</pdfrwt>
<totfact> 0.27732186E+04</totfact>
</mgrwt>
</event>
<event>
 5    1  0.1270889E+001  0.8972251E+02  0.7546771E-02  0.1303525E+00
         -3   -1    0    0    0  501 -0.00000000000E+00  0.00000000000E+00  0.60840461953E+02  0.60840461953E+02  0.00000000000E+00 0.  1.
          3   -1    0    0  501    0  0.00000000000E+00 -0.00000000000E+00 -0.33078846767E+02  0.33078846767E+02  0.00000000000E+00 0. -1.
         23    2    1    2    0    0  0.00000000000E+00  0.00000000000E+00  0.27761615186E+02  0.93919308721E+02  0.89722512631E+02 0.  0.
        -13    1    3    3    0    0  0.14362207035E+02  0.20280218963E+02 -0.25215542278E+02  0.35403161504E+02  0.00000000000E+00 0. -1.
         13    1    3    3    0    0 -0.14362207035E+02 -0.20280218963E+02  0.52977157464E+02  0.58516147217E+02  0.00000000000E+00 0.  1.
<mgrwt>
<rscale>  0 0.89722513E+02</rscale>
<asrwt>0</asrwt>
<pdfrwt beam="2">  1        3 0.50890534E-02 0.89722513E+02</pdfrwt>
<pdfrwt beam="1">  1       -3 0.93600711E-02 0.89722513E+02</pdfrwt>
<totfact> 0.36698239E+04</totfact>
</mgrwt>
</event>
<event>
 5    1  0.1270889E+001  0.9128143E+02  0.7546771E-02  0.1299778E+00
          1   -1    0    0  501    0  0.00000000000E+00  0.00000000000E+00  0.14409092671E+03  0.14409092671E+03  0.00000000000E+00 0. -1.
         -1   -1    0    0    0  501 -0.00000000000E+00 -0.00000000000E+00 -0.14456670668E+02  0.14456670668E+02  0.00000000000E+00 0.  1.
         23    2    1    2    0    0  0.00000000000E+00  0.00000000000E+00  0.12963425604E+03  0.15854759737E+03  0.91281434554E+02 0.  0.
        -11    1    3    3    0    0 -0.20817112263E+02 -0.40195633931E+02  0.74950015435E+02  0.87558814312E+02  0.00000000000E+00 0. -1.
         11    1    3    3    0    0  0.20817112263E+02  0.40195633931E+02  0.54684240603E+02  0.70988783061E+02  0.00000000000E+00 0.  1.
<mgrwt>
<rscale>  0 0.91281435E+02</rscale>
<asrwt>0</asrwt>
<pdfrwt beam="1">  1        1 0.22167834E-01 0.91281435E+02</pdfrwt>
<pdfrwt beam="2">  1       -1 0.22241033E-02 0.91281435E+02</pdfrwt>
<totfact> 0.11096642E+05</totfact>
</mgrwt>
</event>
<event>
 5    1  0.1270889E+001  0.9235941E+02  0.7546771E-02  0.1297237E+00
          1   -1    0    0  501    0  0.00000000000E+00  0.00000000000E+00  0.15327437829E+02  0.15327437829E+02  0.00000000000E+00 0. -1.
         -1   -1    0    0    0  501 -0.00000000000E+00 -0.00000000000E+00 -0.13913381903E+03  0.13913381903E+03  0.00000000000E+00 0.  1.
         23    2    1    2    0    0  0.00000000000E+00  0.00000000000E+00 -0.12380638120E+03  0.15446125686E+03  0.92359405825E+02 0.  0.
        -13    1    3    3    0    0  0.38329156984E+01 -0.26276019070E+02  0.12824009843E+01  0.26585051687E+02  0.00000000000E+00 0. -1.
         13    1    3    3    0    0 -0.38329156984E+01  0.26276019070E+02 -0.12508878218E+03  0.12787620517E+03  0.00000000000E+00 0.  1.
<mgrwt>
<rscale>  0 0.92359406E+02</rscale>
<asrwt>0</asrwt>
<pdfrwt beam="1">  1        1 0.23580674E-02 0.92359406E+02</pdfrwt>
<pdfrwt beam="2">  1       -1 0.21405203E-01 0.92359406E+02</pdfrwt>
<totfact> 0.73582934E+04</totfact>
</mgrwt>
</event>
<event>
 5    1  0.1270889E+001  0.9112116E+02  0.7546771E-02  0.1300159E+00
         -2   -1    0    0    0  501 -0.00000000000E+00  0.00000000000E+00  0.91194310913E+02  0.91194310913E+02  0.00000000000E+00 0.  1.
          2   -1    0    0  501    0  0.00000000000E+00 -0.00000000000E+00 -0.22762016331E+02  0.22762016331E+02  0.00000000000E+00 0. -1.
         23    2    1    2    0    0  0.00000000000E+00  0.00000000000E+00  0.68432294583E+02  0.11395632724E+03  0.91121158778E+02 0.  0.
        -11    1    3    3    0    0  0.10120150015E+02 -0.24834113060E+02 -0.11846367319E+02  0.29317009167E+02  0.00000000000E+00 0. -1.
         11    1    3    3    0    0 -0.10120150015E+02  0.24834113060E+02  0.80278661902E+02  0.84639318077E+02  0.00000000000E+00 0.  1.
<mgrwt>
<rscale>  0 0.91121159E+02</rscale>
<asrwt>0</asrwt>
<pdfrwt beam="2">  1        2 0.35018487E-02 0.91121159E+02</pdfrwt>
<pdfrwt beam="1">  1       -2 0.14029894E-01 0.91121159E+02</pdfrwt>
<totfact> 0.82117113E+04</totfact>
</mgrwt>
</event>
<event>
 5    1  0.1270889E+001  0.8688334E+02  0.7546771E-02  0.1310580E+00
         -3   -1    0    0    0  501 -0.00000000000E+00  0.00000000000E+00  0.59082030123E+02  0.59082030123E+02  0.00000000000E+00 0.  1.
          3   -1    0    0  501    0  0.00000000000E+00 -0.00000000000E+00 -0.31941671996E+02  0.31941671996E+02  0.00000000000E+00 0. -1.
         23    2    1    2    0    0  0.00000000000E+00  0.00000000000E+00  0.27140358127E+02  0.91023702119E+02  0.86883343100E+02 0.  0.
        -13    1    3    3    0    0 -0.26382882523E+02  0.19163548599E+02 -0.16500978589E+02  0.36545593162E+02  0.00000000000E+00 0. -1.
         13    1    3    3    0    0  0.26382882523E+02 -0.19163548599E+02  0.43641336717E+02  0.54478108957E+02  0.00000000000E+00 0.  1.
<mgrwt>
<rscale>  0 0.86883343E+02</rscale>
<asrwt>0</asrwt>
<pdfrwt beam="2">  1        3 0.49141034E-02 0.86883343E+02</pdfrwt>
<pdfrwt beam="1">  1       -3 0.90895431E-02 0.86883343E+02</pdfrwt>
<totfact> 0.40293469E+04</totfact>
</mgrwt>
</event>
<event>
 5    1  0.1270889E+001  0.9351090E+02  0.7546771E-02  0.1294566E+00
         -1   -1    0    0    0  501 -0.00000000000E+00  0.00000000000E+00  0.56055521913E+02  0.56055521913E+02  0.00000000000E+00 0.  1.
          1   -1    0    0  501    0  0.00000000000E+00 -0.00000000000E+00 -0.38998332420E+02  0.38998332420E+02  0.00000000000E+00 0. -1.
         23    2    1    2    0    0  0.00000000000E+00  0.00000000000E+00  0.17057189493E+02  0.95053854334E+02  0.93510895142E+02 0.  0.
        -13    1    3    3    0    0 -0.36504308991E+02  0.16723357470E+02  0.32878745056E+02  0.51896504086E+02  0.00000000000E+00 0.  1.
         13    1    3    3    0    0  0.36504308991E+02 -0.16723357470E+02 -0.15821555563E+02  0.43157350247E+02  0.00000000000E+00 0. -1.
<mgrwt>
<rscale>  0 0.93510895E+02</rscale>
<asrwt>0</asrwt>
<pdfrwt beam="2">  1        1 0.59997434E-02 0.93510895E+02</pdfrwt>
<pdfrwt beam="1">  1       -1 0.86239265E-02 0.93510895E+02</pdfrwt>
<totfact> 0.84063953E+04</totfact>
</mgrwt>
</event>
<event>
 5    1  0.1270889E+001  0.9112337E+02  0.7546771E-02  0.1300154E+00
          1   -1    0    0  501    0  0.00000000000E+00  0.00000000000E+00  0.13972336562E+03  0.13972336562E+03  0.00000000000E+00 0. -1.
         -1   -1    0    0    0  501 -0.00000000000E+00 -0.00000000000E+00 -0.14856978790E+02  0.14856978790E+02  0.00000000000E+00 0.  1.
         23    2    1    2    0    0  0.00000000000E+00  0.00000000000E+00  0.12486638683E+03  0.15458034441E+03  0.91123368668E+02 0.  0.
        -11    1    3    3    0    0  0.27143231519E+02  0.68798987850E+00  0.36684465394E+00  0.27154427307E+02  0.00000000000E+00 0.  1.
         11    1    3    3    0    0 -0.27143231519E+02 -0.68798987850E+00  0.12449954217E+03  0.12742591710E+03  0.00000000000E+00 0. -1.
<mgrwt>
<rscale>  0 0.91123369E+02</rscale>
<asrwt>0</asrwt>
<pdfrwt beam="1">  1        1 0.21495902E-01 0.91123369E+02</pdfrwt>
<pdfrwt beam="2">  1       -1 0.22856891E-02 0.91123369E+02</pdfrwt>
<totfact> 0.11086614E+05</totfact>
</mgrwt>
</event>
<event>
 5    1  0.1270889E+001  0.9007062E+02  0.7546771E-02  0.1302681E+00
         -4   -1    0    0    0  501 -0.00000000000E+00  0.00000000000E+00  0.38377886755E+02  0.38377886755E+02  0.00000000000E+00 0.  1.
          4   -1    0    0  501    0  0.00000000000E+00 -0.00000000000E+00 -0.52847602731E+02  0.52847602731E+02  0.00000000000E+00 0. -1.
         23    2    1    2    0    0  0.00000000000E+00  0.00000000000E+00 -0.14469715976E+02  0.91225489487E+02  0.90070623689E+02 0.  0.
        -11    1    3    3    0    0  0.37669612649E+02 -0.25707757256E+01 -0.32096913987E+02  0.49556235657E+02  0.00000000000E+00 0. -1.
         11    1    3    3    0    0 -0.37669612649E+02  0.25707757256E+01  0.17627198011E+02  0.41669253830E+02  0.00000000000E+00 0.  1.
<mgrwt>
<rscale>  0 0.90070624E+02</rscale>
<asrwt>0</asrwt>
<pdfrwt beam="2">  1        4 0.81304004E-02 0.90070624E+02</pdfrwt>
<pdfrwt beam="1">  1       -4 0.59042903E-02 0.90070624E+02</pdfrwt>
<totfact> 0.27921224E+04</totfact>
</mgrwt>
</event>
<event>
 5    1  0.1270889E+001  0.9365374E+02  0.7546771E-02  0.1294237E+00
         -2   -1    0    0    0  501 -0.00000000000E+00  0.00000000000E+00  0.28181791661E+02  0.28181791661E+02  0.00000000000E+00 0.  1.
          2   -1    0    0  501    0  0.00000000000E+00 -0.00000000000E+00 -0.77807527382E+02  0.77807527382E+02  0.00000000000E+00 0. -1.
         23    2    1    2    0    0  0.00000000000E+00  0.00000000000E+00 -0.49625735721E+02  0.10598931904E+03  0.93653735138E+02 0.  0.
        -11    1    3    3    0    0 -0.17174691088E+02 -0.12029086573E+02  0.22571891868E+02  0.30808428072E+02  0.00000000000E+00 0.  1.
         11    1    3    3    0    0  0.17174691088E+02  0.12029086573E+02 -0.72197627589E+02  0.75180890971E+02  0.00000000000E+00 0. -1.
<mgrwt>
<rscale>  0 0.93653735E+02</rscale>
<asrwt>0</asrwt>
<pdfrwt beam="2">  1        2 0.11970389E-01 0.93653735E+02</pdfrwt>
<pdfrwt beam="1">  1       -2 0.43356603E-02 0.93653735E+02</pdfrwt>
<totfact> 0.10573459E+05</totfact>
</mgrwt>
</event>
<event>
 5    1  0.1270889E+001  0.8990999E+02  0.7546771E-02  0.1303070E+00
          3   -1    0    0  501    0  0.00000000000E+00  0.00000000000E+00  0.82420381165E+02  0.82420381165E+02  0.00000000000E+00 0.  1.
         -3   -1    0    0    0  501 -0.00000000000E+00 -0.00000000000E+00 -0.24520043862E+02  0.24520043862E+02  0.00000000000E+00 0. -1.
         23    2    1    2    0    0  0.00000000000E+00  0.00000000000E+00  0.57900337303E+02  0.10694042503E+03  0.89909985236E+02 0.  0.
        -13    1    3    3    0    0  0.24430910008E+02  0.30753161743E+02  0.54963473945E+02  0.67554494958E+02  0.00000000000E+00 0.  1.
         13    1    3    3    0    0 -0.24430910008E+02 -0.30753161743E+02  0.29368633588E+01  0.39385930069E+02  0.00000000000E+00 0. -1.
<mgrwt>
<rscale>  0 0.89909985E+02</rscale>
<asrwt>0</asrwt>
<pdfrwt beam="1">  1        3 0.12680059E-01 0.89909985E+02</pdfrwt>
<pdfrwt beam="2">  1       -3 0.37723145E-02 0.89909985E+02</pdfrwt>
<totfact> 0.35485994E+04</totfact>
</mgrwt>
</event>
<event>
 5    1  0.1270889E+001  0.9198714E+02  0.7546771E-02  0.1298110E+00
         -1   -1    0    0    0  501 -0.00000000000E+00  0.00000000000E+00  0.12432511303E+03  0.12432511303E+03  0.00000000000E+00 0.  1.
          1   -1    0    0  501    0  0.00000000000E+00 -0.00000000000E+00 -0.17015132363E+02  0.17015132363E+02  0.00000000000E+00 0. -1.
         23    2    1    2    0    0  0.00000000000E+00  0.00000000000E+00  0.10730998066E+03  0.14134024539E+03  0.91987135061E+02 0.  0.
        -13    1    3    3    0    0 -0.16192876246E+02  0.31844357574E+02  0.91452664869E+01  0.36876933841E+02  0.00000000000E+00 0. -1.
         13    1    3    3    0    0  0.16192876246E+02 -0.31844357574E+02  0.98164714176E+02  0.10446331155E+03  0.00000000000E+00 0.  1.
<mgrwt>
<rscale>  0 0.91987135E+02</rscale>
<asrwt>0</asrwt>
<pdfrwt beam="2">  1        1 0.26177127E-02 0.91987135E+02</pdfrwt>
<pdfrwt beam="1">  1       -1 0.19126940E-01 0.91987135E+02</pdfrwt>
<totfact> 0.76191784E+04</totfact>
</mgrwt>
</event>
<event>
 5    1  0.1270889E+001  0.9437942E+02  0.7546771E-02  0.1292580E+00
          3   -1    0    0  501    0  0.00000000000E+00  0.00000000000E+00  0.26156597249E+02  0.26156597249E+02  0.00000000000E+00 0. -1.
         -3   -1    0    0    0  501 -0.00000000000E+00 -0.00000000000E+00 -0.85136032878E+02  0.85136032878E+02  0.00000000000E+00 0.  1.
         23    2    1    2    0    0  0.00000000000E+00  0.00000000000E+00 -0.58979435630E+02  0.11129263013E+03  0.94379424100E+02 0.  0.
        -11    1    3    3    0    0 -0.29581284710E+02  0.13451930638E+02 -0.69839570512E+02  0.77029685527E+02  0.00000000000E+00 0.  1.
         11    1    3    3    0    0  0.29581284710E+02 -0.13451930638E+02  0.10860134883E+02  0.34262944600E+02  0.00000000000E+00 0. -1.
<mgrwt>
<rscale>  0 0.94379424E+02</rscale>
<asrwt>0</asrwt>
<pdfrwt beam="1">  1        3 0.40240918E-02 0.94379424E+02</pdfrwt>
<pdfrwt beam="2">  1       -3 0.13097851E-01 0.94379424E+02</pdfrwt>
<totfact> 0.30812154E+04</totfact>
</mgrwt>
</event>
<event>
 5    1  0.1270889E+001  0.9110429E+02  0.7546771E-02  0.1300199E+00
          1   -1    0    0  501    0  0.00000000000E+00  0.00000000000E+00  0.61199889885E+01  0.61199889885E+01  0.00000000000E+00 0. -1.
         -1   -1    0    0    0  501 -0.00000000000E+00 -0.00000000000E+00 -0.33905251998E+03  0.33905251998E+03  0.00000000000E+00 0.  1.
         23    2    1    2    0    0  0.00000000000E+00  0.00000000000E+00 -0.33293253099E+03  0.34517250897E+03  0.91104285053E+02 0.  0.
        -13    1    3    3    0    0  0.88211404604E+01 -0.43969584717E+02 -0.19674338373E+03  0.20178973200E+03  0.00000000000E+00 0. -1.
         13    1    3    3    0    0 -0.88211404604E+01  0.43969584717E+02 -0.13618914726E+03  0.14338277697E+03  0.00000000000E+00 0.  1.
<mgrwt>
<rscale>  0 0.91104285E+02</rscale>
<asrwt>0</asrwt>
<pdfrwt beam="1">  1        1 0.94153681E-03 0.91104285E+02</pdfrwt>
<pdfrwt beam="2">  1       -1 0.52161924E-01 0.91104285E+02</pdfrwt>
<totfact> 0.57710666E+04</totfact>
</mgrwt>
</event>
<event>
 5    1  0.1270889E+001  0.8947705E+02  0.7546771E-02  0.1304123E+00
         -2   -1    0    0    0  501 -0.00000000000E+00  0.00000000000E+00  0.79030571188E+01  0.79030571188E+01  0.00000000000E+00 0.  1.
          2   -1    0    0  501    0  0.00000000000E+00 -0.00000000000E+00 -0.25326091050E+03  0.25326091050E+03  0.00000000000E+00 0. -1.
         23    2    1    2    0    0  0.00000000000E+00  0.00000000000E+00 -0.24535785338E+03  0.26116396761E+03  0.89477046031E+02 0.  0.
        -11    1    3    3    0    0 -0.28826069948E+02 -0.33867698970E+02 -0.10850791839E+03  0.11726863049E+03  0.00000000000E+00 0.  1.
         11    1    3    3    0    0  0.28826069948E+02  0.33867698970E+02 -0.13684993498E+03  0.14389533713E+03  0.00000000000E+00 0. -1.
<mgrwt>
<rscale>  0 0.89477046E+02</rscale>
<asrwt>0</asrwt>
<pdfrwt beam="2">  1        2 0.38963225E-01 0.89477046E+02</pdfrwt>
<pdfrwt beam="1">  1       -2 0.12158547E-02 0.89477046E+02</pdfrwt>
<totfact> 0.17736872E+05</totfact>
</mgrwt>
</event>
<event>
 5    1  0.1270889E+001  0.9190978E+02  0.7546771E-02  0.1298292E+00
         -2   -1    0    0    0  501 -0.00000000000E+00  0.00000000000E+00  0.75391354291E+01  0.75391354291E+01  0.00000000000E+00 0.  1.
          2   -1    0    0  501    0  0.00000000000E+00 -0.00000000000E+00 -0.28011857193E+03  0.28011857193E+03  0.00000000000E+00 0. -1.
         23    2    1    2    0    0  0.00000000000E+00  0.00000000000E+00 -0.27257943650E+03  0.28765770736E+03  0.91909778586E+02 0.  0.
        -11    1    3    3    0    0  0.18457726284E+01 -0.42667670286E+02 -0.83183380335E+02  0.93506212244E+02  0.00000000000E+00 0.  1.
         11    1    3    3    0    0 -0.18457726284E+01  0.42667670286E+02 -0.18939605616E+03  0.19415149511E+03  0.00000000000E+00 0. -1.
<mgrwt>
<rscale>  0 0.91909779E+02</rscale>
<asrwt>0</asrwt>
<pdfrwt beam="2">  1        2 0.43095157E-01 0.91909779E+02</pdfrwt>
<pdfrwt beam="1">  1       -2 0.11598672E-02 0.91909779E+02</pdfrwt>
<totfact> 0.17141421E+05</totfact>
</mgrwt>
</event>
<event>
 5    1  0.1270889E+001  0.1204645E+03  0.7546771E-02  0.1242333E+00
          2   -1    0    0  501    0  0.00000000000E+00  0.00000000000E+00  0.56306405673E+02  0.56306405673E+02  0.00000000000E+00 0. -1.
         -2   -1    0    0    0  501 -0.00000000000E+00 -0.00000000000E+00 -0.64431838389E+02  0.64431838389E+02  0.00000000000E+00 0.  1.
         23    2    1    2    0    0  0.00000000000E+00  0.00000000000E+00 -0.81254327154E+01  0.12073824406E+03  0.12046452143E+03 0.  0.
        -11    1    3    3    0    0  0.94926207394E+01  0.42807719167E+02 -0.45452003462E+02  0.63154534972E+02  0.00000000000E+00 0.  1.
         11    1    3    3    0    0 -0.94926207394E+01 -0.42807719167E+02  0.37326570747E+02  0.57583709090E+02  0.00000000000E+00 0. -1.
<mgrwt>
<rscale>  0 0.12046452E+03</rscale>
<asrwt>0</asrwt>
<pdfrwt beam="1">  1        2 0.86625240E-02 0.12046452E+03</pdfrwt>
<pdfrwt beam="2">  1       -2 0.99125905E-02 0.12046452E+03</pdfrwt>
<totfact> 0.46315336E+04</totfact>
</mgrwt>
</event>
<event>
 5    1  0.1270889E+001  0.9808075E+02  0.7546771E-02  0.1284384E+00
         -2   -1    0    0    0  501 -0.00000000000E+00  0.00000000000E+00  0.10306072773E+03  0.10306072773E+03  0.00000000000E+00 0.  1.
          2   -1    0    0  501    0  0.00000000000E+00 -0.00000000000E+00 -0.23335353082E+02  0.23335353082E+02  0.00000000000E+00 0. -1.
         23    2    1    2    0    0  0.00000000000E+00  0.00000000000E+00  0.79725374649E+02  0.12639608081E+03  0.98080751841E+02 0.  0.
        -11    1    3    3    0    0 -0.27383472414E+02  0.29578278435E+02  0.75859244402E+02  0.85903166867E+02  0.00000000000E+00 0.  1.
         11    1    3    3    0    0  0.27383472414E+02 -0.29578278435E+02  0.38661302468E+01  0.40492913944E+02  0.00000000000E+00 0. -1.
<mgrwt>
<rscale>  0 0.98080752E+02</rscale>
<asrwt>0</asrwt>
<pdfrwt beam="2">  1        2 0.35900544E-02 0.98080752E+02</pdfrwt>
<pdfrwt beam="1">  1       -2 0.15855496E-01 0.98080752E+02</pdfrwt>
<totfact> 0.65934807E+04</totfact>
</mgrwt>
</event>
<event>
 5    1  0.1270889E+001  0.8589371E+02  0.7546771E-02  0.1313112E+00
          3   -1    0    0  501    0  0.00000000000E+00  0.00000000000E+00  0.94312577652E+02  0.94312577652E+02  0.00000000000E+00 0. -1.
         -3   -1    0    0    0  501 -0.00000000000E+00 -0.00000000000E+00 -0.19556589328E+02  0.19556589328E+02  0.00000000000E+00 0.  1.
         23    2    1    2    0    0  0.00000000000E+00  0.00000000000E+00  0.74755988324E+02  0.11386916698E+03  0.85893709889E+02 0.  0.
        -11    1    3    3    0    0  0.37246473676E+02  0.11694215397E+02  0.61106808620E+02  0.72512733604E+02  0.00000000000E+00 0. -1.
         11    1    3    3    0    0 -0.37246473676E+02 -0.11694215397E+02  0.13649179704E+02  0.41356433376E+02  0.00000000000E+00 0.  1.
<mgrwt>
<rscale>  0 0.85893710E+02</rscale>
<asrwt>0</asrwt>
<pdfrwt beam="1">  1        3 0.14509627E-01 0.85893710E+02</pdfrwt>
<pdfrwt beam="2">  1       -3 0.30087061E-02 0.85893710E+02</pdfrwt>
<totfact> 0.39568779E+04</totfact>
</mgrwt>
</event>
<event>
 5    1  0.1270889E+001  0.9289026E+02  0.7546771E-02  0.1296000E+00
          2   -1    0    0  501    0  0.00000000000E+00  0.00000000000E+00  0.32289396260E+02  0.32289396260E+02  0.00000000000E+00 0. -1.
         -2   -1    0    0    0  501 -0.00000000000E+00 -0.00000000000E+00 -0.66806768571E+02  0.66806768571E+02  0.00000000000E+00 0.  1.
         23    2    1    2    0    0  0.00000000000E+00  0.00000000000E+00 -0.34517372312E+02  0.99096164831E+02  0.92890262638E+02 0.  0.
        -13    1    3    3    0    0 -0.27228987170E+02 -0.21408103881E+02 -0.50268202948E+02  0.61046022652E+02  0.00000000000E+00 0.  1.
         13    1    3    3    0    0  0.27228987170E+02  0.21408103881E+02  0.15750830636E+02  0.38050142179E+02  0.00000000000E+00 0. -1.
<mgrwt>
<rscale>  0 0.92890263E+02</rscale>
<asrwt>0</asrwt>
<pdfrwt beam="1">  1        2 0.49675994E-02 0.92890263E+02</pdfrwt>
<pdfrwt beam="2">  1       -2 0.10277964E-01 0.92890263E+02</pdfrwt>
<totfact> 0.85376071E+04</totfact>
</mgrwt>
</event>
<event>
 5    1  0.1270889E+001  0.9075866E+02  0.7546771E-02  0.1301025E+00
         -1   -1    0    0    0  501 -0.00000000000E+00  0.00000000000E+00  0.34726410415E+03  0.34726410415E+03  0.00000000000E+00 0.  1.
          1   -1    0    0  501    0  0.00000000000E+00 -0.00000000000E+00 -0.59300219715E+01  0.59300219715E+01  0.00000000000E+00 0. -1.
         23    2    1    2    0    0  0.00000000000E+00  0.00000000000E+00  0.34133408218E+03  0.35319412612E+03  0.90758663885E+02 0.  0.
        -13    1    3    3    0    0  0.35786016596E+02 -0.24048318142E+02  0.22574666669E+03  0.22982714834E+03  0.00000000000E+00 0.  1.
         13    1    3    3    0    0 -0.35786016596E+02  0.24048318142E+02  0.11558741549E+03  0.12336697779E+03  0.00000000000E+00 0. -1.
<mgrwt>
<rscale>  0 0.90758664E+02</rscale>
<asrwt>0</asrwt>
<pdfrwt beam="2">  1        1 0.91231134E-03 0.90758664E+02</pdfrwt>
<pdfrwt beam="1">  1       -1 0.53425231E-01 0.90758664E+02</pdfrwt>
<totfact> 0.57676067E+04</totfact>
</mgrwt>
</event>
<event>
 5    1  0.1270889E+001  0.9134913E+02  0.7546771E-02  0.1299617E+00
          1   -1    0    0  501    0  0.00000000000E+00  0.00000000000E+00  0.18729167400E+03  0.18729167400E+03  0.00000000000E+00 0. -1.
         -1   -1    0    0    0  501 -0.00000000000E+00 -0.00000000000E+00 -0.11138594264E+02  0.11138594264E+02  0.00000000000E+00 0.  1.
         23    2    1    2    0    0  0.00000000000E+00  0.00000000000E+00  0.17615307973E+03  0.19843026826E+03  0.91349131703E+02 0.  0.
        -11    1    3    3    0    0 -0.41177303171E+02  0.16960072923E+02  0.66036111187E+02  0.79649120213E+02  0.00000000000E+00 0.  1.
         11    1    3    3    0    0  0.41177303171E+02 -0.16960072923E+02  0.11011696854E+03  0.11878114805E+03  0.00000000000E+00 0. -1.
<mgrwt>
<rscale>  0 0.91349132E+02</rscale>
<asrwt>0</asrwt>
<pdfrwt beam="1">  1        1 0.28814101E-01 0.91349132E+02</pdfrwt>
<pdfrwt beam="2">  1       -1 0.17136300E-02 0.91349132E+02</pdfrwt>
<totfact> 0.11632183E+05</totfact>
</mgrwt>
</event>
<event>
 5    1  0.1270889E+001  0.9042724E+02  0.7546771E-02  0.1301820E+00
         -1   -1    0    0    0  501 -0.00000000000E+00  0.00000000000E+00  0.73847106513E+01  0.73847106513E+01  0.00000000000E+00 0.  1.
          1   -1    0    0  501    0  0.00000000000E+00 -0.00000000000E+00 -0.27682484681E+03  0.27682484681E+03  0.00000000000E+00 0. -1.
         23    2    1    2    0    0  0.00000000000E+00  0.00000000000E+00 -0.26944013616E+03  0.28420955746E+03  0.90427239143E+02 0.  0.
        -11    1    3    3    0    0  0.71921504909E+01  0.44637835195E+02 -0.13500180123E+03  0.14237187115E+03  0.00000000000E+00 0. -1.
         11    1    3    3    0    0 -0.71921504909E+01 -0.44637835195E+02 -0.13443833492E+03  0.14183768631E+03  0.00000000000E+00 0.  1.
<mgrwt>
<rscale>  0 0.90427239E+02</rscale>
<asrwt>0</asrwt>
<pdfrwt beam="2">  1        1 0.42588442E-01 0.90427239E+02</pdfrwt>
<pdfrwt beam="1">  1       -1 0.11361092E-02 0.90427239E+02</pdfrwt>
<totfact> 0.12896010E+05</totfact>
</mgrwt>
</event>
<event>
 5    1  0.1270889E+001  0.9308460E+02  0.7546771E-02  0.1295549E+00
         -1   -1    0    0    0  501 -0.00000000000E+00  0.00000000000E+00  0.63320030201E+02  0.63320030201E+02  0.00000000000E+00 0.  1.
          1   -1    0    0  501    0  0.00000000000E+00 -0.00000000000E+00 -0.34210119547E+02  0.34210119547E+02  0.00000000000E+00 0. -1.
         23    2    1    2    0    0  0.00000000000E+00  0.00000000000E+00  0.29109910655E+02  0.97530149748E+02  0.93084602440E+02 0.  0.
        -11    1    3    3    0    0  0.28235665788E+02 -0.60390510857E+01 -0.23691271489E+02  0.37349689494E+02  0.00000000000E+00 0. -1.
         11    1    3    3    0    0 -0.28235665788E+02  0.60390510857E+01  0.52801182144E+02  0.60180460253E+02  0.00000000000E+00 0.  1.
<mgrwt>
<rscale>  0 0.93084602E+02</rscale>
<asrwt>0</asrwt>
<pdfrwt beam="2">  1        1 0.52630953E-02 0.93084602E+02</pdfrwt>
<pdfrwt beam="1">  1       -1 0.97415431E-02 0.93084602E+02</pdfrwt>
<totfact> 0.83424249E+04</totfact>
</mgrwt>
</event>
<event>
 5    1  0.1270889E+001  0.9166527E+02  0.7546771E-02  0.1298868E+00
         -2   -1    0    0    0  501 -0.00000000000E+00  0.00000000000E+00  0.14281417286E+03  0.14281417286E+03  0.00000000000E+00 0.  1.
          2   -1    0    0  501    0  0.00000000000E+00 -0.00000000000E+00 -0.14708836202E+02  0.14708836202E+02  0.00000000000E+00 0. -1.
         23    2    1    2    0    0  0.00000000000E+00  0.00000000000E+00  0.12810533666E+03  0.15752300906E+03  0.91665266616E+02 0.  0.
        -11    1    3    3    0    0 -0.44546220811E+02 -0.79455885029E+01  0.76578821787E+02  0.88948378915E+02  0.00000000000E+00 0.  1.
         11    1    3    3    0    0  0.44546220811E+02  0.79455885029E+01  0.51526514870E+02  0.68574630148E+02  0.00000000000E+00 0. -1.
<mgrwt>
<rscale>  0 0.91665267E+02</rscale>
<asrwt>0</asrwt>
<pdfrwt beam="2">  1        2 0.22628980E-02 0.91665267E+02</pdfrwt>
<pdfrwt beam="1">  1       -2 0.21971410E-01 0.91665267E+02</pdfrwt>
<totfact> 0.70144766E+04</totfact>
</mgrwt>
</event>
<event>
 5    1  0.1270889E+001  0.9725929E+02  0.7546771E-02  0.1286167E+00
          1   -1    0    0  501    0  0.00000000000E+00  0.00000000000E+00  0.53013502296E+02  0.53013502296E+02  0.00000000000E+00 0. -1.
         -1   -1    0    0    0  501 -0.00000000000E+00 -0.00000000000E+00 -0.44608304935E+02  0.44608304935E+02  0.00000000000E+00 0.  1.
         23    2    1    2    0    0  0.00000000000E+00  0.00000000000E+00  0.84051973614E+01  0.97621807231E+02  0.97259292124E+02 0.  0.
        -11    1    3    3    0    0 -0.13054510313E+02 -0.45839631688E+02 -0.54848208680E+01  0.47976820786E+02  0.00000000000E+00 0.  1.
         11    1    3    3    0    0  0.13054510313E+02  0.45839631688E+02  0.13890018229E+02  0.49644986446E+02  0.00000000000E+00 0. -1.
<mgrwt>
<rscale>  0 0.97259292E+02</rscale>
<asrwt>0</asrwt>
<pdfrwt beam="1">  1        1 0.81559234E-02 0.97259292E+02</pdfrwt>
<pdfrwt beam="2">  1       -1 0.68628161E-02 0.97259292E+02</pdfrwt>
<totfact> 0.78920807E+04</totfact>
</mgrwt>
</event>
<event>
 5    1  0.1270889E+001  0.9008540E+02  0.7546771E-02  0.1302645E+00
         -4   -1    0    0    0  501 -0.00000000000E+00  0.00000000000E+00  0.24833842647E+02  0.24833842647E+02  0.00000000000E+00 0. -1.
          4   -1    0    0  501    0  0.00000000000E+00 -0.00000000000E+00 -0.81696776182E+02  0.81696776182E+02  0.00000000000E+00 0.  1.
         23    2    1    2    0    0  0.00000000000E+00  0.00000000000E+00 -0.56862933535E+02  0.10653061883E+03  0.90085401359E+02 0.  0.
        -13    1    3    3    0    0 -0.14543172207E+02 -0.21156687770E+02  0.15334689030E+02  0.29904213464E+02  0.00000000000E+00 0. -1.
         13    1    3    3    0    0  0.14543172207E+02  0.21156687770E+02 -0.72197622565E+02  0.76626405366E+02  0.00000000000E+00 0.  1.
<mgrwt>
<rscale>  0 0.90085401E+02</rscale>
<asrwt>0</asrwt>
<pdfrwt beam="2">  1        4 0.12568735E-01 0.90085401E+02</pdfrwt>
<pdfrwt beam="1">  1       -4 0.38205912E-02 0.90085401E+02</pdfrwt>
<totfact> 0.26921338E+04</totfact>
</mgrwt>
</event>
<event>
 5    1  0.1270889E+001  0.9146313E+02  0.7546771E-02  0.1299347E+00
          2   -1    0    0  501    0  0.00000000000E+00  0.00000000000E+00  0.35117716112E+02  0.35117716112E+02  0.00000000000E+00 0.  1.
         -2   -1    0    0    0  501 -0.00000000000E+00 -0.00000000000E+00 -0.59553306644E+02  0.59553306644E+02  0.00000000000E+00 0. -1.
         23    2    1    2    0    0  0.00000000000E+00  0.00000000000E+00 -0.24435590531E+02  0.94671022756E+02  0.91463131726E+02 0.  0.
        -13    1    3    3    0    0 -0.10975325236E+02  0.13385170310E+02 -0.56031540907E+02  0.58644301723E+02  0.00000000000E+00 0. -1.
         13    1    3    3    0    0  0.10975325236E+02 -0.13385170310E+02  0.31595950375E+02  0.36026721033E+02  0.00000000000E+00 0.  1.
<mgrwt>
<rscale>  0 0.91463132E+02</rscale>
<asrwt>0</asrwt>
<pdfrwt beam="1">  1        2 0.54027256E-02 0.91463132E+02</pdfrwt>
<pdfrwt beam="2">  1       -2 0.91620471E-02 0.91463132E+02</pdfrwt>
<totfact> 0.91374958E+04</totfact>
</mgrwt>
</event>
<event>
 5    1  0.1270889E+001  0.8769854E+02  0.7546771E-02  0.1308523E+00
          2   -1    0    0  501    0  0.00000000000E+00  0.00000000000E+00  0.36917572706E+02  0.36917572706E+02  0.00000000000E+00 0. -1.
         -2   -1    0    0    0  501 -0.00000000000E+00 -0.00000000000E+00 -0.52082470345E+02  0.52082470345E+02  0.00000000000E+00 0.  1.
         23    2    1    2    0    0  0.00000000000E+00  0.00000000000E+00 -0.15164897640E+02  0.89000043051E+02  0.87698537860E+02 0.  0.
        -13    1    3    3    0    0  0.37227585777E+02 -0.12044227044E+02  0.12505292097E+02  0.41077230655E+02  0.00000000000E+00 0. -1.
         13    1    3    3    0    0 -0.37227585777E+02  0.12044227044E+02 -0.27670189737E+02  0.47922812396E+02  0.00000000000E+00 0.  1.
<mgrwt>
<rscale>  0 0.87698538E+02</rscale>
<asrwt>0</asrwt>
<pdfrwt beam="1">  1        2 0.56796266E-02 0.87698538E+02</pdfrwt>
<pdfrwt beam="2">  1       -2 0.80126877E-02 0.87698538E+02</pdfrwt>
<totfact> 0.10458040E+05</totfact>
</mgrwt>
</event>
<event>
 5    1  0.1270889E+001  0.9149677E+02  0.7546771E-02  0.1299267E+00
         -1   -1    0    0    0  501 -0.00000000000E+00  0.00000000000E+00  0.46743815422E+02  0.46743815422E+02  0.00000000000E+00 0. -1.
          1   -1    0    0  501    0  0.00000000000E+00 -0.00000000000E+00 -0.44774152596E+02  0.44774152596E+02  0.00000000000E+00 0.  1.
         23    2    1    2    0    0  0.00000000000E+00  0.00000000000E+00  0.19696628255E+01  0.91517968018E+02  0.91496769880E+02 0.  0.
        -11    1    3    3    0    0 -0.83358236032E+01 -0.44655443399E+02 -0.44312309762E+01  0.45642418738E+02  0.00000000000E+00 0.  1.
         11    1    3    3    0    0  0.83358236032E+01  0.44655443399E+02  0.64008938017E+01  0.45875549280E+02  0.00000000000E+00 0. -1.
<mgrwt>
<rscale>  0 0.91496770E+02</rscale>
<asrwt>0</asrwt>
<pdfrwt beam="2">  1        1 0.68883312E-02 0.91496770E+02</pdfrwt>
<pdfrwt beam="1">  1       -1 0.71913562E-02 0.91496770E+02</pdfrwt>
<totfact> 0.91317727E+04</totfact>
</mgrwt>
</event>
<event>
 5    1  0.1270889E+001  0.9058008E+02  0.7546771E-02  0.1301453E+00
         -3   -1    0    0    0  501 -0.00000000000E+00  0.00000000000E+00  0.24888915478E+02  0.24888915478E+02  0.00000000000E+00 0.  1.
          3   -1    0    0  501    0  0.00000000000E+00 -0.00000000000E+00 -0.82413701217E+02  0.82413701217E+02  0.00000000000E+00 0. -1.
         23    2    1    2    0    0  0.00000000000E+00  0.00000000000E+00 -0.57524785740E+02  0.10730261669E+03  0.90580078247E+02 0.  0.
        -13    1    3    3    0    0  0.20079009175E+02  0.40563446715E+02 -0.26842063011E+02  0.52621822142E+02  0.00000000000E+00 0. -1.
         13    1    3    3    0    0 -0.20079009175E+02 -0.40563446715E+02 -0.30682722729E+02  0.54680794553E+02  0.00000000000E+00 0.  1.
<mgrwt>
<rscale>  0 0.90580078E+02</rscale>
<asrwt>0</asrwt>
<pdfrwt beam="2">  1        3 0.12679031E-01 0.90580078E+02</pdfrwt>
<pdfrwt beam="1">  1       -3 0.38290639E-02 0.90580078E+02</pdfrwt>
<totfact> 0.34752148E+04</totfact>
</mgrwt>
</event>
<event>
 5    1  0.1270889E+001  0.9088561E+02  0.7546771E-02  0.1300721E+00
         -2   -1    0    0    0  501 -0.00000000000E+00  0.00000000000E+00  0.32982426273E+02  0.32982426273E+02  0.00000000000E+00 0.  1.
          2   -1    0    0  501    0  0.00000000000E+00 -0.00000000000E+00 -0.62610570124E+02  0.62610570124E+02  0.00000000000E+00 0. -1.
         23    2    1    2    0    0  0.00000000000E+00  0.00000000000E+00 -0.29628143850E+02  0.95592996397E+02  0.90885609709E+02 0.  0.
        -13    1    3    3    0    0  0.22203921672E+02 -0.51017390913E+01  0.26541747126E+02  0.34978653774E+02  0.00000000000E+00 0.  1.
         13    1    3    3    0    0 -0.22203921672E+02  0.51017390913E+01 -0.56169890976E+02  0.60614342623E+02  0.00000000000E+00 0. -1.
<mgrwt>
<rscale>  0 0.90885610E+02</rscale>
<asrwt>0</asrwt>
<pdfrwt beam="2">  1        2 0.96323953E-02 0.90885610E+02</pdfrwt>
<pdfrwt beam="1">  1       -2 0.50742195E-02 0.90885610E+02</pdfrwt>
<totfact> 0.10826327E+05</totfact>
</mgrwt>
</event>
<event>
 5    1  0.1270889E+001  0.9330130E+02  0.7546771E-02  0.1295048E+00
          2   -1    0    0  501    0  0.00000000000E+00  0.00000000000E+00  0.21593384668E+02  0.21593384668E+02  0.00000000000E+00 0. -1.
         -2   -1    0    0    0  501 -0.00000000000E+00 -0.00000000000E+00 -0.10078471519E+03  0.10078471519E+03  0.00000000000E+00 0.  1.
         23    2    1    2    0    0  0.00000000000E+00  0.00000000000E+00 -0.79191330519E+02  0.12237809985E+03  0.93301299534E+02 0.  0.
        -13    1    3    3    0    0  0.20039125547E+02  0.28594175696E+02 -0.80173823483E+02  0.87447329338E+02  0.00000000000E+00 0.  1.
         13    1    3    3    0    0 -0.20039125547E+02 -0.28594175696E+02  0.98249296457E+00  0.34930770516E+02  0.00000000000E+00 0. -1.
<mgrwt>
<rscale>  0 0.93301300E+02</rscale>
<asrwt>0</asrwt>
<pdfrwt beam="1">  1        2 0.33220592E-02 0.93301300E+02</pdfrwt>
<pdfrwt beam="2">  1       -2 0.15505341E-01 0.93301300E+02</pdfrwt>
<totfact> 0.75180116E+04</totfact>
</mgrwt>
</event>
<event>
 5    1  0.1270889E+001  0.9133936E+02  0.7546771E-02  0.1299640E+00
         -2   -1    0    0    0  501 -0.00000000000E+00  0.00000000000E+00  0.13474637078E+02  0.13474637078E+02  0.00000000000E+00 0.  1.
          2   -1    0    0  501    0  0.00000000000E+00 -0.00000000000E+00 -0.15478855324E+03  0.15478855324E+03  0.00000000000E+00 0. -1.
         23    2    1    2    0    0  0.00000000000E+00  0.00000000000E+00 -0.14131391616E+03  0.16826319032E+03  0.91339357972E+02 0.  0.
        -13    1    3    3    0    0 -0.14375561773E+02 -0.40686872984E+02 -0.98206034350E+02  0.10726837182E+03  0.00000000000E+00 0. -1.
         13    1    3    3    0    0  0.14375561773E+02  0.40686872984E+02 -0.43107881812E+02  0.60994818500E+02  0.00000000000E+00 0.  1.
<mgrwt>
<rscale>  0 0.91339358E+02</rscale>
<asrwt>0</asrwt>
<pdfrwt beam="2">  1        2 0.23813623E-01 0.91339358E+02</pdfrwt>
<pdfrwt beam="1">  1       -2 0.20730211E-02 0.91339358E+02</pdfrwt>
<totfact> 0.14063628E+05</totfact>
</mgrwt>
</event>
<event>
 5    1  0.1270889E+001  0.1041017E+03  0.7546771E-02  0.1271900E+00
          2   -1    0    0  501    0  0.00000000000E+00  0.00000000000E+00  0.43984592343E+03  0.43984592343E+03  0.00000000000E+00 0. -1.
         -2   -1    0    0    0  501 -0.00000000000E+00 -0.00000000000E+00 -0.61596418801E+01  0.61596418801E+01  0.00000000000E+00 0.  1.
         23    2    1    2    0    0  0.00000000000E+00  0.00000000000E+00  0.43368628155E+03  0.44600556531E+03  0.10410174582E+03 0.  0.
        -11    1    3    3    0    0  0.21491615975E+02 -0.47019328959E+02  0.24275763895E+03  0.24820148694E+03  0.00000000000E+00 0.  1.
         11    1    3    3    0    0 -0.21491615975E+02  0.47019328959E+02  0.19092864260E+03  0.19780407837E+03  0.00000000000E+00 0. -1.
<mgrwt>
<rscale>  0 0.10410175E+03</rscale>
<asrwt>0</asrwt>
<pdfrwt beam="1">  1        2 0.67668579E-01 0.10410175E+03</pdfrwt>
<pdfrwt beam="2">  1       -2 0.94763756E-03 0.10410175E+03</pdfrwt>
<totfact> 0.14487461E+05</totfact>
</mgrwt>
</event>
<event>
 5    1  0.1270889E+001  0.8929325E+02  0.7546771E-02  0.1304572E+00
         -1   -1    0    0    0  501 -0.00000000000E+00  0.00000000000E+00  0.97344945117E+02  0.97344945117E+02  0.00000000000E+00 0.  1.
          1   -1    0    0  501    0  0.00000000000E+00 -0.00000000000E+00 -0.20476883897E+02  0.20476883897E+02  0.00000000000E+00 0. -1.
         23    2    1    2    0    0  0.00000000000E+00  0.00000000000E+00  0.76868061220E+02  0.11782182901E+03  0.89293250342E+02 0.  0.
        -13    1    3    3    0    0 -0.26169757361E+02  0.87446405008E+01 -0.78799183527E+01  0.28695261823E+02  0.00000000000E+00 0. -1.
         13    1    3    3    0    0  0.26169757361E+02 -0.87446405008E+01  0.84747979573E+02  0.89126567192E+02  0.00000000000E+00 0.  1.
<mgrwt>
<rscale>  0 0.89293250E+02</rscale>
<asrwt>0</asrwt>
<pdfrwt beam="2">  1        1 0.31502899E-02 0.89293250E+02</pdfrwt>
<pdfrwt beam="1">  1       -1 0.14976145E-01 0.89293250E+02</pdfrwt>
<totfact> 0.86283984E+04</totfact>
</mgrwt>
</event>
<event>
 5    1  0.1270889E+001  0.9096405E+02  0.7546771E-02  0.1300534E+00
         -4   -1    0    0    0  501 -0.00000000000E+00  0.00000000000E+00  0.14490184259E+02  0.14490184259E+02  0.00000000000E+00 0.  1.
          4   -1    0    0  501    0  0.00000000000E+00 -0.00000000000E+00 -0.14275973011E+03  0.14275973011E+03  0.00000000000E+00 0. -1.
         23    2    1    2    0    0  0.00000000000E+00  0.00000000000E+00 -0.12826954585E+03  0.15724991437E+03  0.90964054308E+02 0.  0.
        -13    1    3    3    0    0 -0.24638274425E+02  0.34957933708E+01  0.16775461652E+01  0.24941517578E+02  0.00000000000E+00 0.  1.
         13    1    3    3    0    0  0.24638274425E+02 -0.34957933708E+01 -0.12994709202E+03  0.13230839679E+03  0.00000000000E+00 0. -1.
<mgrwt>
<rscale>  0 0.90964054E+02</rscale>
<asrwt>0</asrwt>
<pdfrwt beam="2">  1        4 0.21963035E-01 0.90964054E+02</pdfrwt>
<pdfrwt beam="1">  1       -4 0.22292591E-02 0.90964054E+02</pdfrwt>
<totfact> 0.23461427E+04</totfact>
</mgrwt>
</event>
<event>
 5    1  0.1270889E+001  0.9113042E+02  0.7546771E-02  0.1300137E+00
         -2   -1    0    0    0  501 -0.00000000000E+00  0.00000000000E+00  0.49983313154E+02  0.49983313154E+02  0.00000000000E+00 0.  1.
          2   -1    0    0  501    0  0.00000000000E+00 -0.00000000000E+00 -0.41537631669E+02  0.41537631669E+02  0.00000000000E+00 0. -1.
         23    2    1    2    0    0  0.00000000000E+00  0.00000000000E+00  0.84456814850E+01  0.91520944823E+02  0.91130421954E+02 0.  0.
        -11    1    3    3    0    0 -0.12368141855E+01  0.19067114903E+02 -0.37319914867E+02  0.41926848507E+02  0.00000000000E+00 0. -1.
         11    1    3    3    0    0  0.12368141855E+01 -0.19067114903E+02  0.45765596352E+02  0.49594096317E+02  0.00000000000E+00 0.  1.
<mgrwt>
<rscale>  0 0.91130422E+02</rscale>
<asrwt>0</asrwt>
<pdfrwt beam="2">  1        2 0.63904049E-02 0.91130422E+02</pdfrwt>
<pdfrwt beam="1">  1       -2 0.76897405E-02 0.91130422E+02</pdfrwt>
<totfact> 0.96466095E+04</totfact>
</mgrwt>
</event>
<event>
 5    1  0.1270889E+001  0.9112950E+02  0.7546771E-02  0.1300139E+00
          1   -1    0    0  501    0  0.00000000000E+00  0.00000000000E+00  0.48306657254E+02  0.48306657254E+02  0.00000000000E+00 0. -1.
         -1   -1    0    0    0  501 -0.00000000000E+00 -0.00000000000E+00 -0.42978470069E+02  0.42978470069E+02  0.00000000000E+00 0.  1.
         23    2    1    2    0    0  0.00000000000E+00  0.00000000000E+00  0.53281871844E+01  0.91285127323E+02  0.91129495180E+02 0.  0.
        -13    1    3    3    0    0 -0.81253885743E+01  0.33634449081E+02 -0.27031907794E+02  0.43909248951E+02  0.00000000000E+00 0.  1.
         13    1    3    3    0    0  0.81253885743E+01 -0.33634449081E+02  0.32360094979E+02  0.47375878372E+02  0.00000000000E+00 0. -1.
<mgrwt>
<rscale>  0 0.91129495E+02</rscale>
<asrwt>0</asrwt>
<pdfrwt beam="1">  1        1 0.74317934E-02 0.91129495E+02</pdfrwt>
<pdfrwt beam="2">  1       -1 0.66120723E-02 0.91129495E+02</pdfrwt>
<totfact> 0.93416145E+04</totfact>
</mgrwt>
</event>
<event>
 5    1  0.1270889E+001  0.9160404E+02  0.7546771E-02  0.1299013E+00
         -1   -1    0    0    0  501 -0.00000000000E+00  0.00000000000E+00  0.25145938324E+02  0.25145938324E+02  0.00000000000E+00 0.  1.
          1   -1    0    0  501    0  0.00000000000E+00 -0.00000000000E+00 -0.83425995967E+02  0.83425995967E+02  0.00000000000E+00 0. -1.
         23    2    1    2    0    0  0.00000000000E+00  0.00000000000E+00 -0.58280057643E+02  0.10857193429E+03  0.91604038103E+02 0.  0.
        -11    1    3    3    0    0 -0.30700421429E+02 -0.10777226933E+02 -0.67347145243E+02  0.74795069815E+02  0.00000000000E+00 0. -1.
         11    1    3    3    0    0  0.30700421429E+02  0.10777226933E+02  0.90670876000E+01  0.33776864476E+02  0.00000000000E+00 0.  1.
<mgrwt>
<rscale>  0 0.91604038E+02</rscale>
<asrwt>0</asrwt>
<pdfrwt beam="2">  1        1 0.12834769E-01 0.91604038E+02</pdfrwt>
<pdfrwt beam="1">  1       -1 0.38686059E-02 0.91604038E+02</pdfrwt>
<totfact> 0.10012328E+05</totfact>
</mgrwt>
</event>
<event>
 5    1  0.1270889E+001  0.9367091E+02  0.7546771E-02  0.1294198E+00
         -1   -1    0    0    0  501 -0.00000000000E+00  0.00000000000E+00  0.22704821083E+02  0.22704821083E+02  0.00000000000E+00 0.  1.
          1   -1    0    0  501    0  0.00000000000E+00 -0.00000000000E+00 -0.96612073897E+02  0.96612073897E+02  0.00000000000E+00 0. -1.
         23    2    1    2    0    0  0.00000000000E+00  0.00000000000E+00 -0.73907252814E+02  0.11931689498E+03  0.93670910155E+02 0.  0.
        -11    1    3    3    0    0  0.12792067400E+02  0.31012260829E+02 -0.78584533627E+02  0.85445457664E+02  0.00000000000E+00 0. -1.
         11    1    3    3    0    0 -0.12792067400E+02 -0.31012260829E+02  0.46772808128E+01  0.33871437317E+02  0.00000000000E+00 0.  1.
<mgrwt>
<rscale>  0 0.93670910E+02</rscale>
<asrwt>0</asrwt>
<pdfrwt beam="2">  1        1 0.14863396E-01 0.93670910E+02</pdfrwt>
<pdfrwt beam="1">  1       -1 0.34930495E-02 0.93670910E+02</pdfrwt>
<totfact> 0.96465162E+04</totfact>
</mgrwt>
</event>
<event>
 5    1  0.1270889E+001  0.8983508E+02  0.7546771E-02  0.1303252E+00
         -1   -1    0    0    0  501 -0.00000000000E+00  0.00000000000E+00  0.26654024387E+02  0.26654024387E+02  0.00000000000E+00 0.  1.
          1   -1    0    0  501    0  0.00000000000E+00 -0.00000000000E+00 -0.75695345165E+02  0.75695345165E+02  0.00000000000E+00 0. -1.
         23    2    1    2    0    0  0.00000000000E+00  0.00000000000E+00 -0.49041320777E+02  0.10234936955E+03  0.89835083927E+02 0.  0.
        -11    1    3    3    0    0  0.18699487687E+02  0.37508051516E+02 -0.42928805647E+02  0.59995059152E+02  0.00000000000E+00 0. -1.
         11    1    3    3    0    0 -0.18699487687E+02 -0.37508051516E+02 -0.61125151301E+01  0.42354310401E+02  0.00000000000E+00 0.  1.
<mgrwt>
<rscale>  0 0.89835084E+02</rscale>
<asrwt>0</asrwt>
<pdfrwt beam="2">  1        1 0.11645437E-01 0.89835084E+02</pdfrwt>
<pdfrwt beam="1">  1       -1 0.41006192E-02 0.89835084E+02</pdfrwt>
<totfact> 0.10402124E+05</totfact>
</mgrwt>
</event>
<event>
 5    1  0.1270889E+001  0.9345140E+02  0.7546771E-02  0.1294702E+00
         -2   -1    0    0    0  501 -0.00000000000E+00  0.00000000000E+00  0.13844982518E+02  0.13844982518E+02  0.00000000000E+00 0.  1.
          2   -1    0    0  501    0  0.00000000000E+00 -0.00000000000E+00 -0.15769548196E+03  0.15769548196E+03  0.00000000000E+00 0. -1.
         23    2    1    2    0    0  0.00000000000E+00  0.00000000000E+00 -0.14385049944E+03  0.17154046447E+03  0.93451403217E+02 0.  0.
        -13    1    3    3    0    0  0.22246656134E+02  0.93341118289E+01  0.15279257144E+01  0.24173826958E+02  0.00000000000E+00 0.  1.
         13    1    3    3    0    0 -0.22246656134E+02 -0.93341118289E+01 -0.14537842515E+03  0.14736663752E+03  0.00000000000E+00 0. -1.
<mgrwt>
<rscale>  0 0.93451403E+02</rscale>
<asrwt>0</asrwt>
<pdfrwt beam="2">  1        2 0.24260843E-01 0.93451403E+02</pdfrwt>
<pdfrwt beam="1">  1       -2 0.21299974E-02 0.93451403E+02</pdfrwt>
<totfact> 0.13301504E+05</totfact>
</mgrwt>
</event>
<event>
 5    1  0.1270889E+001  0.9004696E+02  0.7546771E-02  0.1302738E+00
         -1   -1    0    0    0  501 -0.00000000000E+00  0.00000000000E+00  0.54758110441E+02  0.54758110441E+02  0.00000000000E+00 0.  1.
          1   -1    0    0  501    0  0.00000000000E+00 -0.00000000000E+00 -0.37019427178E+02  0.37019427178E+02  0.00000000000E+00 0. -1.
         23    2    1    2    0    0  0.00000000000E+00  0.00000000000E+00  0.17738683263E+02  0.91777537618E+02  0.90046962899E+02 0.  0.
        -11    1    3    3    0    0  0.11405557563E+02 -0.32726597692E+02  0.38161849257E+02  0.51550399402E+02  0.00000000000E+00 0.  1.
         11    1    3    3    0    0 -0.11405557563E+02  0.32726597692E+02 -0.20423165994E+02  0.40227138216E+02  0.00000000000E+00 0. -1.
<mgrwt>
<rscale>  0 0.90046963E+02</rscale>
<asrwt>0</asrwt>
<pdfrwt beam="2">  1        1 0.56952965E-02 0.90046963E+02</pdfrwt>
<pdfrwt beam="1">  1       -1 0.84243247E-02 0.90046963E+02</pdfrwt>
<totfact> 0.92816526E+04</totfact>
</mgrwt>
</event>
<event>
 5    1  0.1270889E+001  0.9194238E+02  0.7546771E-02  0.1298215E+00
          3   -1    0    0  501    0  0.00000000000E+00  0.00000000000E+00  0.10756808247E+03  0.10756808247E+03  0.00000000000E+00 0. -1.
         -3   -1    0    0    0  501 -0.00000000000E+00 -0.00000000000E+00 -0.19646629475E+02  0.19646629475E+02  0.00000000000E+00 0.  1.
         23    2    1    2    0    0  0.00000000000E+00  0.00000000000E+00  0.87921452995E+02  0.12721471195E+03  0.91942378904E+02 0.  0.
        -11    1    3    3    0    0 -0.19314716889E+02 -0.25917266504E+02  0.89190727788E+02  0.94867006461E+02  0.00000000000E+00 0.  1.
         11    1    3    3    0    0  0.19314716889E+02  0.25917266504E+02 -0.12692747929E+01  0.32347705484E+02  0.00000000000E+00 0. -1.
<mgrwt>
<rscale>  0 0.91942379E+02</rscale>
<asrwt>0</asrwt>
<pdfrwt beam="1">  1        3 0.16548935E-01 0.91942379E+02</pdfrwt>
<pdfrwt beam="2">  1       -3 0.30225585E-02 0.91942379E+02</pdfrwt>
<totfact> 0.32023428E+04</totfact>
</mgrwt>
</event>
<event>
 5    1  0.1270889E+001  0.8990226E+02  0.7546771E-02  0.1303089E+00
          1   -1    0    0  501    0  0.00000000000E+00  0.00000000000E+00  0.10226423472E+03  0.10226423472E+03  0.00000000000E+00 0. -1.
         -1   -1    0    0    0  501 -0.00000000000E+00 -0.00000000000E+00 -0.19758656965E+02  0.19758656965E+02  0.00000000000E+00 0.  1.
         23    2    1    2    0    0  0.00000000000E+00  0.00000000000E+00  0.82505577755E+02  0.12202289169E+03  0.89902256560E+02 0.  0.
        -11    1    3    3    0    0  0.39740458880E+02  0.12753697411E+02  0.18596183601E+02  0.45692219405E+02  0.00000000000E+00 0.  1.
         11    1    3    3    0    0 -0.39740458880E+02 -0.12753697411E+02  0.63909394154E+02  0.76330672280E+02  0.00000000000E+00 0. -1.
<mgrwt>
<rscale>  0 0.89902257E+02</rscale>
<asrwt>0</asrwt>
<pdfrwt beam="1">  1        1 0.15732959E-01 0.89902257E+02</pdfrwt>
<pdfrwt beam="2">  1       -1 0.30397934E-02 0.89902257E+02</pdfrwt>
<totfact> 0.10893457E+05</totfact>
</mgrwt>
</event>
<event>
 5    1  0.1270889E+001  0.9058407E+02  0.7546771E-02  0.1301443E+00
          3   -1    0    0  501    0  0.00000000000E+00  0.00000000000E+00  0.75967536931E+02  0.75967536931E+02  0.00000000000E+00 0.  1.
         -3   -1    0    0    0  501 -0.00000000000E+00 -0.00000000000E+00 -0.27003224107E+02  0.27003224107E+02  0.00000000000E+00 0. -1.
         23    2    1    2    0    0  0.00000000000E+00  0.00000000000E+00  0.48964312824E+02  0.10297076104E+03  0.90584069783E+02 0.  0.
        -13    1    3    3    0    0  0.10689160296E+02  0.19692470388E+02 -0.20261577224E+02  0.30208989546E+02  0.00000000000E+00 0. -1.
         13    1    3    3    0    0 -0.10689160296E+02 -0.19692470388E+02  0.69225890048E+02  0.72761771492E+02  0.00000000000E+00 0.  1.
<mgrwt>
<rscale>  0 0.90584070E+02</rscale>
<asrwt>0</asrwt>
<pdfrwt beam="1">  1        3 0.11687313E-01 0.90584070E+02</pdfrwt>
<pdfrwt beam="2">  1       -3 0.41543422E-02 0.90584070E+02</pdfrwt>
<totfact> 0.35068349E+04</totfact>
</mgrwt>
</event>
<event>
 5    1  0.1270889E+001  0.9120185E+02  0.7546771E-02  0.1299967E+00
         -1   -1    0    0    0  501 -0.00000000000E+00  0.00000000000E+00  0.73728947048E+02  0.73728947048E+02  0.00000000000E+00 0.  1.
          1   -1    0    0  501    0  0.00000000000E+00 -0.00000000000E+00 -0.28203908678E+02  0.28203908678E+02  0.00000000000E+00 0. -1.
         23    2    1    2    0    0  0.00000000000E+00  0.00000000000E+00  0.45525038370E+02  0.10193285573E+03  0.91201852820E+02 0.  0.
        -11    1    3    3    0    0 -0.15571689118E+02  0.31561200191E+02 -0.96469385623E+01  0.36491783775E+02  0.00000000000E+00 0. -1.
         11    1    3    3    0    0  0.15571689118E+02 -0.31561200191E+02  0.55171976933E+02  0.65441071951E+02  0.00000000000E+00 0.  1.
<mgrwt>
<rscale>  0 0.91201853E+02</rscale>
<asrwt>0</asrwt>
<pdfrwt beam="2">  1        1 0.43390629E-02 0.91201853E+02</pdfrwt>
<pdfrwt beam="1">  1       -1 0.11342915E-01 0.91201853E+02</pdfrwt>
<totfact> 0.85750040E+04</totfact>
</mgrwt>
</event>
<event>
 5    1  0.1270889E+001  0.9284295E+02  0.7546771E-02  0.1296110E+00
         -1   -1    0    0    0  501 -0.00000000000E+00  0.00000000000E+00  0.65479115282E+01  0.65479115282E+01  0.00000000000E+00 0.  1.
          1   -1    0    0  501    0  0.00000000000E+00 -0.00000000000E+00 -0.32910544923E+03  0.32910544923E+03  0.00000000000E+00 0. -1.
         23    2    1    2    0    0  0.00000000000E+00  0.00000000000E+00 -0.32255753770E+03  0.33565336076E+03  0.92842950513E+02 0.  0.
        -13    1    3    3    0    0 -0.15454643742E+02  0.37499579644E+02 -0.24291441524E+03  0.24627723732E+03  0.00000000000E+00 0. -1.
         13    1    3    3    0    0  0.15454643742E+02 -0.37499579644E+02 -0.79643122454E+02  0.89376123439E+02  0.00000000000E+00 0.  1.
<mgrwt>
<rscale>  0 0.92842951E+02</rscale>
<asrwt>0</asrwt>
<pdfrwt beam="2">  1        1 0.50631615E-01 0.92842951E+02</pdfrwt>
<pdfrwt beam="1">  1       -1 0.10073709E-02 0.92842951E+02</pdfrwt>
<totfact> 0.12422499E+05</totfact>
</mgrwt>
</event>
<event>
 5    1  0.1270889E+001  0.9129302E+02  0.7546771E-02  0.1299750E+00
         -1   -1    0    0    0  501 -0.00000000000E+00  0.00000000000E+00  0.80832924798E+02  0.80832924798E+02  0.00000000000E+00 0.  1.
          1   -1    0    0  501    0  0.00000000000E+00 -0.00000000000E+00 -0.25776671163E+02  0.25776671163E+02  0.00000000000E+00 0. -1.
         23    2    1    2    0    0  0.00000000000E+00  0.00000000000E+00  0.55056253635E+02  0.10660959596E+03  0.91293016637E+02 0.  0.
        -13    1    3    3    0    0  0.39607779347E+02 -0.21958661436E+02  0.20855985355E+02  0.49859112728E+02  0.00000000000E+00 0.  1.
         13    1    3    3    0    0 -0.39607779347E+02  0.21958661436E+02  0.34200268280E+02  0.56750483234E+02  0.00000000000E+00 0. -1.
<mgrwt>
<rscale>  0 0.91293017E+02</rscale>
<asrwt>0</asrwt>
<pdfrwt beam="2">  1        1 0.39656417E-02 0.91293017E+02</pdfrwt>
<pdfrwt beam="1">  1       -1 0.12435834E-01 0.91293017E+02</pdfrwt>
<totfact> 0.84226834E+04</totfact>
</mgrwt>
</event>
<event>
 5    1  0.1270889E+001  0.9042689E+02  0.7546771E-02  0.1301821E+00
          1   -1    0    0  501    0  0.00000000000E+00  0.00000000000E+00  0.44635475066E+02  0.44635475066E+02  0.00000000000E+00 0. -1.
         -1   -1    0    0    0  501 -0.00000000000E+00 -0.00000000000E+00 -0.45798899417E+02  0.45798899417E+02  0.00000000000E+00 0.  1.
         23    2    1    2    0    0  0.00000000000E+00  0.00000000000E+00 -0.11634243510E+01  0.90434374483E+02  0.90426890536E+02 0.  0.
        -13    1    3    3    0    0  0.12197230533E+02  0.20965471699E+02 -0.38741549696E+02  0.45708107696E+02  0.00000000000E+00 0.  1.
         13    1    3    3    0    0 -0.12197230533E+02 -0.20965471699E+02  0.37578125346E+02  0.44726266787E+02  0.00000000000E+00 0. -1.
<mgrwt>
<rscale>  0 0.90426891E+02</rscale>
<asrwt>0</asrwt>
<pdfrwt beam="1">  1        1 0.68669962E-02 0.90426891E+02</pdfrwt>
<pdfrwt beam="2">  1       -1 0.70459845E-02 0.90426891E+02</pdfrwt>
<totfact> 0.94340115E+04</totfact>
</mgrwt>
</event>
<event>
 5    1  0.1270889E+001  0.9186982E+02  0.7546771E-02  0.1298386E+00
          1   -1    0    0  501    0  0.00000000000E+00  0.00000000000E+00  0.11370381656E+03  0.11370381656E+03  0.00000000000E+00 0. -1.
         -1   -1    0    0    0  501 -0.00000000000E+00 -0.00000000000E+00 -0.18557123202E+02  0.18557123202E+02  0.00000000000E+00 0.  1.
         23    2    1    2    0    0  0.00000000000E+00  0.00000000000E+00  0.95146693358E+02  0.13226093976E+03  0.91869815119E+02 0.  0.
        -11    1    3    3    0    0  0.36929951226E+02 -0.70261354222E+01  0.85576664488E+02  0.93469531834E+02  0.00000000000E+00 0. -1.
         11    1    3    3    0    0 -0.36929951226E+02  0.70261354222E+01  0.95700288708E+01  0.38791407929E+02  0.00000000000E+00 0.  1.
<mgrwt>
<rscale>  0 0.91869815E+02</rscale>
<asrwt>0</asrwt>
<pdfrwt beam="1">  1        1 0.17492895E-01 0.91869815E+02</pdfrwt>
<pdfrwt beam="2">  1       -1 0.28549421E-02 0.91869815E+02</pdfrwt>
<totfact> 0.10456580E+05</totfact>
</mgrwt>
</event>
<event>
 5    1  0.1270889E+001  0.9034057E+02  0.7546771E-02  0.1302029E+00
          4   -1    0    0  501    0  0.00000000000E+00  0.00000000000E+00  0.28765696684E+03  0.28765696684E+03  0.00000000000E+00 0. -1.
         -4   -1    0    0    0  501 -0.00000000000E+00 -0.00000000000E+00 -0.70930135710E+01  0.70930135710E+01  0.00000000000E+00 0.  1.
         23    2    1    2    0    0  0.00000000000E+00  0.00000000000E+00  0.28056395327E+03  0.29474998041E+03  0.90340572714E+02 0.  0.
        -11    1    3    3    0    0  0.19072010174E+02 -0.39634921208E+02  0.17382329467E+03  0.17930199754E+03  0.00000000000E+00 0. -1.
         11    1    3    3    0    0 -0.19072010174E+02  0.39634921208E+02  0.10674065860E+03  0.11544798287E+03  0.00000000000E+00 0.  1.
<mgrwt>
<rscale>  0 0.90340573E+02</rscale>
<asrwt>0</asrwt>
<pdfrwt beam="1">  1        4 0.44254909E-01 0.90340573E+02</pdfrwt>
<pdfrwt beam="2">  1       -4 0.10912331E-02 0.90340573E+02</pdfrwt>
<totfact> 0.18426654E+04</totfact>
</mgrwt>
</event>
<event>
 5    1  0.1270889E+001  0.9483070E+02  0.7546771E-02  0.1291558E+00
         -1   -1    0    0    0  501 -0.00000000000E+00  0.00000000000E+00  0.15425695966E+02  0.15425695966E+02  0.00000000000E+00 0.  1.
          1   -1    0    0  501    0  0.00000000000E+00 -0.00000000000E+00 -0.14574483202E+03  0.14574483202E+03  0.00000000000E+00 0. -1.
         23    2    1    2    0    0  0.00000000000E+00  0.00000000000E+00 -0.13031913605E+03  0.16117052798E+03  0.94830701089E+02 0.  0.
        -13    1    3    3    0    0  0.38116410560E+02  0.21809552500E+02 -0.34771246183E+02  0.56013899126E+02  0.00000000000E+00 0.  1.
         13    1    3    3    0    0 -0.38116410560E+02 -0.21809552500E+02 -0.95547889870E+02  0.10515662886E+03  0.00000000000E+00 0. -1.
<mgrwt>
<rscale>  0 0.94830701E+02</rscale>
<asrwt>0</asrwt>
<pdfrwt beam="2">  1        1 0.22422281E-01 0.94830701E+02</pdfrwt>
<pdfrwt beam="1">  1       -1 0.23731841E-02 0.94830701E+02</pdfrwt>
<totfact> 0.10028436E+05</totfact>
</mgrwt>
</event>
<event>
 5    1  0.1270889E+001  0.9322130E+02  0.7546771E-02  0.1295233E+00
         -1   -1    0    0    0  501 -0.00000000000E+00  0.00000000000E+00  0.13445330311E+02  0.13445330311E+02  0.00000000000E+00 0.  1.
          1   -1    0    0  501    0  0.00000000000E+00 -0.00000000000E+00 -0.16158418585E+03  0.16158418585E+03  0.00000000000E+00 0. -1.
         23    2    1    2    0    0  0.00000000000E+00  0.00000000000E+00 -0.14813885554E+03  0.17502951616E+03  0.93221301253E+02 0.  0.
        -11    1    3    3    0    0  0.32930355433E+02  0.32977022610E+02 -0.75595261109E+02  0.88806170007E+02  0.00000000000E+00 0.  1.
         11    1    3    3    0    0 -0.32930355433E+02 -0.32977022610E+02 -0.72543594426E+02  0.86223346151E+02  0.00000000000E+00 0. -1.
<mgrwt>
<rscale>  0 0.93221301E+02</rscale>
<asrwt>0</asrwt>
<pdfrwt beam="2">  1        1 0.24859105E-01 0.93221301E+02</pdfrwt>
<pdfrwt beam="1">  1       -1 0.20685124E-02 0.93221301E+02</pdfrwt>
<totfact> 0.10708406E+05</totfact>
</mgrwt>
</event>
<event>
 5    1  0.1270889E+001  0.8669579E+02  0.7546771E-02  0.1311056E+00
         -2   -1    0    0    0  501 -0.00000000000E+00  0.00000000000E+00  0.19221459048E+02  0.19221459048E+02  0.00000000000E+00 0.  1.
          2   -1    0    0  501    0  0.00000000000E+00 -0.00000000000E+00 -0.97757414778E+02  0.97757414778E+02  0.00000000000E+00 0. -1.
         23    2    1    2    0    0  0.00000000000E+00  0.00000000000E+00 -0.78535955730E+02  0.11697887383E+03  0.86695793320E+02 0.  0.
        -11    1    3    3    0    0  0.40992297727E+02  0.14075188122E+02 -0.40278380612E+02  0.59167789703E+02  0.00000000000E+00 0. -1.
         11    1    3    3    0    0 -0.40992297727E+02 -0.14075188122E+02 -0.38257575118E+02  0.57811084124E+02  0.00000000000E+00 0.  1.
<mgrwt>
<rscale>  0 0.86695793E+02</rscale>
<asrwt>0</asrwt>
<pdfrwt beam="2">  1        2 0.15039602E-01 0.86695793E+02</pdfrwt>
<pdfrwt beam="1">  1       -2 0.29571476E-02 0.86695793E+02</pdfrwt>
<totfact> 0.13989699E+05</totfact>
</mgrwt>
</event>
<event>
 5    1  0.1270889E+001  0.8908092E+02  0.7546771E-02  0.1305093E+00
          4   -1    0    0  501    0  0.00000000000E+00  0.00000000000E+00  0.64373761997E+02  0.64373761997E+02  0.00000000000E+00 0. -1.
         -4   -1    0    0    0  501 -0.00000000000E+00 -0.00000000000E+00 -0.30817722653E+02  0.30817722653E+02  0.00000000000E+00 0.  1.
         23    2    1    2    0    0  0.00000000000E+00  0.00000000000E+00  0.33556039344E+02  0.95191484651E+02  0.89080923736E+02 0.  0.
        -13    1    3    3    0    0 -0.31010521570E+01 -0.22469420848E+02 -0.24183654044E+02  0.33156304388E+02  0.00000000000E+00 0.  1.
         13    1    3    3    0    0  0.31010521570E+01  0.22469420848E+02  0.57739693388E+02  0.62035180263E+02  0.00000000000E+00 0. -1.
<mgrwt>
<rscale>  0 0.89080924E+02</rscale>
<asrwt>0</asrwt>
<pdfrwt beam="1">  1        4 0.99036557E-02 0.89080924E+02</pdfrwt>
<pdfrwt beam="2">  1       -4 0.47411881E-02 0.89080924E+02</pdfrwt>
<totfact> 0.28495770E+04</totfact>
</mgrwt>
</event>
<event>
 5    1  0.1270889E+001  0.8982226E+02  0.7546771E-02  0.1303283E+00
         -2   -1    0    0    0  501 -0.00000000000E+00  0.00000000000E+00  0.96841253417E+02  0.96841253417E+02  0.00000000000E+00 0.  1.
          2   -1    0    0  501    0  0.00000000000E+00 -0.00000000000E+00 -0.20828000901E+02  0.20828000901E+02  0.00000000000E+00 0. -1.
         23    2    1    2    0    0  0.00000000000E+00  0.00000000000E+00  0.76013252516E+02  0.11766925432E+03  0.89822262572E+02 0.  0.
        -13    1    3    3    0    0  0.24933692056E+02  0.31023597732E+02  0.65261946069E+02  0.76441312263E+02  0.00000000000E+00 0.  1.
         13    1    3    3    0    0 -0.24933692056E+02 -0.31023597732E+02  0.10751306447E+02  0.41227942055E+02  0.00000000000E+00 0. -1.
<mgrwt>
<rscale>  0 0.89822263E+02</rscale>
<asrwt>0</asrwt>
<pdfrwt beam="2">  1        2 0.32043079E-02 0.89822263E+02</pdfrwt>
<pdfrwt beam="1">  1       -2 0.14898654E-01 0.89822263E+02</pdfrwt>
<totfact> 0.83619560E+04</totfact>
</mgrwt>
</event>
<event>
 5    1  0.1270889E+001  0.9434710E+02  0.7546771E-02  0.1292653E+00
          2   -1    0    0  501    0  0.00000000000E+00  0.00000000000E+00  0.49677130703E+02  0.49677130703E+02  0.00000000000E+00 0. -1.
         -2   -1    0    0    0  501 -0.00000000000E+00 -0.00000000000E+00 -0.44796146734E+02  0.44796146734E+02  0.00000000000E+00 0.  1.
         23    2    1    2    0    0  0.00000000000E+00  0.00000000000E+00  0.48809839689E+01  0.94473277438E+02  0.94347104594E+02 0.  0.
        -13    1    3    3    0    0  0.12234600819E+01 -0.46560068761E+02  0.99342946629E+01  0.47623807786E+02  0.00000000000E+00 0. -1.
         13    1    3    3    0    0 -0.12234600819E+01  0.46560068761E+02 -0.50533106940E+01  0.46849469651E+02  0.00000000000E+00 0.  1.
<mgrwt>
<rscale>  0 0.94347105E+02</rscale>
<asrwt>0</asrwt>
<pdfrwt beam="1">  1        2 0.76426355E-02 0.94347105E+02</pdfrwt>
<pdfrwt beam="2">  1       -2 0.68917149E-02 0.94347105E+02</pdfrwt>
<totfact> 0.91491205E+04</totfact>
</mgrwt>
</event>
<event>
 5    1  0.1270889E+001  0.9150200E+02  0.7546771E-02  0.1299255E+00
          2   -1    0    0  501    0  0.00000000000E+00  0.00000000000E+00  0.16677716873E+03  0.16677716873E+03  0.00000000000E+00 0. -1.
         -2   -1    0    0    0  501 -0.00000000000E+00 -0.00000000000E+00 -0.12550601496E+02  0.12550601496E+02  0.00000000000E+00 0.  1.
         23    2    1    2    0    0  0.00000000000E+00  0.00000000000E+00  0.15422656723E+03  0.17932777022E+03  0.91501995242E+02 0.  0.
        -13    1    3    3    0    0 -0.28776750468E+02  0.60996015142E+00  0.74173608987E+01  0.29723570808E+02  0.00000000000E+00 0.  1.
         13    1    3    3    0    0  0.28776750468E+02 -0.60996015142E+00  0.14680920633E+03  0.14960419941E+03  0.00000000000E+00 0. -1.
<mgrwt>
<rscale>  0 0.91501995E+02</rscale>
<asrwt>0</asrwt>
<pdfrwt beam="1">  1        2 0.25658024E-01 0.91501995E+02</pdfrwt>
<pdfrwt beam="2">  1       -2 0.19308619E-02 0.91501995E+02</pdfrwt>
<totfact> 0.14361549E+05</totfact>
</mgrwt>
</event>
<event>
 5    1  0.1270889E+001  0.9052629E+02  0.7546771E-02  0.1301582E+00
         -2   -1    0    0    0  501 -0.00000000000E+00  0.00000000000E+00  0.22668133260E+02  0.22668133260E+02  0.00000000000E+00 0.  1.
          2   -1    0    0  501    0  0.00000000000E+00 -0.00000000000E+00 -0.90380291675E+02  0.90380291675E+02  0.00000000000E+00 0. -1.
         23    2    1    2    0    0  0.00000000000E+00  0.00000000000E+00 -0.67712158415E+02  0.11304842493E+03  0.90526294429E+02 0.  0.
        -11    1    3    3    0    0  0.29571597472E+02 -0.33335951038E+02 -0.23945092047E+02  0.50587868524E+02  0.00000000000E+00 0.  1.
         11    1    3    3    0    0 -0.29571597472E+02  0.33335951038E+02 -0.43767066368E+02  0.62460556411E+02  0.00000000000E+00 0. -1.
<mgrwt>
<rscale>  0 0.90526294E+02</rscale>
<asrwt>0</asrwt>
<pdfrwt beam="2">  1        2 0.13904660E-01 0.90526294E+02</pdfrwt>
<pdfrwt beam="1">  1       -2 0.34874051E-02 0.90526294E+02</pdfrwt>
<totfact> 0.12138328E+05</totfact>
</mgrwt>
</event>
<event>
 5    1  0.1270889E+001  0.9165795E+02  0.7546771E-02  0.1298886E+00
         -2   -1    0    0    0  501 -0.00000000000E+00  0.00000000000E+00  0.56635029728E+01  0.56635029728E+01  0.00000000000E+00 0.  1.
          2   -1    0    0  501    0  0.00000000000E+00 -0.00000000000E+00 -0.37084733530E+03  0.37084733530E+03  0.00000000000E+00 0. -1.
         23    2    1    2    0    0  0.00000000000E+00  0.00000000000E+00 -0.36518383233E+03  0.37651083828E+03  0.91657950794E+02 0.  0.
        -11    1    3    3    0    0  0.39830572681E+02  0.20191903316E+02 -0.14027827557E+03  0.14721474816E+03  0.00000000000E+00 0.  1.
         11    1    3    3    0    0 -0.39830572681E+02 -0.20191903316E+02 -0.22490555676E+03  0.22929609012E+03  0.00000000000E+00 0. -1.
<mgrwt>
<rscale>  0 0.91657951E+02</rscale>
<asrwt>0</asrwt>
<pdfrwt beam="2">  1        2 0.57053434E-01 0.91657951E+02</pdfrwt>
<pdfrwt beam="1">  1       -2 0.87130818E-03 0.91657951E+02</pdfrwt>
<totfact> 0.19154535E+05</totfact>
</mgrwt>
</event>
<event>
 5    1  0.1270889E+001  0.9033524E+02  0.7546771E-02  0.1302042E+00
         -2   -1    0    0    0  501 -0.00000000000E+00  0.00000000000E+00  0.27970421425E+02  0.27970421425E+02  0.00000000000E+00 0.  1.
          2   -1    0    0  501    0  0.00000000000E+00 -0.00000000000E+00 -0.72938268482E+02  0.72938268482E+02  0.00000000000E+00 0. -1.
         23    2    1    2    0    0  0.00000000000E+00  0.00000000000E+00 -0.44967847056E+02  0.10090868991E+03  0.90335244671E+02 0.  0.
        -11    1    3    3    0    0 -0.15160124492E+02 -0.86405957990E+01 -0.69021018644E+02  0.71192628024E+02  0.00000000000E+00 0. -1.
         11    1    3    3    0    0  0.15160124492E+02  0.86405957990E+01  0.24053171588E+02  0.29716061883E+02  0.00000000000E+00 0.  1.
<mgrwt>
<rscale>  0 0.90335245E+02</rscale>
<asrwt>0</asrwt>
<pdfrwt beam="2">  1        2 0.11221272E-01 0.90335245E+02</pdfrwt>
<pdfrwt beam="1">  1       -2 0.43031419E-02 0.90335245E+02</pdfrwt>
<totfact> 0.11482350E+05</totfact>
</mgrwt>
</event>
<event>
 5    1  0.1270889E+001  0.8952385E+02  0.7546771E-02  0.1304009E+00
         -1   -1    0    0    0  501 -0.00000000000E+00  0.00000000000E+00  0.64527074686E+02  0.64527074686E+02  0.00000000000E+00 0.  1.
          1   -1    0    0  501    0  0.00000000000E+00 -0.00000000000E+00 -0.31050998085E+02  0.31050998085E+02  0.00000000000E+00 0. -1.
         23    2    1    2    0    0  0.00000000000E+00  0.00000000000E+00  0.33476076601E+02  0.95578072771E+02  0.89523853190E+02 0.  0.
        -11    1    3    3    0    0  0.64730607422E+01  0.22024289457E+02  0.57764096540E+02  0.62158351736E+02  0.00000000000E+00 0.  1.
         11    1    3    3    0    0 -0.64730607422E+01 -0.22024289457E+02 -0.24288019940E+02  0.33419721035E+02  0.00000000000E+00 0. -1.
<mgrwt>
<rscale>  0 0.89523853E+02</rscale>
<asrwt>0</asrwt>
<pdfrwt beam="2">  1        1 0.47770766E-02 0.89523853E+02</pdfrwt>
<pdfrwt beam="1">  1       -1 0.99272422E-02 0.89523853E+02</pdfrwt>
<totfact> 0.91843601E+04</totfact>
</mgrwt>
</event>
<event>
 5    1  0.1270889E+001  0.9248889E+02  0.7546771E-02  0.1296934E+00
         -1   -1    0    0    0  501 -0.00000000000E+00  0.00000000000E+00  0.21704364427E+02  0.21704364427E+02  0.00000000000E+00 0.  1.
          1   -1    0    0  501    0  0.00000000000E+00 -0.00000000000E+00 -0.98530807330E+02  0.98530807330E+02  0.00000000000E+00 0. -1.
         23    2    1    2    0    0  0.00000000000E+00  0.00000000000E+00 -0.76826442902E+02  0.12023517176E+03  0.92488886891E+02 0.  0.
        -13    1    3    3    0    0  0.96022047256E+00  0.15710532865E+02  0.18115013465E+02  0.23997845301E+02  0.00000000000E+00 0.  1.
         13    1    3    3    0    0 -0.96022047256E+00 -0.15710532865E+02 -0.94941456367E+02  0.96237326456E+02  0.00000000000E+00 0. -1.
<mgrwt>
<rscale>  0 0.92488887E+02</rscale>
<asrwt>0</asrwt>
<pdfrwt beam="2">  1        1 0.15158586E-01 0.92488887E+02</pdfrwt>
<pdfrwt beam="1">  1       -1 0.33391330E-02 0.92488887E+02</pdfrwt>
<totfact> 0.10020629E+05</totfact>
</mgrwt>
</event>
<event>
 5    1  0.1270889E+001  0.9143176E+02  0.7546771E-02  0.1299421E+00
         -2   -1    0    0    0  501 -0.00000000000E+00  0.00000000000E+00  0.28874706233E+02  0.28874706233E+02  0.00000000000E+00 0.  1.
          2   -1    0    0  501    0  0.00000000000E+00 -0.00000000000E+00 -0.72379676502E+02  0.72379676502E+02  0.00000000000E+00 0. -1.
         23    2    1    2    0    0  0.00000000000E+00  0.00000000000E+00 -0.43504970269E+02  0.10125438274E+03  0.91431764639E+02 0.  0.
        -11    1    3    3    0    0  0.29849912687E+02  0.20986390685E+02 -0.52252031532E+02  0.63731630143E+02  0.00000000000E+00 0. -1.
         11    1    3    3    0    0 -0.29849912687E+02 -0.20986390685E+02  0.87470612637E+01  0.37522752593E+02  0.00000000000E+00 0.  1.
<mgrwt>
<rscale>  0 0.91431765E+02</rscale>
<asrwt>0</asrwt>
<pdfrwt beam="2">  1        2 0.11135335E-01 0.91431765E+02</pdfrwt>
<pdfrwt beam="1">  1       -2 0.44422625E-02 0.91431765E+02</pdfrwt>
<totfact> 0.11078444E+05</totfact>
</mgrwt>
</event>
<event>
 5    1  0.1270889E+001  0.8720689E+02  0.7546771E-02  0.1309760E+00
          3   -1    0    0  501    0  0.00000000000E+00  0.00000000000E+00  0.71452570622E+02  0.71452570622E+02  0.00000000000E+00 0. -1.
         -3   -1    0    0    0  501 -0.00000000000E+00 -0.00000000000E+00 -0.26608707664E+02  0.26608707664E+02  0.00000000000E+00 0.  1.
         23    2    1    2    0    0  0.00000000000E+00  0.00000000000E+00  0.44843862958E+02  0.98061278285E+02  0.87206893386E+02 0.  0.
        -13    1    3    3    0    0  0.38494612758E+02 -0.15186618751E+02  0.37872287298E+02  0.56096156247E+02  0.00000000000E+00 0.  1.
         13    1    3    3    0    0 -0.38494612758E+02  0.15186618751E+02  0.69715756601E+01  0.41965122038E+02  0.00000000000E+00 0. -1.
<mgrwt>
<rscale>  0 0.87206893E+02</rscale>
<asrwt>0</asrwt>
<pdfrwt beam="1">  1        3 0.10992703E-01 0.87206893E+02</pdfrwt>
<pdfrwt beam="2">  1       -3 0.40936474E-02 0.87206893E+02</pdfrwt>
<totfact> 0.39281433E+04</totfact>
</mgrwt>
</event>
<event>
 5    1  0.1270889E+001  0.8750828E+02  0.7546771E-02  0.1309000E+00
          4   -1    0    0  501    0  0.00000000000E+00  0.00000000000E+00  0.55436468240E+02  0.55436468240E+02  0.00000000000E+00 0. -1.
         -4   -1    0    0    0  501 -0.00000000000E+00 -0.00000000000E+00 -0.34533668431E+02  0.34533668431E+02  0.00000000000E+00 0.  1.
         23    2    1    2    0    0  0.00000000000E+00  0.00000000000E+00  0.20902799809E+02  0.89970136671E+02  0.87508276481E+02 0.  0.
        -13    1    3    3    0    0  0.32348838290E+02 -0.28359977241E+02  0.18656452075E+02  0.46891351568E+02  0.00000000000E+00 0. -1.
         13    1    3    3    0    0 -0.32348838290E+02  0.28359977241E+02  0.22463477335E+01  0.43078785103E+02  0.00000000000E+00 0.  1.
<mgrwt>
<rscale>  0 0.87508276E+02</rscale>
<asrwt>0</asrwt>
<pdfrwt beam="1">  1        4 0.85286874E-02 0.87508276E+02</pdfrwt>
<pdfrwt beam="2">  1       -4 0.53128721E-02 0.87508276E+02</pdfrwt>
<totfact> 0.30274785E+04</totfact>
</mgrwt>
</event>
<event>
 5    1  0.1270889E+001  0.9047445E+02  0.7546771E-02  0.1301707E+00
         -1   -1    0    0    0  501 -0.00000000000E+00  0.00000000000E+00  0.41785133899E+02  0.41785133899E+02  0.00000000000E+00 0.  1.
          1   -1    0    0  501    0  0.00000000000E+00 -0.00000000000E+00 -0.48974516677E+02  0.48974516677E+02  0.00000000000E+00 0. -1.
         23    2    1    2    0    0  0.00000000000E+00  0.00000000000E+00 -0.71893827778E+01  0.90759650576E+02  0.90474454671E+02 0.  0.
        -11    1    3    3    0    0  0.20696105455E+01  0.13918458261E+02  0.39533854650E+02  0.41963465439E+02  0.00000000000E+00 0.  1.
         11    1    3    3    0    0 -0.20696105455E+01 -0.13918458261E+02 -0.46723237428E+02  0.48796185137E+02  0.00000000000E+00 0. -1.
<mgrwt>
<rscale>  0 0.90474455E+02</rscale>
<asrwt>0</asrwt>
<pdfrwt beam="2">  1        1 0.75345410E-02 0.90474455E+02</pdfrwt>
<pdfrwt beam="1">  1       -1 0.64284822E-02 0.90474455E+02</pdfrwt>
<totfact> 0.95514636E+04</totfact>
</mgrwt>
</event>
<event>
 5    1  0.1270889E+001  0.9147723E+02  0.7546771E-02  0.1299313E+00
          1   -1    0    0  501    0  0.00000000000E+00  0.00000000000E+00  0.39260902372E+02  0.39260902372E+02  0.00000000000E+00 0. -1.
         -1   -1    0    0    0  501 -0.00000000000E+00 -0.00000000000E+00 -0.53285096668E+02  0.53285096668E+02  0.00000000000E+00 0.  1.
         23    2    1    2    0    0  0.00000000000E+00  0.00000000000E+00 -0.14024194297E+02  0.92545999040E+02  0.91477231663E+02 0.  0.
        -13    1    3    3    0    0 -0.37544434114E+02  0.24323387273E+02 -0.16652823223E+02  0.47733931565E+02  0.00000000000E+00 0.  1.
         13    1    3    3    0    0  0.37544434114E+02 -0.24323387273E+02  0.26286289259E+01  0.44812067475E+02  0.00000000000E+00 0. -1.
<mgrwt>
<rscale>  0 0.91477232E+02</rscale>
<asrwt>0</asrwt>
<pdfrwt beam="1">  1        1 0.60401388E-02 0.91477232E+02</pdfrwt>
<pdfrwt beam="2">  1       -1 0.81977072E-02 0.91477232E+02</pdfrwt>
<totfact> 0.89568806E+04</totfact>
</mgrwt>
</event>
<event>
 5    1  0.1270889E+001  0.7654567E+02  0.7546771E-02  0.1339150E+00
         -2   -1    0    0    0  501 -0.00000000000E+00  0.00000000000E+00  0.14494577810E+03  0.14494577810E+03  0.00000000000E+00 0.  1.
          2   -1    0    0  501    0  0.00000000000E+00 -0.00000000000E+00 -0.10105914964E+02  0.10105914964E+02  0.00000000000E+00 0. -1.
         23    2    1    2    0    0  0.00000000000E+00  0.00000000000E+00  0.13483986313E+03  0.15505169306E+03  0.76545665008E+02 0.  0.
        -13    1    3    3    0    0  0.19734054443E+02 -0.12134978005E+02  0.12913024756E+03  0.13119188782E+03  0.00000000000E+00 0.  1.
         13    1    3    3    0    0 -0.19734054443E+02  0.12134978005E+02  0.57096155721E+01  0.23859805237E+02  0.00000000000E+00 0. -1.
<mgrwt>
<rscale>  0 0.76545665E+02</rscale>
<asrwt>0</asrwt>
<pdfrwt beam="2">  1        2 0.15547562E-02 0.76545665E+02</pdfrwt>
<pdfrwt beam="1">  1       -2 0.22299349E-01 0.76545665E+02</pdfrwt>
<totfact> 0.10997189E+05</totfact>
</mgrwt>
</event>
<event>
 5    1  0.1270889E+001  0.9204376E+02  0.7546771E-02  0.1297977E+00
          2   -1    0    0  501    0  0.00000000000E+00  0.00000000000E+00  0.10178178940E+02  0.10178178940E+02  0.00000000000E+00 0. -1.
         -2   -1    0    0    0  501 -0.00000000000E+00 -0.00000000000E+00 -0.20809354045E+03  0.20809354045E+03  0.00000000000E+00 0.  1.
         23    2    1    2    0    0  0.00000000000E+00  0.00000000000E+00 -0.19791536151E+03  0.21827171939E+03  0.92043756788E+02 0.  0.
        -13    1    3    3    0    0 -0.10100871502E+02  0.44265392699E+02 -0.11679216285E+03  0.12530707043E+03  0.00000000000E+00 0.  1.
         13    1    3    3    0    0  0.10100871502E+02 -0.44265392699E+02 -0.81123198659E+02  0.92964648961E+02  0.00000000000E+00 0. -1.
<mgrwt>
<rscale>  0 0.92043757E+02</rscale>
<asrwt>0</asrwt>
<pdfrwt beam="1">  1        2 0.15658737E-02 0.92043757E+02</pdfrwt>
<pdfrwt beam="2">  1       -2 0.32014390E-01 0.92043757E+02</pdfrwt>
<totfact> 0.59779617E+04</totfact>
</mgrwt>
</event>
<event>
 5    1  0.1270889E+001  0.8963689E+02  0.7546771E-02  0.1303733E+00
          2   -1    0    0  501    0  0.00000000000E+00  0.00000000000E+00  0.37601673529E+03  0.37601673529E+03  0.00000000000E+00 0. -1.
         -2   -1    0    0    0  501 -0.00000000000E+00 -0.00000000000E+00 -0.53420305772E+01  0.53420305772E+01  0.00000000000E+00 0.  1.
         23    2    1    2    0    0  0.00000000000E+00  0.00000000000E+00  0.37067470471E+03  0.38135876587E+03  0.89636887439E+02 0.  0.
        -11    1    3    3    0    0  0.33500163620E+02 -0.28105788074E+02  0.22713029950E+03  0.23130146830E+03  0.00000000000E+00 0. -1.
         11    1    3    3    0    0 -0.33500163620E+02  0.28105788074E+02  0.14354440521E+03  0.15005729757E+03  0.00000000000E+00 0.  1.
<mgrwt>
<rscale>  0 0.89636887E+02</rscale>
<asrwt>0</asrwt>
<pdfrwt beam="1">  1        2 0.57848708E-01 0.89636887E+02</pdfrwt>
<pdfrwt beam="2">  1       -2 0.82185115E-03 0.89636887E+02</pdfrwt>
<totfact> 0.20425259E+05</totfact>
</mgrwt>
</event>
<event>
 5    1  0.1270889E+001  0.9007905E+02  0.7546771E-02  0.1302660E+00
          3   -1    0    0  501    0  0.00000000000E+00  0.00000000000E+00  0.13160651912E+02  0.13160651912E+02  0.00000000000E+00 0. -1.
         -3   -1    0    0    0  501 -0.00000000000E+00 -0.00000000000E+00 -0.15413818361E+03  0.15413818361E+03  0.00000000000E+00 0.  1.
         23    2    1    2    0    0  0.00000000000E+00  0.00000000000E+00 -0.14097753170E+03  0.16729883552E+03  0.90079053742E+02 0.  0.
        -13    1    3    3    0    0  0.25136818078E+01 -0.36022955945E+02 -0.12048236233E+03  0.12577746851E+03  0.00000000000E+00 0.  1.
         13    1    3    3    0    0 -0.25136818078E+01  0.36022955945E+02 -0.20495169364E+02  0.41521367011E+02  0.00000000000E+00 0. -1.
<mgrwt>
<rscale>  0 0.90079054E+02</rscale>
<asrwt>0</asrwt>
<pdfrwt beam="1">  1        3 0.20247157E-02 0.90079054E+02</pdfrwt>
<pdfrwt beam="2">  1       -3 0.23713567E-01 0.90079054E+02</pdfrwt>
<totfact> 0.31288024E+04</totfact>
</mgrwt>
</event>
<event>
 5    1  0.1270889E+001  0.8108790E+02  0.7546771E-02  0.1325992E+00
         -1   -1    0    0    0  501 -0.00000000000E+00  0.00000000000E+00  0.21203467503E+02  0.21203467503E+02  0.00000000000E+00 0.  1.
          1   -1    0    0  501    0  0.00000000000E+00 -0.00000000000E+00 -0.77525625245E+02  0.77525625245E+02  0.00000000000E+00 0. -1.
         23    2    1    2    0    0  0.00000000000E+00  0.00000000000E+00 -0.56322157742E+02  0.98729092749E+02  0.81087904784E+02 0.  0.
        -11    1    3    3    0    0  0.33615927693E+02 -0.15281742914E+02 -0.48543779888E+02  0.60992301374E+02  0.00000000000E+00 0. -1.
         11    1    3    3    0    0 -0.33615927693E+02  0.15281742914E+02 -0.77783778541E+01  0.37736791374E+02  0.00000000000E+00 0.  1.
<mgrwt>
<rscale>  0 0.81087905E+02</rscale>
<asrwt>0</asrwt>
<pdfrwt beam="2">  1        1 0.11927019E-01 0.81087905E+02</pdfrwt>
<pdfrwt beam="1">  1       -1 0.32620719E-02 0.81087905E+02</pdfrwt>
<totfact> 0.13797543E+05</totfact>
</mgrwt>
</event>
<event>
 5    1  0.1270889E+001  0.9323853E+02  0.7546771E-02  0.1295193E+00
          1   -1    0    0  501    0  0.00000000000E+00  0.00000000000E+00  0.32143047232E+02  0.32143047232E+02  0.00000000000E+00 0. -1.
         -1   -1    0    0    0  501 -0.00000000000E+00 -0.00000000000E+00 -0.67615114900E+02  0.67615114900E+02  0.00000000000E+00 0.  1.
         23    2    1    2    0    0  0.00000000000E+00  0.00000000000E+00 -0.35472067668E+02  0.99758162133E+02  0.93238529200E+02 0.  0.
        -13    1    3    3    0    0  0.36526535829E+01  0.42325613750E+02 -0.38276249007E+02  0.57182783209E+02  0.00000000000E+00 0.  1.
         13    1    3    3    0    0 -0.36526535829E+01 -0.42325613750E+02  0.28041813388E+01  0.42575378924E+02  0.00000000000E+00 0. -1.
<mgrwt>
<rscale>  0 0.93238529E+02</rscale>
<asrwt>0</asrwt>
<pdfrwt beam="1">  1        1 0.49450843E-02 0.93238529E+02</pdfrwt>
<pdfrwt beam="2">  1       -1 0.10402325E-01 0.93238529E+02</pdfrwt>
<totfact> 0.82201778E+04</totfact>
</mgrwt>
</event>
<event>
 5    1  0.1270889E+001  0.8149010E+02  0.7546771E-02  0.1324875E+00
         -1   -1    0    0    0  501 -0.00000000000E+00  0.00000000000E+00  0.30473812372E+03  0.30473812372E+03  0.00000000000E+00 0.  1.
          1   -1    0    0  501    0  0.00000000000E+00 -0.00000000000E+00 -0.54478218154E+01  0.54478218154E+01  0.00000000000E+00 0. -1.
         23    2    1    2    0    0  0.00000000000E+00  0.00000000000E+00  0.29929030191E+03  0.31018594554E+03  0.81490097519E+02 0.  0.
        -13    1    3    3    0    0 -0.32924356142E+02 -0.23766704272E+02  0.16243470449E+03  0.16743327830E+03  0.00000000000E+00 0.  1.
         13    1    3    3    0    0  0.32924356142E+02  0.23766704272E+02  0.13685559742E+03  0.14275266724E+03  0.00000000000E+00 0. -1.
<mgrwt>
<rscale>  0 0.81490098E+02</rscale>
<asrwt>0</asrwt>
<pdfrwt beam="2">  1        1 0.83812667E-03 0.81490098E+02</pdfrwt>
<pdfrwt beam="1">  1       -1 0.46882775E-01 0.81490098E+02</pdfrwt>
<totfact> 0.80668043E+04</totfact>
</mgrwt>
</event>
<event>
 5    1  0.1270889E+001  0.9128741E+02  0.7546771E-02  0.1299764E+00
         -2   -1    0    0    0  501 -0.00000000000E+00  0.00000000000E+00  0.31050696875E+02  0.31050696875E+02  0.00000000000E+00 0.  1.
          2   -1    0    0  501    0  0.00000000000E+00 -0.00000000000E+00 -0.67095036191E+02  0.67095036191E+02  0.00000000000E+00 0. -1.
         23    2    1    2    0    0  0.00000000000E+00  0.00000000000E+00 -0.36044339315E+02  0.98145733066E+02  0.91287406154E+02 0.  0.
        -13    1    3    3    0    0  0.28319286231E+02 -0.23492566605E+02 -0.47059907317E+02  0.59737070023E+02  0.00000000000E+00 0. -1.
         13    1    3    3    0    0 -0.28319286231E+02  0.23492566605E+02  0.11015568002E+02  0.38408663042E+02  0.00000000000E+00 0.  1.
<mgrwt>
<rscale>  0 0.91287406E+02</rscale>
<asrwt>0</asrwt>
<pdfrwt beam="2">  1        2 0.10322313E-01 0.91287406E+02</pdfrwt>
<pdfrwt beam="1">  1       -2 0.47770303E-02 0.91287406E+02</pdfrwt>
<totfact> 0.10896303E+05</totfact>
</mgrwt>
</event>
<event>
 5    1  0.1270889E+001  0.9197200E+02  0.7546771E-02  0.1298145E+00
         -1   -1    0    0    0  501 -0.00000000000E+00  0.00000000000E+00  0.16015528429E+02  0.16015528429E+02  0.00000000000E+00 0.  1.
          1   -1    0    0  501    0  0.00000000000E+00 -0.00000000000E+00 -0.13204137176E+03  0.13204137176E+03  0.00000000000E+00 0. -1.
         23    2    1    2    0    0  0.00000000000E+00  0.00000000000E+00 -0.11602584333E+03  0.14805690019E+03  0.91972003201E+02 0.  0.
        -13    1    3    3    0    0  0.39385404790E+02  0.18816759788E+02 -0.34716227273E+02  0.55771829767E+02  0.00000000000E+00 0.  1.
         13    1    3    3    0    0 -0.39385404790E+02 -0.18816759788E+02 -0.81309616055E+02  0.92285070420E+02  0.00000000000E+00 0. -1.
<mgrwt>
<rscale>  0 0.91972003E+02</rscale>
<asrwt>0</asrwt>
<pdfrwt beam="2">  1        1 0.20314056E-01 0.91972003E+02</pdfrwt>
<pdfrwt beam="1">  1       -1 0.24639275E-02 0.91972003E+02</pdfrwt>
<totfact> 0.10702308E+05</totfact>
</mgrwt>
</event>
<event>
 5    1  0.1270889E+001  0.9066781E+02  0.7546771E-02  0.1301243E+00
         -1   -1    0    0    0  501 -0.00000000000E+00  0.00000000000E+00  0.23490421058E+03  0.23490421058E+03  0.00000000000E+00 0.  1.
          1   -1    0    0  501    0  0.00000000000E+00 -0.00000000000E+00 -0.87489398815E+01  0.87489398815E+01  0.00000000000E+00 0. -1.
         23    2    1    2    0    0  0.00000000000E+00  0.00000000000E+00  0.22615527070E+03  0.24365315046E+03  0.90667807215E+02 0.  0.
        -13    1    3    3    0    0 -0.35585505295E+02  0.26828281156E+02  0.13541277482E+03  0.14255772319E+03  0.00000000000E+00 0.  1.
         13    1    3    3    0    0  0.35585505295E+02 -0.26828281156E+02  0.90742495882E+02  0.10109542727E+03  0.00000000000E+00 0. -1.
<mgrwt>
<rscale>  0 0.90667807E+02</rscale>
<asrwt>0</asrwt>
<pdfrwt beam="2">  1        1 0.13459909E-02 0.90667807E+02</pdfrwt>
<pdfrwt beam="1">  1       -1 0.36139105E-01 0.90667807E+02</pdfrwt>
<totfact> 0.67085446E+04</totfact>
</mgrwt>
</event>
<event>
 5    1  0.1270889E+001  0.1050353E+03  0.7546771E-02  0.1270050E+00
          4   -1    0    0  501    0  0.00000000000E+00  0.00000000000E+00  0.28625856059E+02  0.28625856059E+02  0.00000000000E+00 0. -1.
         -4   -1    0    0    0  501 -0.00000000000E+00 -0.00000000000E+00 -0.96350161843E+02  0.96350161843E+02  0.00000000000E+00 0.  1.
         23    2    1    2    0    0  0.00000000000E+00  0.00000000000E+00 -0.67724305784E+02  0.12497601790E+03  0.10503534384E+03 0.  0.
        -13    1    3    3    0    0  0.51756264581E+01 -0.48000476533E+02 -0.58456989967E+02  0.75815912134E+02  0.00000000000E+00 0.  1.
         13    1    3    3    0    0 -0.51756264581E+01  0.48000476533E+02 -0.92673158169E+01  0.49160105768E+02  0.00000000000E+00 0. -1.
<mgrwt>
<rscale>  0 0.10503534E+03</rscale>
<asrwt>0</asrwt>
<pdfrwt beam="1">  1        4 0.44039778E-02 0.10503534E+03</pdfrwt>
<pdfrwt beam="2">  1       -4 0.14823102E-01 0.10503534E+03</pdfrwt>
<totfact> 0.16987843E+04</totfact>
</mgrwt>
</event>
<event>
 5    1  0.1270889E+001  0.9221025E+02  0.7546771E-02  0.1297586E+00
         -1   -1    0    0    0  501 -0.00000000000E+00  0.00000000000E+00  0.75475114456E+02  0.75475114456E+02  0.00000000000E+00 0.  1.
          1   -1    0    0  501    0  0.00000000000E+00 -0.00000000000E+00 -0.28164018164E+02  0.28164018164E+02  0.00000000000E+00 0. -1.
         23    2    1    2    0    0  0.00000000000E+00  0.00000000000E+00  0.47311096292E+02  0.10363913262E+03  0.92210248769E+02 0.  0.
        -11    1    3    3    0    0  0.34465093608E+02  0.28293898259E+02  0.10485961149E+02  0.45807671163E+02  0.00000000000E+00 0. -1.
         11    1    3    3    0    0 -0.34465093608E+02 -0.28293898259E+02  0.36825135143E+02  0.57831461458E+02  0.00000000000E+00 0.  1.
<mgrwt>
<rscale>  0 0.92210249E+02</rscale>
<asrwt>0</asrwt>
<pdfrwt beam="2">  1        1 0.43329259E-02 0.92210249E+02</pdfrwt>
<pdfrwt beam="1">  1       -1 0.11611556E-01 0.92210249E+02</pdfrwt>
<totfact> 0.83049909E+04</totfact>
</mgrwt>
</event>
<event>
 5    1  0.1270889E+001  0.9207662E+02  0.7546771E-02  0.1297899E+00
         -1   -1    0    0    0  501 -0.00000000000E+00  0.00000000000E+00  0.13748764057E+02  0.13748764057E+02  0.00000000000E+00 0.  1.
          1   -1    0    0  501    0  0.00000000000E+00 -0.00000000000E+00 -0.15416119201E+03  0.15416119201E+03  0.00000000000E+00 0. -1.
         23    2    1    2    0    0  0.00000000000E+00  0.00000000000E+00 -0.14041242796E+03  0.16790995607E+03  0.92076617135E+02 0.  0.
        -13    1    3    3    0    0 -0.25416861216E+02 -0.22931610181E+01 -0.33035464061E+00  0.25522236495E+02  0.00000000000E+00 0.  1.
         13    1    3    3    0    0  0.25416861216E+02  0.22931610181E+01 -0.14008207332E+03  0.14238771958E+03  0.00000000000E+00 0. -1.
<mgrwt>
<rscale>  0 0.92076617E+02</rscale>
<asrwt>0</asrwt>
<pdfrwt beam="2">  1        1 0.23717106E-01 0.92076617E+02</pdfrwt>
<pdfrwt beam="1">  1       -1 0.21151945E-02 0.92076617E+02</pdfrwt>
<totfact> 0.10975100E+05</totfact>
</mgrwt>
</event>
<event>
 5    1  0.1270889E+001  0.9319525E+02  0.7546771E-02  0.1295293E+00
          3   -1    0    0  501    0  0.00000000000E+00  0.00000000000E+00  0.25882121605E+02  0.25882121605E+02  0.00000000000E+00 0. -1.
         -3   -1    0    0    0  501 -0.00000000000E+00 -0.00000000000E+00 -0.83893380382E+02  0.83893380382E+02  0.00000000000E+00 0.  1.
         23    2    1    2    0    0  0.00000000000E+00  0.00000000000E+00 -0.58011258777E+02  0.10977550199E+03  0.93195250370E+02 0.  0.
        -13    1    3    3    0    0 -0.40696368727E+02 -0.21345240020E+02 -0.38093481665E+02  0.59690259209E+02  0.00000000000E+00 0.  1.
         13    1    3    3    0    0  0.40696368727E+02  0.21345240020E+02 -0.19917777112E+02  0.50085242778E+02  0.00000000000E+00 0. -1.
<mgrwt>
<rscale>  0 0.93195250E+02</rscale>
<asrwt>0</asrwt>
<pdfrwt beam="1">  1        3 0.39818648E-02 0.93195250E+02</pdfrwt>
<pdfrwt beam="2">  1       -3 0.12906674E-01 0.93195250E+02</pdfrwt>
<totfact> 0.31994490E+04</totfact>
</mgrwt>
</event>
<event>
 5    1  0.1270889E+001  0.9394380E+02  0.7546771E-02  0.1293573E+00
          2   -1    0    0  501    0  0.00000000000E+00  0.00000000000E+00  0.11580871619E+03  0.11580871619E+03  0.00000000000E+00 0. -1.
         -2   -1    0    0    0  501 -0.00000000000E+00 -0.00000000000E+00 -0.19051755699E+02  0.19051755699E+02  0.00000000000E+00 0.  1.
         23    2    1    2    0    0  0.00000000000E+00  0.00000000000E+00  0.96756960488E+02  0.13486047189E+03  0.93943799552E+02 0.  0.
        -11    1    3    3    0    0  0.41573846250E+02 -0.12111118826E+01  0.79715060420E+02  0.89912970932E+02  0.00000000000E+00 0. -1.
         11    1    3    3    0    0 -0.41573846250E+02  0.12111118826E+01  0.17041900068E+02  0.44947500953E+02  0.00000000000E+00 0.  1.
<mgrwt>
<rscale>  0 0.93943800E+02</rscale>
<asrwt>0</asrwt>
<pdfrwt beam="1">  1        2 0.17816725E-01 0.93943800E+02</pdfrwt>
<pdfrwt beam="2">  1       -2 0.29310394E-02 0.93943800E+02</pdfrwt>
<totfact> 0.11828324E+05</totfact>
</mgrwt>
</event>
<event>
 5    1  0.1270889E+001  0.9699013E+02  0.7546771E-02  0.1286756E+00
          3   -1    0    0  501    0  0.00000000000E+00  0.00000000000E+00  0.22315059642E+02  0.22315059642E+02  0.00000000000E+00 0. -1.
         -3   -1    0    0    0  501 -0.00000000000E+00 -0.00000000000E+00 -0.10538943219E+03  0.10538943219E+03  0.00000000000E+00 0.  1.
         23    2    1    2    0    0  0.00000000000E+00  0.00000000000E+00 -0.83074372546E+02  0.12770449183E+03  0.96990132794E+02 0.  0.
        -13    1    3    3    0    0  0.23884477160E+02 -0.25503171251E+02  0.27409246398E+01  0.35048433074E+02  0.00000000000E+00 0. -1.
         13    1    3    3    0    0 -0.23884477160E+02  0.25503171251E+02 -0.85815297186E+02  0.92656058756E+02  0.00000000000E+00 0.  1.
<mgrwt>
<rscale>  0 0.96990133E+02</rscale>
<asrwt>0</asrwt>
<pdfrwt beam="1">  1        3 0.34330861E-02 0.96990133E+02</pdfrwt>
<pdfrwt beam="2">  1       -3 0.16213759E-01 0.96990133E+02</pdfrwt>
<totfact> 0.27651565E+04</totfact>
</mgrwt>
</event>
<event>
 5    1  0.1270889E+001  0.1023776E+03  0.7546771E-02  0.1275374E+00
          1   -1    0    0  501    0  0.00000000000E+00  0.00000000000E+00  0.14911354206E+02  0.14911354206E+02  0.00000000000E+00 0. -1.
         -1   -1    0    0    0  501 -0.00000000000E+00 -0.00000000000E+00 -0.17572479654E+03  0.17572479654E+03  0.00000000000E+00 0.  1.
         23    2    1    2    0    0  0.00000000000E+00  0.00000000000E+00 -0.16081344234E+03  0.19063615075E+03  0.10237762810E+03 0.  0.
        -11    1    3    3    0    0  0.31086926722E+02  0.37970316993E+02 -0.53284548486E+02  0.72438836910E+02  0.00000000000E+00 0. -1.
         11    1    3    3    0    0 -0.31086926722E+02 -0.37970316993E+02 -0.10752889385E+03  0.11819731384E+03  0.00000000000E+00 0.  1.
<mgrwt>
<rscale>  0 0.10237763E+03</rscale>
<asrwt>0</asrwt>
<pdfrwt beam="1">  1        1 0.22940542E-02 0.10237763E+03</pdfrwt>
<pdfrwt beam="2">  1       -1 0.27034587E-01 0.10237763E+03</pdfrwt>
<totfact> 0.53150695E+04</totfact>
</mgrwt>
</event>
<event>
 5    1  0.1270889E+001  0.9104971E+02  0.7546771E-02  0.1300329E+00
         -2   -1    0    0    0  501 -0.00000000000E+00  0.00000000000E+00  0.32146170312E+02  0.32146170312E+02  0.00000000000E+00 0.  1.
          2   -1    0    0  501    0  0.00000000000E+00 -0.00000000000E+00 -0.64471519573E+02  0.64471519573E+02  0.00000000000E+00 0. -1.
         23    2    1    2    0    0  0.00000000000E+00  0.00000000000E+00 -0.32325349261E+02  0.96617689886E+02  0.91049710565E+02 0.  0.
        -11    1    3    3    0    0  0.22171443567E+02  0.38497195154E+02 -0.26715975255E+02  0.51839659320E+02  0.00000000000E+00 0.  1.
         11    1    3    3    0    0 -0.22171443567E+02 -0.38497195154E+02 -0.56093740064E+01  0.44778030566E+02  0.00000000000E+00 0. -1.
<mgrwt>
<rscale>  0 0.91049711E+02</rscale>
<asrwt>0</asrwt>
<pdfrwt beam="2">  1        2 0.99186953E-02 0.91049711E+02</pdfrwt>
<pdfrwt beam="1">  1       -2 0.49455647E-02 0.91049711E+02</pdfrwt>
<totfact> 0.10857435E+05</totfact>
</mgrwt>
</event>
<event>
 5    1  0.1270889E+001  0.9049887E+02  0.7546771E-02  0.1301648E+00
         -1   -1    0    0    0  501 -0.00000000000E+00  0.00000000000E+00  0.39890701688E+02  0.39890701688E+02  0.00000000000E+00 0.  1.
          1   -1    0    0  501    0  0.00000000000E+00 -0.00000000000E+00 -0.51328030252E+02  0.51328030252E+02  0.00000000000E+00 0. -1.
         23    2    1    2    0    0  0.00000000000E+00  0.00000000000E+00 -0.11437328564E+02  0.91218731940E+02  0.90498865031E+02 0.  0.
        -11    1    3    3    0    0  0.73094746308E+01  0.20415147108E+02  0.34312541171E+02  0.40590111264E+02  0.00000000000E+00 0.  1.
         11    1    3    3    0    0 -0.73094746308E+01 -0.20415147108E+02 -0.45749869735E+02  0.50628620676E+02  0.00000000000E+00 0. -1.
<mgrwt>
<rscale>  0 0.90498865E+02</rscale>
<asrwt>0</asrwt>
<pdfrwt beam="2">  1        1 0.78966200E-02 0.90498865E+02</pdfrwt>
<pdfrwt beam="1">  1       -1 0.61370310E-02 0.90498865E+02</pdfrwt>
<totfact> 0.96113395E+04</totfact>
</mgrwt>
</event>
<event>
 5    1  0.1270889E+001  0.9197451E+02  0.7546771E-02  0.1298139E+00
         -3   -1    0    0    0  501 -0.00000000000E+00  0.00000000000E+00  0.87390624457E+02  0.87390624457E+02  0.00000000000E+00 0.  1.
          3   -1    0    0  501    0  0.00000000000E+00 -0.00000000000E+00 -0.24199707695E+02  0.24199707695E+02  0.00000000000E+00 0. -1.
         23    2    1    2    0    0  0.00000000000E+00  0.00000000000E+00  0.63190916763E+02  0.11159033215E+03  0.91974508797E+02 0.  0.
        -11    1    3    3    0    0 -0.14685951761E+02 -0.43147054145E+02  0.24167472165E+02  0.51588876430E+02  0.00000000000E+00 0. -1.
         11    1    3    3    0    0  0.14685951761E+02  0.43147054145E+02  0.39023444598E+02  0.60001455722E+02  0.00000000000E+00 0.  1.
<mgrwt>
<rscale>  0 0.91974509E+02</rscale>
<asrwt>0</asrwt>
<pdfrwt beam="2">  1        3 0.37230320E-02 0.91974509E+02</pdfrwt>
<pdfrwt beam="1">  1       -3 0.13444711E-01 0.91974509E+02</pdfrwt>
<totfact> 0.33040075E+04</totfact>
</mgrwt>
</event>
<event>
 5    1  0.1270889E+001  0.8343951E+02  0.7546771E-02  0.1319565E+00
          1   -1    0    0  501    0  0.00000000000E+00  0.00000000000E+00  0.13668503799E+02  0.13668503799E+02  0.00000000000E+00 0. -1.
         -1   -1    0    0    0  501 -0.00000000000E+00 -0.00000000000E+00 -0.12733930952E+03  0.12733930952E+03  0.00000000000E+00 0.  1.
         23    2    1    2    0    0  0.00000000000E+00  0.00000000000E+00 -0.11367080572E+03  0.14100781332E+03  0.83439507093E+02 0.  0.
        -13    1    3    3    0    0  0.14944053636E+02 -0.28298213372E+02 -0.11602279522E+02  0.34040072110E+02  0.00000000000E+00 0. -1.
         13    1    3    3    0    0 -0.14944053636E+02  0.28298213372E+02 -0.10206852620E+03  0.10696774121E+03  0.00000000000E+00 0.  1.
<mgrwt>
<rscale>  0 0.83439507E+02</rscale>
<asrwt>0</asrwt>
<pdfrwt beam="1">  1        1 0.21028468E-02 0.83439507E+02</pdfrwt>
<pdfrwt beam="2">  1       -1 0.19590663E-01 0.83439507E+02</pdfrwt>
<totfact> 0.97516732E+04</totfact>
</mgrwt>
</event>
<event>
 5    1  0.1270889E+001  0.9049378E+02  0.7546771E-02  0.1301660E+00
         -2   -1    0    0    0  501 -0.00000000000E+00  0.00000000000E+00  0.10268584336E+02  0.10268584336E+02  0.00000000000E+00 0.  1.
          2   -1    0    0  501    0  0.00000000000E+00 -0.00000000000E+00 -0.19937325390E+03  0.19937325390E+03  0.00000000000E+00 0. -1.
         23    2    1    2    0    0  0.00000000000E+00  0.00000000000E+00 -0.18910466956E+03  0.20964183824E+03  0.90493780385E+02 0.  0.
        -11    1    3    3    0    0  0.26264418302E+02  0.15392946785E+02 -0.17004663370E+02  0.34870059590E+02  0.00000000000E+00 0.  1.
         11    1    3    3    0    0 -0.26264418302E+02 -0.15392946785E+02 -0.17210000619E+03  0.17477177865E+03  0.00000000000E+00 0. -1.
<mgrwt>
<rscale>  0 0.90493780E+02</rscale>
<asrwt>0</asrwt>
<pdfrwt beam="2">  1        2 0.30672807E-01 0.90493780E+02</pdfrwt>
<pdfrwt beam="1">  1       -2 0.15797823E-02 0.90493780E+02</pdfrwt>
<totfact> 0.15766152E+05</totfact>
</mgrwt>
</event>
<event>
 5    1  0.1270889E+001  0.1005703E+03  0.7546771E-02  0.1279101E+00
         -2   -1    0    0    0  501 -0.00000000000E+00  0.00000000000E+00  0.13531047070E+02  0.13531047070E+02  0.00000000000E+00 0.  1.
          2   -1    0    0  501    0  0.00000000000E+00 -0.00000000000E+00 -0.18687373672E+03  0.18687373672E+03  0.00000000000E+00 0. -1.
         23    2    1    2    0    0  0.00000000000E+00  0.00000000000E+00 -0.17334268965E+03  0.20040478379E+03  0.10057032023E+03 0.  0.
        -13    1    3    3    0    0 -0.17075602121E+02 -0.32936922803E+02 -0.19032144310E+02  0.41696997356E+02  0.00000000000E+00 0.  1.
         13    1    3    3    0    0  0.17075602121E+02  0.32936922803E+02 -0.15431054534E+03  0.15870778643E+03  0.00000000000E+00 0. -1.
<mgrwt>
<rscale>  0 0.10057032E+03</rscale>
<asrwt>0</asrwt>
<pdfrwt beam="2">  1        2 0.28749803E-01 0.10057032E+03</pdfrwt>
<pdfrwt beam="1">  1       -2 0.20816997E-02 0.10057032E+03</pdfrwt>
<totfact> 0.11566826E+05</totfact>
</mgrwt>
</event>
<event>
 5    1  0.1270889E+001  0.9028510E+02  0.7546771E-02  0.1302163E+00
         -1   -1    0    0    0  501 -0.00000000000E+00  0.00000000000E+00  0.88151445812E+02  0.88151445812E+02  0.00000000000E+00 0.  1.
          1   -1    0    0  501    0  0.00000000000E+00 -0.00000000000E+00 -0.23117597508E+02  0.23117597508E+02  0.00000000000E+00 0. -1.
         23    2    1    2    0    0  0.00000000000E+00  0.00000000000E+00  0.65033848303E+02  0.11126904332E+03  0.90285096091E+02 0.  0.
        -13    1    3    3    0    0  0.67970086595E+01  0.43915573333E+02  0.42304589800E+02  0.61355156475E+02  0.00000000000E+00 0.  1.
         13    1    3    3    0    0 -0.67970086595E+01 -0.43915573333E+02  0.22729258503E+02  0.49913886845E+02  0.00000000000E+00 0. -1.
<mgrwt>
<rscale>  0 0.90285096E+02</rscale>
<asrwt>0</asrwt>
<pdfrwt beam="2">  1        1 0.35565535E-02 0.90285096E+02</pdfrwt>
<pdfrwt beam="1">  1       -1 0.13561761E-01 0.90285096E+02</pdfrwt>
<totfact> 0.85371697E+04</totfact>
</mgrwt>
</event>
<event>
 5    1  0.1270889E+001  0.8983579E+02  0.7546771E-02  0.1303250E+00
         -2   -1    0    0    0  501 -0.00000000000E+00  0.00000000000E+00  0.14504236798E+02  0.14504236798E+02  0.00000000000E+00 0.  1.
          2   -1    0    0  501    0  0.00000000000E+00 -0.00000000000E+00 -0.13910536196E+03  0.13910536196E+03  0.00000000000E+00 0. -1.
         23    2    1    2    0    0  0.00000000000E+00  0.00000000000E+00 -0.12460112516E+03  0.15360959876E+03  0.89835785960E+02 0.  0.
        -11    1    3    3    0    0  0.59698661600E+01 -0.26327720587E+02 -0.12368617912E+03  0.12659802162E+03  0.00000000000E+00 0. -1.
         11    1    3    3    0    0 -0.59698661600E+01  0.26327720587E+02 -0.91494604407E+00  0.27011577139E+02  0.00000000000E+00 0.  1.
<mgrwt>
<rscale>  0 0.89835786E+02</rscale>
<asrwt>0</asrwt>
<pdfrwt beam="2">  1        2 0.21400825E-01 0.89835786E+02</pdfrwt>
<pdfrwt beam="1">  1       -2 0.22314211E-02 0.89835786E+02</pdfrwt>
<totfact> 0.14189837E+05</totfact>
</mgrwt>
</event>
<event>
 5    1  0.1270889E+001  0.9039087E+02  0.7546771E-02  0.1301908E+00
          1   -1    0    0  501    0  0.00000000000E+00  0.00000000000E+00  0.69242875238E+02  0.69242875238E+02  0.00000000000E+00 0. -1.
         -1   -1    0    0    0  501 -0.00000000000E+00 -0.00000000000E+00 -0.29499457301E+02  0.29499457301E+02  0.00000000000E+00 0.  1.
         23    2    1    2    0    0  0.00000000000E+00  0.00000000000E+00  0.39743417937E+02  0.98742332538E+02  0.90390867712E+02 0.  0.
        -13    1    3    3    0    0 -0.28737508288E+02  0.15931623454E+02  0.53770511410E+02  0.63015306917E+02  0.00000000000E+00 0. -1.
         13    1    3    3    0    0  0.28737508288E+02 -0.15931623454E+02 -0.14027093473E+02  0.35727025622E+02  0.00000000000E+00 0.  1.
<mgrwt>
<rscale>  0 0.90390868E+02</rscale>
<asrwt>0</asrwt>
<pdfrwt beam="1">  1        1 0.10652750E-01 0.90390868E+02</pdfrwt>
<pdfrwt beam="2">  1       -1 0.45383781E-02 0.90390868E+02</pdfrwt>
<totfact> 0.10087973E+05</totfact>
</mgrwt>
</event>
<event>
 5    1  0.1270889E+001  0.9107292E+02  0.7546771E-02  0.1300274E+00
         -1   -1    0    0    0  501 -0.00000000000E+00  0.00000000000E+00  0.50323600545E+02  0.50323600545E+02  0.00000000000E+00 0.  1.
          1   -1    0    0  501    0  0.00000000000E+00 -0.00000000000E+00 -0.41204708725E+02  0.41204708725E+02  0.00000000000E+00 0. -1.
         23    2    1    2    0    0  0.00000000000E+00  0.00000000000E+00  0.91188918201E+01  0.91528309270E+02  0.91072922484E+02 0.  0.
        -13    1    3    3    0    0 -0.25672710416E+02 -0.36860278860E+02  0.12066810152E+02  0.46512107295E+02  0.00000000000E+00 0. -1.
         13    1    3    3    0    0  0.25672710416E+02  0.36860278860E+02 -0.29479183323E+01  0.45016201975E+02  0.00000000000E+00 0.  1.
<mgrwt>
<rscale>  0 0.91072922E+02</rscale>
<asrwt>0</asrwt>
<pdfrwt beam="2">  1        1 0.63391860E-02 0.91072922E+02</pdfrwt>
<pdfrwt beam="1">  1       -1 0.77420924E-02 0.91072922E+02</pdfrwt>
<totfact> 0.91366462E+04</totfact>
</mgrwt>
</event>
<event>
 5    1  0.1270889E+001  0.9046624E+02  0.7546771E-02  0.1301727E+00
         -3   -1    0    0    0  501 -0.00000000000E+00  0.00000000000E+00  0.25200810082E+03  0.25200810082E+03  0.00000000000E+00 0.  1.
          3   -1    0    0  501    0  0.00000000000E+00 -0.00000000000E+00 -0.81189268973E+01  0.81189268973E+01  0.00000000000E+00 0. -1.
         23    2    1    2    0    0  0.00000000000E+00  0.00000000000E+00  0.24388917392E+03  0.26012702772E+03  0.90466244491E+02 0.  0.
        -11    1    3    3    0    0 -0.18634360790E+02 -0.28883382176E+02  0.20649057714E+03  0.20933190778E+03  0.00000000000E+00 0.  1.
         11    1    3    3    0    0  0.18634360790E+02  0.28883382176E+02  0.37398596783E+02  0.50795119936E+02  0.00000000000E+00 0. -1.
<mgrwt>
<rscale>  0 0.90466244E+02</rscale>
<asrwt>0</asrwt>
<pdfrwt beam="2">  1        3 0.12490659E-02 0.90466244E+02</pdfrwt>
<pdfrwt beam="1">  1       -3 0.38770471E-01 0.90466244E+02</pdfrwt>
<totfact> 0.26200189E+04</totfact>
</mgrwt>
</event>
<event>
 5    1  0.1270889E+001  0.9043168E+02  0.7546771E-02  0.1301810E+00
         -2   -1    0    0    0  501 -0.00000000000E+00  0.00000000000E+00  0.20893160581E+02  0.20893160581E+02  0.00000000000E+00 0. -1.
          2   -1    0    0  501    0  0.00000000000E+00 -0.00000000000E+00 -0.97853657030E+02  0.97853657030E+02  0.00000000000E+00 0.  1.
         23    2    1    2    0    0  0.00000000000E+00  0.00000000000E+00 -0.76960496449E+02  0.11874681761E+03  0.90431679620E+02 0.  0.
        -13    1    3    3    0    0 -0.23154330855E+02 -0.37871192180E+02 -0.49785357307E+02  0.66700315116E+02  0.00000000000E+00 0.  1.
         13    1    3    3    0    0  0.23154330855E+02  0.37871192180E+02 -0.27175139142E+02  0.52046502494E+02  0.00000000000E+00 0. -1.
<mgrwt>
<rscale>  0 0.90431680E+02</rscale>
<asrwt>0</asrwt>
<pdfrwt beam="2">  1        2 0.15054409E-01 0.90431680E+02</pdfrwt>
<pdfrwt beam="1">  1       -2 0.32143324E-02 0.90431680E+02</pdfrwt>
<totfact> 0.12465447E+05</totfact>
</mgrwt>
</event>
<event>
 5    1  0.1270889E+001  0.9153195E+02  0.7546771E-02  0.1299184E+00
          2   -1    0    0  501    0  0.00000000000E+00  0.00000000000E+00  0.14242875514E+02  0.14242875514E+02  0.00000000000E+00 0. -1.
         -2   -1    0    0    0  501 -0.00000000000E+00 -0.00000000000E+00 -0.14705771162E+03  0.14705771162E+03  0.00000000000E+00 0.  1.
         23    2    1    2    0    0  0.00000000000E+00  0.00000000000E+00 -0.13281483611E+03  0.16130058713E+03  0.91531954639E+02 0.  0.
        -13    1    3    3    0    0 -0.31175695354E+02  0.26320781663E+02 -0.29872757002E+02  0.50567668910E+02  0.00000000000E+00 0. -1.
         13    1    3    3    0    0  0.31175695354E+02 -0.26320781663E+02 -0.10294207910E+03  0.11073291822E+03  0.00000000000E+00 0.  1.
<mgrwt>
<rscale>  0 0.91531955E+02</rscale>
<asrwt>0</asrwt>
<pdfrwt beam="1">  1        2 0.21912117E-02 0.91531955E+02</pdfrwt>
<pdfrwt beam="2">  1       -2 0.22624262E-01 0.91531955E+02</pdfrwt>
<totfact> 0.69670198E+04</totfact>
</mgrwt>
</event>
<event>
 5    1  0.1270889E+001  0.9171333E+02  0.7546771E-02  0.1298755E+00
          1   -1    0    0  501    0  0.00000000000E+00  0.00000000000E+00  0.88792966207E+02  0.88792966207E+02  0.00000000000E+00 0. -1.
         -1   -1    0    0    0  501 -0.00000000000E+00 -0.00000000000E+00 -0.23682433338E+02  0.23682433338E+02  0.00000000000E+00 0.  1.
         23    2    1    2    0    0  0.00000000000E+00  0.00000000000E+00  0.65110532869E+02  0.11247539955E+03  0.91713325163E+02 0.  0.
        -13    1    3    3    0    0 -0.27182204095E+02  0.27247606935E+02  0.19810121311E+01  0.38538665159E+02  0.00000000000E+00 0.  1.
         13    1    3    3    0    0  0.27182204095E+02 -0.27247606935E+02  0.63129520738E+02  0.73936734387E+02  0.00000000000E+00 0. -1.
<mgrwt>
<rscale>  0 0.91713325E+02</rscale>
<asrwt>0</asrwt>
<pdfrwt beam="1">  1        1 0.13660456E-01 0.91713325E+02</pdfrwt>
<pdfrwt beam="2">  1       -1 0.36434513E-02 0.91713325E+02</pdfrwt>
<totfact> 0.10080304E+05</totfact>
</mgrwt>
</event>
<event>
 5    1  0.1270889E+001  0.8991088E+02  0.7546771E-02  0.1303068E+00
         -1   -1    0    0    0  501 -0.00000000000E+00  0.00000000000E+00  0.81647050386E+01  0.81647050386E+01  0.00000000000E+00 0.  1.
          1   -1    0    0  501    0  0.00000000000E+00 -0.00000000000E+00 -0.24752781055E+03  0.24752781055E+03  0.00000000000E+00 0. -1.
         23    2    1    2    0    0  0.00000000000E+00  0.00000000000E+00 -0.23936310551E+03  0.25569251559E+03  0.89910879476E+02 0.  0.
        -11    1    3    3    0    0  0.34668850221E+02  0.20604841817E+02 -0.17616625701E+03  0.18072365310E+03  0.00000000000E+00 0.  1.
         11    1    3    3    0    0 -0.34668850221E+02 -0.20604841817E+02 -0.63196848503E+02  0.74968862487E+02  0.00000000000E+00 0. -1.
<mgrwt>
<rscale>  0 0.89910879E+02</rscale>
<asrwt>0</asrwt>
<pdfrwt beam="2">  1        1 0.38081204E-01 0.89910879E+02</pdfrwt>
<pdfrwt beam="1">  1       -1 0.12561084E-02 0.89910879E+02</pdfrwt>
<totfact> 0.12812306E+05</totfact>
</mgrwt>
</event>
<event>
 5    1  0.1270889E+001  0.8847490E+02  0.7546771E-02  0.1306588E+00
         -1   -1    0    0    0  501 -0.00000000000E+00  0.00000000000E+00  0.49137016084E+01  0.49137016084E+01  0.00000000000E+00 0.  1.
          1   -1    0    0  501    0  0.00000000000E+00 -0.00000000000E+00 -0.39826429852E+03  0.39826429852E+03  0.00000000000E+00 0. -1.
         23    2    1    2    0    0  0.00000000000E+00  0.00000000000E+00 -0.39335059691E+03  0.40317800012E+03  0.88474898681E+02 0.  0.
        -13    1    3    3    0    0 -0.48839739100E+01  0.43220061267E+02 -0.15990046533E+03  0.16571054797E+03  0.00000000000E+00 0.  1.
         13    1    3    3    0    0  0.48839739100E+01 -0.43220061267E+02 -0.23345013158E+03  0.23746745215E+03  0.00000000000E+00 0. -1.
<mgrwt>
<rscale>  0 0.88474899E+02</rscale>
<asrwt>0</asrwt>
<pdfrwt beam="2">  1        1 0.61271429E-01 0.88474899E+02</pdfrwt>
<pdfrwt beam="1">  1       -1 0.75595411E-03 0.88474899E+02</pdfrwt>
<totfact> 0.14598220E+05</totfact>
</mgrwt>
</event>
<event>
 5    1  0.1270889E+001  0.8916736E+02  0.7546771E-02  0.1304881E+00
          1   -1    0    0  501    0  0.00000000000E+00  0.00000000000E+00  0.11003327042E+03  0.11003327042E+03  0.00000000000E+00 0. -1.
         -1   -1    0    0    0  501 -0.00000000000E+00 -0.00000000000E+00 -0.18064575771E+02  0.18064575771E+02  0.00000000000E+00 0.  1.
         23    2    1    2    0    0  0.00000000000E+00  0.00000000000E+00  0.91968694646E+02  0.12809784619E+03  0.89167356151E+02 0.  0.
        -11    1    3    3    0    0  0.24419005767E+02  0.32708995127E+02  0.71744722830E+02  0.82543754814E+02  0.00000000000E+00 0. -1.
         11    1    3    3    0    0 -0.24419005767E+02 -0.32708995127E+02  0.20223971816E+02  0.45554091373E+02  0.00000000000E+00 0.  1.
<mgrwt>
<rscale>  0 0.89167356E+02</rscale>
<asrwt>0</asrwt>
<pdfrwt beam="1">  1        1 0.16928195E-01 0.89167356E+02</pdfrwt>
<pdfrwt beam="2">  1       -1 0.27791656E-02 0.89167356E+02</pdfrwt>
<totfact> 0.11275938E+05</totfact>
</mgrwt>
</event>
<event>
 5    1  0.1270889E+001  0.8886104E+02  0.7546771E-02  0.1305634E+00
          1   -1    0    0  501    0  0.00000000000E+00  0.00000000000E+00  0.32008623278E+03  0.32008623278E+03  0.00000000000E+00 0. -1.
         -1   -1    0    0    0  501 -0.00000000000E+00 -0.00000000000E+00 -0.61673106413E+01  0.61673106413E+01  0.00000000000E+00 0.  1.
         23    2    1    2    0    0  0.00000000000E+00  0.00000000000E+00  0.31391892214E+03  0.32625354342E+03  0.88861042748E+02 0.  0.
        -11    1    3    3    0    0  0.67628855546E+01 -0.39539322080E+02  0.22710117169E+03  0.23061664466E+03  0.00000000000E+00 0. -1.
         11    1    3    3    0    0 -0.67628855546E+01  0.39539322080E+02  0.86817750444E+02  0.95636898756E+02  0.00000000000E+00 0.  1.
<mgrwt>
<rscale>  0 0.88861043E+02</rscale>
<asrwt>0</asrwt>
<pdfrwt beam="1">  1        1 0.49244023E-01 0.88861043E+02</pdfrwt>
<pdfrwt beam="2">  1       -1 0.94881727E-03 0.88861043E+02</pdfrwt>
<totfact> 0.13887511E+05</totfact>
</mgrwt>
</event>
<event>
 5    1  0.1270889E+001  0.8957125E+02  0.7546771E-02  0.1303893E+00
          1   -1    0    0  501    0  0.00000000000E+00  0.00000000000E+00  0.27995582709E+03  0.27995582709E+03  0.00000000000E+00 0. -1.
         -1   -1    0    0    0  501 -0.00000000000E+00 -0.00000000000E+00 -0.71645309437E+01  0.71645309437E+01  0.00000000000E+00 0.  1.
         23    2    1    2    0    0  0.00000000000E+00  0.00000000000E+00  0.27279129614E+03  0.28712035803E+03  0.89571249540E+02 0.  0.
        -13    1    3    3    0    0  0.16324360110E+02  0.36706690979E+02  0.72939254025E+02  0.83270647129E+02  0.00000000000E+00 0.  1.
         13    1    3    3    0    0 -0.16324360110E+02 -0.36706690979E+02  0.19985204212E+03  0.20384971090E+03  0.00000000000E+00 0. -1.
<mgrwt>
<rscale>  0 0.89571250E+02</rscale>
<asrwt>0</asrwt>
<pdfrwt beam="1">  1        1 0.43070119E-01 0.89571250E+02</pdfrwt>
<pdfrwt beam="2">  1       -1 0.11022357E-02 0.89571250E+02</pdfrwt>
<totfact> 0.13255502E+05</totfact>
</mgrwt>
</event>
<event>
 5    1  0.1270889E+001  0.8899393E+02  0.7546771E-02  0.1305306E+00
          2   -1    0    0  501    0  0.00000000000E+00  0.00000000000E+00  0.42303094277E+02  0.42303094277E+02  0.00000000000E+00 0. -1.
         -2   -1    0    0    0  501 -0.00000000000E+00 -0.00000000000E+00 -0.46804614074E+02  0.46804614074E+02  0.00000000000E+00 0.  1.
         23    2    1    2    0    0  0.00000000000E+00  0.00000000000E+00 -0.45015197971E+01  0.89107708351E+02  0.88993932417E+02 0.  0.
        -13    1    3    3    0    0  0.22951013700E+02  0.13711686275E+02  0.33364655144E+02  0.42754643996E+02  0.00000000000E+00 0. -1.
         13    1    3    3    0    0 -0.22951013700E+02 -0.13711686275E+02 -0.37866174941E+02  0.46353064355E+02  0.00000000000E+00 0.  1.
<mgrwt>
<rscale>  0 0.88993932E+02</rscale>
<asrwt>0</asrwt>
<pdfrwt beam="1">  1        2 0.65081684E-02 0.88993932E+02</pdfrwt>
<pdfrwt beam="2">  1       -2 0.72007098E-02 0.88993932E+02</pdfrwt>
<totfact> 0.10376383E+05</totfact>
</mgrwt>
</event>
<event>
 5    1  0.1270889E+001  0.9142925E+02  0.7546771E-02  0.1299427E+00
          2   -1    0    0  501    0  0.00000000000E+00  0.00000000000E+00  0.95287806168E+01  0.95287806168E+01  0.00000000000E+00 0. -1.
         -2   -1    0    0    0  501 -0.00000000000E+00 -0.00000000000E+00 -0.21931732962E+03  0.21931732962E+03  0.00000000000E+00 0.  1.
         23    2    1    2    0    0  0.00000000000E+00  0.00000000000E+00 -0.20978854900E+03  0.22884611024E+03  0.91429245199E+02 0.  0.
        -13    1    3    3    0    0 -0.33296899722E+02 -0.74507716655E+01 -0.18104550432E+03  0.18423265770E+03  0.00000000000E+00 0.  1.
         13    1    3    3    0    0  0.33296899722E+02  0.74507716655E+01 -0.28743044685E+02  0.44613452537E+02  0.00000000000E+00 0. -1.
<mgrwt>
<rscale>  0 0.91429245E+02</rscale>
<asrwt>0</asrwt>
<pdfrwt beam="1">  1        2 0.14659663E-02 0.91429245E+02</pdfrwt>
<pdfrwt beam="2">  1       -2 0.33741125E-01 0.91429245E+02</pdfrwt>
<totfact> 0.59387969E+04</totfact>
</mgrwt>
</event>
<event>
 5    1  0.1270889E+001  0.7154339E+02  0.7546771E-02  0.1354922E+00
          1   -1    0    0  501    0  0.00000000000E+00  0.00000000000E+00  0.41105905655E+02  0.41105905655E+02  0.00000000000E+00 0.  1.
         -1   -1    0    0    0  501 -0.00000000000E+00 -0.00000000000E+00 -0.31129691237E+02  0.31129691237E+02  0.00000000000E+00 0. -1.
         23    2    1    2    0    0  0.00000000000E+00  0.00000000000E+00  0.99762144181E+01  0.72235596892E+02  0.71543389661E+02 0.  0.
        -11    1    3    3    0    0 -0.29322017559E+02  0.16772170125E+02  0.16871765020E+02  0.37759010307E+02  0.00000000000E+00 0.  1.
         11    1    3    3    0    0  0.29322017559E+02 -0.16772170125E+02 -0.68955506022E+01  0.34476586585E+02  0.00000000000E+00 0. -1.
<mgrwt>
<rscale>  0 0.71543390E+02</rscale>
<asrwt>0</asrwt>
<pdfrwt beam="1">  1        1 0.63239855E-02 0.71543390E+02</pdfrwt>
<pdfrwt beam="2">  1       -1 0.47891833E-02 0.71543390E+02</pdfrwt>
<totfact> 0.17793715E+05</totfact>
</mgrwt>
</event>
<event>
 5    1  0.1270889E+001  0.9019821E+02  0.7546771E-02  0.1302372E+00
         -2   -1    0    0    0  501 -0.00000000000E+00  0.00000000000E+00  0.47616406094E+02  0.47616406094E+02  0.00000000000E+00 0.  1.
          2   -1    0    0  501    0  0.00000000000E+00 -0.00000000000E+00 -0.42714886745E+02  0.42714886745E+02  0.00000000000E+00 0. -1.
         23    2    1    2    0    0  0.00000000000E+00  0.00000000000E+00  0.49015193485E+01  0.90331292839E+02  0.90198212698E+02 0.  0.
        -13    1    3    3    0    0 -0.43419695538E+01 -0.20120233835E+02  0.42637921610E+02  0.47346265622E+02  0.00000000000E+00 0.  1.
         13    1    3    3    0    0  0.43419695538E+01  0.20120233835E+02 -0.37736402261E+02  0.42985027216E+02  0.00000000000E+00 0. -1.
<mgrwt>
<rscale>  0 0.90198213E+02</rscale>
<asrwt>0</asrwt>
<pdfrwt beam="2">  1        2 0.65715210E-02 0.90198213E+02</pdfrwt>
<pdfrwt beam="1">  1       -2 0.73256010E-02 0.90198213E+02</pdfrwt>
<totfact> 0.10008359E+05</totfact>
</mgrwt>
</event>
<event>
 5    1  0.1270889E+001  0.9367945E+02  0.7546771E-02  0.1294178E+00
         -2   -1    0    0    0  501 -0.00000000000E+00  0.00000000000E+00  0.32843843878E+02  0.32843843878E+02  0.00000000000E+00 0.  1.
          2   -1    0    0  501    0  0.00000000000E+00 -0.00000000000E+00 -0.66799722149E+02  0.66799722149E+02  0.00000000000E+00 0. -1.
         23    2    1    2    0    0  0.00000000000E+00  0.00000000000E+00 -0.33955878271E+02  0.99643566027E+02  0.93679445885E+02 0.  0.
        -11    1    3    3    0    0  0.17725489196E+00  0.46234622506E+02 -0.89977625507E+01  0.47102350987E+02  0.00000000000E+00 0.  1.
         11    1    3    3    0    0 -0.17725489196E+00 -0.46234622506E+02 -0.24958115720E+02  0.52541215040E+02  0.00000000000E+00 0. -1.
<mgrwt>
<rscale>  0 0.93679446E+02</rscale>
<asrwt>0</asrwt>
<pdfrwt beam="2">  1        2 0.10276880E-01 0.93679446E+02</pdfrwt>
<pdfrwt beam="1">  1       -2 0.50528991E-02 0.93679446E+02</pdfrwt>
<totfact> 0.10119176E+05</totfact>
</mgrwt>
</event>
<event>
 5    1  0.1270889E+001  0.1012258E+03  0.7546771E-02  0.1277739E+00
         -2   -1    0    0    0  501 -0.00000000000E+00  0.00000000000E+00  0.24366564474E+02  0.24366564474E+02  0.00000000000E+00 0.  1.
          2   -1    0    0  501    0  0.00000000000E+00 -0.00000000000E+00 -0.10513046044E+03  0.10513046044E+03  0.00000000000E+00 0. -1.
         23    2    1    2    0    0  0.00000000000E+00  0.00000000000E+00 -0.80763895965E+02  0.12949702491E+03  0.10122584932E+03 0.  0.
        -13    1    3    3    0    0  0.45005743465E+02  0.19665384303E+02 -0.24744051496E+02  0.54995566813E+02  0.00000000000E+00 0.  1.
         13    1    3    3    0    0 -0.45005743465E+02 -0.19665384303E+02 -0.56019844468E+02  0.74501458099E+02  0.00000000000E+00 0. -1.
<mgrwt>
<rscale>  0 0.10122585E+03</rscale>
<asrwt>0</asrwt>
<pdfrwt beam="2">  1        2 0.16173917E-01 0.10122585E+03</pdfrwt>
<pdfrwt beam="1">  1       -2 0.37487023E-02 0.10122585E+03</pdfrwt>
<totfact> 0.93243626E+04</totfact>
</mgrwt>
</event>
<event>
 5    1  0.1270889E+001  0.9272295E+02  0.7546771E-02  0.1296389E+00
          3   -1    0    0  501    0  0.00000000000E+00  0.00000000000E+00  0.62463419578E+02  0.62463419578E+02  0.00000000000E+00 0. -1.
         -3   -1    0    0    0  501 -0.00000000000E+00 -0.00000000000E+00 -0.34410319400E+02  0.34410319400E+02  0.00000000000E+00 0.  1.
         23    2    1    2    0    0  0.00000000000E+00  0.00000000000E+00  0.28053100178E+02  0.96873738978E+02  0.92722946858E+02 0.  0.
        -13    1    3    3    0    0 -0.23604679523E+02  0.25659299543E+02 -0.17899639622E+02  0.39191550709E+02  0.00000000000E+00 0.  1.
         13    1    3    3    0    0  0.23604679523E+02 -0.25659299543E+02  0.45952739800E+02  0.57682188269E+02  0.00000000000E+00 0. -1.
<mgrwt>
<rscale>  0 0.92722947E+02</rscale>
<asrwt>0</asrwt>
<pdfrwt beam="1">  1        3 0.96097569E-02 0.92722947E+02</pdfrwt>
<pdfrwt beam="2">  1       -3 0.52938953E-02 0.92722947E+02</pdfrwt>
<totfact> 0.33338789E+04</totfact>
</mgrwt>
</event>
<event>
 5    1  0.1270889E+001  0.9130877E+02  0.7546771E-02  0.1299713E+00
         -2   -1    0    0    0  501 -0.00000000000E+00  0.00000000000E+00  0.15989402066E+03  0.15989402066E+03  0.00000000000E+00 0.  1.
          2   -1    0    0  501    0  0.00000000000E+00 -0.00000000000E+00 -0.13035653161E+02  0.13035653161E+02  0.00000000000E+00 0. -1.
         23    2    1    2    0    0  0.00000000000E+00  0.00000000000E+00  0.14685836750E+03  0.17292967382E+03  0.91308772761E+02 0.  0.
        -11    1    3    3    0    0 -0.12502269090E+02  0.39052406141E+02  0.35412907436E+02  0.54179988657E+02  0.00000000000E+00 0.  1.
         11    1    3    3    0    0  0.12502269090E+02 -0.39052406141E+02  0.11144546007E+03  0.11874968517E+03  0.00000000000E+00 0. -1.
<mgrwt>
<rscale>  0 0.91308773E+02</rscale>
<asrwt>0</asrwt>
<pdfrwt beam="2">  1        2 0.20054852E-02 0.91308773E+02</pdfrwt>
<pdfrwt beam="1">  1       -2 0.24599079E-01 0.91308773E+02</pdfrwt>
<totfact> 0.67971974E+04</totfact>
</mgrwt>
</event>
<event>
 5    1  0.1270889E+001  0.9005398E+02  0.7546771E-02  0.1302721E+00
          4   -1    0    0  501    0  0.00000000000E+00  0.00000000000E+00  0.21925770078E+03  0.21925770078E+03  0.00000000000E+00 0. -1.
         -4   -1    0    0    0  501 -0.00000000000E+00 -0.00000000000E+00 -0.92467889398E+01  0.92467889398E+01  0.00000000000E+00 0.  1.
         23    2    1    2    0    0  0.00000000000E+00  0.00000000000E+00  0.21001091184E+03  0.22850448972E+03  0.90053976760E+02 0.  0.
        -11    1    3    3    0    0 -0.29890782059E+02  0.28731567270E+02  0.14957075351E+03  0.15521073454E+03  0.00000000000E+00 0. -1.
         11    1    3    3    0    0  0.29890782059E+02 -0.28731567270E+02  0.60440158332E+02  0.73293755185E+02  0.00000000000E+00 0.  1.
<mgrwt>
<rscale>  0 0.90053977E+02</rscale>
<asrwt>0</asrwt>
<pdfrwt beam="1">  1        4 0.33731950E-01 0.90053977E+02</pdfrwt>
<pdfrwt beam="2">  1       -4 0.14225831E-02 0.90053977E+02</pdfrwt>
<totfact> 0.20931520E+04</totfact>
</mgrwt>
</event>
<event>
 5    1  0.1270889E+001  0.9046948E+02  0.7546771E-02  0.1301719E+00
         -2   -1    0    0    0  501 -0.00000000000E+00  0.00000000000E+00  0.10212999826E+03  0.10212999826E+03  0.00000000000E+00 0.  1.
          2   -1    0    0  501    0  0.00000000000E+00 -0.00000000000E+00 -0.20035071862E+02  0.20035071862E+02  0.00000000000E+00 0. -1.
         23    2    1    2    0    0  0.00000000000E+00  0.00000000000E+00  0.82094926393E+02  0.12216507012E+03  0.90469483349E+02 0.  0.
        -13    1    3    3    0    0  0.11734656543E+02 -0.30680390047E+02 -0.94792410216E+00  0.32861635044E+02  0.00000000000E+00 0. -1.
         13    1    3    3    0    0 -0.11734656543E+02  0.30680390047E+02  0.83042850495E+02  0.89303435074E+02  0.00000000000E+00 0.  1.
<mgrwt>
<rscale>  0 0.90469483E+02</rscale>
<asrwt>0</asrwt>
<pdfrwt beam="2">  1        2 0.30823188E-02 0.90469483E+02</pdfrwt>
<pdfrwt beam="1">  1       -2 0.15712307E-01 0.90469483E+02</pdfrwt>
<totfact> 0.80856526E+04</totfact>
</mgrwt>
</event>
<event>
 5    1  0.1270889E+001  0.8348111E+02  0.7546771E-02  0.1319453E+00
          4   -1    0    0  501    0  0.00000000000E+00  0.00000000000E+00  0.54440115259E+02  0.54440115259E+02  0.00000000000E+00 0. -1.
         -4   -1    0    0    0  501 -0.00000000000E+00 -0.00000000000E+00 -0.32003498231E+02  0.32003498231E+02  0.00000000000E+00 0.  1.
         23    2    1    2    0    0  0.00000000000E+00  0.00000000000E+00  0.22436617028E+02  0.86443613490E+02  0.83481114807E+02 0.  0.
        -11    1    3    3    0    0 -0.29077385564E+01  0.13229992829E+02  0.52100859571E+02  0.53832956651E+02  0.00000000000E+00 0. -1.
         11    1    3    3    0    0  0.29077385564E+01 -0.13229992829E+02 -0.29664242543E+02  0.32610656838E+02  0.00000000000E+00 0.  1.
<mgrwt>
<rscale>  0 0.83481115E+02</rscale>
<asrwt>0</asrwt>
<pdfrwt beam="1">  1        4 0.83754023E-02 0.83481115E+02</pdfrwt>
<pdfrwt beam="2">  1       -4 0.49236151E-02 0.83481115E+02</pdfrwt>
<totfact> 0.34658602E+04</totfact>
</mgrwt>
</event>
<event>
 5    1  0.1270889E+001  0.6813675E+02  0.7546771E-02  0.1366546E+00
          1   -1    0    0  501    0  0.00000000000E+00  0.00000000000E+00  0.23067129919E+02  0.23067129919E+02  0.00000000000E+00 0.  1.
         -1   -1    0    0    0  501 -0.00000000000E+00 -0.00000000000E+00 -0.50316370308E+02  0.50316370308E+02  0.00000000000E+00 0. -1.
         23    2    1    2    0    0  0.00000000000E+00  0.00000000000E+00 -0.27249240389E+02  0.73383500226E+02  0.68136752224E+02 0.  0.
        -11    1    3    3    0    0 -0.13515425860E+02 -0.17212031324E+02  0.14495962092E+02  0.26249831913E+02  0.00000000000E+00 0.  1.
         11    1    3    3    0    0  0.13515425860E+02  0.17212031324E+02 -0.41745202481E+02  0.47133668313E+02  0.00000000000E+00 0. -1.
<mgrwt>
<rscale>  0 0.68136752E+02</rscale>
<asrwt>0</asrwt>
<pdfrwt beam="1">  1        1 0.35487893E-02 0.68136752E+02</pdfrwt>
<pdfrwt beam="2">  1       -1 0.77409800E-02 0.68136752E+02</pdfrwt>
<totfact> 0.18939661E+05</totfact>
</mgrwt>
</event>
<event>
 5    1  0.1270889E+001  0.8964960E+02  0.7546771E-02  0.1303702E+00
          2   -1    0    0  501    0  0.00000000000E+00  0.00000000000E+00  0.36888583014E+02  0.36888583014E+02  0.00000000000E+00 0. -1.
         -2   -1    0    0    0  501 -0.00000000000E+00 -0.00000000000E+00 -0.54468421734E+02  0.54468421734E+02  0.00000000000E+00 0.  1.
         23    2    1    2    0    0  0.00000000000E+00  0.00000000000E+00 -0.17579838721E+02  0.91357004748E+02  0.89649604500E+02 0.  0.
        -11    1    3    3    0    0 -0.21857090467E+02  0.38724286974E+02 -0.30289245919E+01  0.44569913501E+02  0.00000000000E+00 0. -1.
         11    1    3    3    0    0  0.21857090467E+02 -0.38724286974E+02 -0.14550914129E+02  0.46787091246E+02  0.00000000000E+00 0.  1.
<mgrwt>
<rscale>  0 0.89649605E+02</rscale>
<asrwt>0</asrwt>
<pdfrwt beam="1">  1        2 0.56751666E-02 0.89649605E+02</pdfrwt>
<pdfrwt beam="2">  1       -2 0.83797572E-02 0.89649605E+02</pdfrwt>
<totfact> 0.98108633E+04</totfact>
</mgrwt>
</event>
<event>
 5    1  0.1270889E+001  0.9023179E+02  0.7546771E-02  0.1302291E+00
          4   -1    0    0  501    0  0.00000000000E+00  0.00000000000E+00  0.13687382664E+03  0.13687382664E+03  0.00000000000E+00 0. -1.
         -4   -1    0    0    0  501 -0.00000000000E+00 -0.00000000000E+00 -0.14870950566E+02  0.14870950566E+02  0.00000000000E+00 0.  1.
         23    2    1    2    0    0  0.00000000000E+00  0.00000000000E+00  0.12200287608E+03  0.15174477721E+03  0.90231788407E+02 0.  0.
        -13    1    3    3    0    0 -0.38450946198E+01  0.33887939099E+02  0.11333189717E+02  0.35939092340E+02  0.00000000000E+00 0.  1.
         13    1    3    3    0    0  0.38450946198E+01 -0.33887939099E+02  0.11066968636E+03  0.11580568487E+03  0.00000000000E+00 0. -1.
<mgrwt>
<rscale>  0 0.90231788E+02</rscale>
<asrwt>0</asrwt>
<pdfrwt beam="1">  1        4 0.21057511E-01 0.90231788E+02</pdfrwt>
<pdfrwt beam="2">  1       -4 0.22878386E-02 0.90231788E+02</pdfrwt>
<totfact> 0.24254869E+04</totfact>
</mgrwt>
</event>
<event>
 5    1  0.1270889E+001  0.8718495E+02  0.7546771E-02  0.1309816E+00
          2   -1    0    0  501    0  0.00000000000E+00  0.00000000000E+00  0.11519969407E+03  0.11519969407E+03  0.00000000000E+00 0. -1.
         -2   -1    0    0    0  501 -0.00000000000E+00 -0.00000000000E+00 -0.16495738050E+02  0.16495738050E+02  0.00000000000E+00 0.  1.
         23    2    1    2    0    0  0.00000000000E+00  0.00000000000E+00  0.98703956018E+02  0.13169543212E+03  0.87184952297E+02 0.  0.
        -11    1    3    3    0    0  0.97218014000E+01  0.42427388195E+02  0.45743334610E+02  0.63143086342E+02  0.00000000000E+00 0.  1.
         11    1    3    3    0    0 -0.97218014000E+01 -0.42427388195E+02  0.52960621408E+02  0.68552345776E+02  0.00000000000E+00 0. -1.
<mgrwt>
<rscale>  0 0.87184952E+02</rscale>
<asrwt>0</asrwt>
<pdfrwt beam="1">  1        2 0.17723029E-01 0.87184952E+02</pdfrwt>
<pdfrwt beam="2">  1       -2 0.25378059E-02 0.87184952E+02</pdfrwt>
<totfact> 0.14483422E+05</totfact>
</mgrwt>
</event>
<event>
 5    1  0.1270889E+001  0.9200433E+02  0.7546771E-02  0.1298069E+00
         -3   -1    0    0    0  501 -0.00000000000E+00  0.00000000000E+00  0.60654793920E+01  0.60654793920E+01  0.00000000000E+00 0.  1.
          3   -1    0    0  501    0  0.00000000000E+00 -0.00000000000E+00 -0.34889235113E+03  0.34889235113E+03  0.00000000000E+00 0. -1.
         23    2    1    2    0    0  0.00000000000E+00  0.00000000000E+00 -0.34282687173E+03  0.35495783052E+03  0.92004333937E+02 0.  0.
        -13    1    3    3    0    0  0.38765426276E+02 -0.23223253555E+02 -0.20462893835E+03  0.20955925222E+03  0.00000000000E+00 0. -1.
         13    1    3    3    0    0 -0.38765426276E+02  0.23223253555E+02 -0.13819793339E+03  0.14539857830E+03  0.00000000000E+00 0.  1.
<mgrwt>
<rscale>  0 0.92004334E+02</rscale>
<asrwt>0</asrwt>
<pdfrwt beam="2">  1        3 0.53675752E-01 0.92004334E+02</pdfrwt>
<pdfrwt beam="1">  1       -3 0.93315058E-03 0.92004334E+02</pdfrwt>
<totfact> 0.21521505E+04</totfact>
</mgrwt>
</event>
<event>
 5    1  0.1270889E+001  0.9063258E+02  0.7546771E-02  0.1301327E+00
         -2   -1    0    0    0  501 -0.00000000000E+00  0.00000000000E+00  0.15365030243E+02  0.15365030243E+02  0.00000000000E+00 0.  1.
          2   -1    0    0  501    0  0.00000000000E+00 -0.00000000000E+00 -0.13365195103E+03  0.13365195103E+03  0.00000000000E+00 0. -1.
         23    2    1    2    0    0  0.00000000000E+00  0.00000000000E+00 -0.11828692079E+03  0.14901698128E+03  0.90632582875E+02 0.  0.
        -11    1    3    3    0    0  0.21005296129E+02 -0.31449106554E+02 -0.10019213107E+03  0.10709216543E+03  0.00000000000E+00 0. -1.
         11    1    3    3    0    0 -0.21005296129E+02  0.31449106554E+02 -0.18094789717E+02  0.41924815842E+02  0.00000000000E+00 0.  1.
<mgrwt>
<rscale>  0 0.90632583E+02</rscale>
<asrwt>0</asrwt>
<pdfrwt beam="2">  1        2 0.20561839E-01 0.90632583E+02</pdfrwt>
<pdfrwt beam="1">  1       -2 0.23638507E-02 0.90632583E+02</pdfrwt>
<totfact> 0.13671191E+05</totfact>
</mgrwt>
</event>
<event>
 5    1  0.1270889E+001  0.9036445E+02  0.7546771E-02  0.1301972E+00
         -1   -1    0    0    0  501 -0.00000000000E+00  0.00000000000E+00  0.58250508494E+01  0.58250508494E+01  0.00000000000E+00 0. -1.
          1   -1    0    0  501    0  0.00000000000E+00 -0.00000000000E+00 -0.35045763507E+03  0.35045763507E+03  0.00000000000E+00 0.  1.
         23    2    1    2    0    0  0.00000000000E+00  0.00000000000E+00 -0.34463258422E+03  0.35628268592E+03  0.90364451967E+02 0.  0.
        -13    1    3    3    0    0  0.35159285683E+02  0.25497455877E+02 -0.22142472543E+03  0.22564397767E+03  0.00000000000E+00 0.  1.
         13    1    3    3    0    0 -0.35159285683E+02 -0.25497455877E+02 -0.12320785879E+03  0.13063870825E+03  0.00000000000E+00 0. -1.
<mgrwt>
<rscale>  0 0.90364452E+02</rscale>
<asrwt>0</asrwt>
<pdfrwt beam="2">  1        1 0.53916566E-01 0.90364452E+02</pdfrwt>
<pdfrwt beam="1">  1       -1 0.89616156E-03 0.90364452E+02</pdfrwt>
<totfact> 0.13503645E+05</totfact>
</mgrwt>
</event>
<event>
 5    1  0.1270889E+001  0.9064112E+02  0.7546771E-02  0.1301307E+00
          2   -1    0    0  501    0  0.00000000000E+00  0.00000000000E+00  0.29209534677E+03  0.29209534677E+03  0.00000000000E+00 0. -1.
         -2   -1    0    0    0  501 -0.00000000000E+00 -0.00000000000E+00 -0.70317900076E+01  0.70317900076E+01  0.00000000000E+00 0.  1.
         23    2    1    2    0    0  0.00000000000E+00  0.00000000000E+00  0.28506355676E+03  0.29912713677E+03  0.90641119602E+02 0.  0.
        -11    1    3    3    0    0  0.32198629112E+02  0.30128196829E+02  0.10799959115E+03  0.11665492553E+03  0.00000000000E+00 0.  1.
         11    1    3    3    0    0 -0.32198629112E+02 -0.30128196829E+02  0.17706396561E+03  0.18247221125E+03  0.00000000000E+00 0. -1.
<mgrwt>
<rscale>  0 0.90641120E+02</rscale>
<asrwt>0</asrwt>
<pdfrwt beam="1">  1        2 0.44937736E-01 0.90641120E+02</pdfrwt>
<pdfrwt beam="2">  1       -2 0.10818141E-02 0.90641120E+02</pdfrwt>
<totfact> 0.18070007E+05</totfact>
</mgrwt>
</event>
<event>
 5    1  0.1270889E+001  0.9162617E+02  0.7546771E-02  0.1298961E+00
         -1   -1    0    0    0  501 -0.00000000000E+00  0.00000000000E+00  0.53183169806E+02  0.53183169806E+02  0.00000000000E+00 0.  1.
          1   -1    0    0  501    0  0.00000000000E+00 -0.00000000000E+00 -0.39464337768E+02  0.39464337768E+02  0.00000000000E+00 0. -1.
         23    2    1    2    0    0  0.00000000000E+00  0.00000000000E+00  0.13718832038E+02  0.92647507574E+02  0.91626166062E+02 0.  0.
        -11    1    3    3    0    0  0.64250047145E+01  0.35183976274E+02  0.35807998951E+02  0.50610331563E+02  0.00000000000E+00 0.  1.
         11    1    3    3    0    0 -0.64250047145E+01 -0.35183976274E+02 -0.22089166913E+02  0.42037176011E+02  0.00000000000E+00 0. -1.
<mgrwt>
<rscale>  0 0.91626166E+02</rscale>
<asrwt>0</asrwt>
<pdfrwt beam="2">  1        1 0.60714366E-02 0.91626166E+02</pdfrwt>
<pdfrwt beam="1">  1       -1 0.81820261E-02 0.91626166E+02</pdfrwt>
<totfact> 0.89227617E+04</totfact>
</mgrwt>
</event>
<event>
 5    1  0.1270889E+001  0.5604018E+02  0.7546771E-02  0.1415243E+00
         -1   -1    0    0    0  501 -0.00000000000E+00  0.00000000000E+00  0.65385355043E+02  0.65385355043E+02  0.00000000000E+00 0.  1.
          1   -1    0    0  501    0  0.00000000000E+00 -0.00000000000E+00 -0.12007664867E+02  0.12007664867E+02  0.00000000000E+00 0. -1.
         23    2    1    2    0    0  0.00000000000E+00  0.00000000000E+00  0.53377690176E+02  0.77393019910E+02  0.56040179534E+02 0.  0.
        -13    1    3    3    0    0 -0.14785133809E+02  0.22780266419E+02  0.17162287613E+02  0.32126077195E+02  0.00000000000E+00 0. -1.
         13    1    3    3    0    0  0.14785133809E+02 -0.22780266419E+02  0.36215402563E+02  0.45266942714E+02  0.00000000000E+00 0.  1.
<mgrwt>
<rscale>  0 0.56040180E+02</rscale>
<asrwt>0</asrwt>
<pdfrwt beam="2">  1        1 0.18473331E-02 0.56040180E+02</pdfrwt>
<pdfrwt beam="1">  1       -1 0.10059285E-01 0.56040180E+02</pdfrwt>
<totfact> 0.29846940E+05</totfact>
</mgrwt>
</event>
<event>
 5    1  0.1270889E+001  0.9128641E+02  0.7546771E-02  0.1299766E+00
         -4   -1    0    0    0  501 -0.00000000000E+00  0.00000000000E+00  0.17712360287E+02  0.17712360287E+02  0.00000000000E+00 0.  1.
          4   -1    0    0  501    0  0.00000000000E+00 -0.00000000000E+00 -0.11761854374E+03  0.11761854374E+03  0.00000000000E+00 0. -1.
         23    2    1    2    0    0  0.00000000000E+00  0.00000000000E+00 -0.99906183449E+02  0.13533090402E+03  0.91286406942E+02 0.  0.
        -11    1    3    3    0    0 -0.38339474026E+01 -0.30956444402E+02 -0.99351313683E+02  0.10413301174E+03  0.00000000000E+00 0. -1.
         11    1    3    3    0    0  0.38339474026E+01  0.30956444402E+02 -0.55486976570E+00  0.31197892287E+02  0.00000000000E+00 0.  1.
<mgrwt>
<rscale>  0 0.91286407E+02</rscale>
<asrwt>0</asrwt>
<pdfrwt beam="2">  1        4 0.18095161E-01 0.91286407E+02</pdfrwt>
<pdfrwt beam="1">  1       -4 0.27249784E-02 0.91286407E+02</pdfrwt>
<totfact> 0.24352110E+04</totfact>
</mgrwt>
</event>
<event>
 5    1  0.1270889E+001  0.9114420E+02  0.7546771E-02  0.1300104E+00
         -1   -1    0    0    0  501 -0.00000000000E+00  0.00000000000E+00  0.11221956819E+02  0.11221956819E+02  0.00000000000E+00 0.  1.
          1   -1    0    0  501    0  0.00000000000E+00 -0.00000000000E+00 -0.18506721219E+03  0.18506721219E+03  0.00000000000E+00 0. -1.
         23    2    1    2    0    0  0.00000000000E+00  0.00000000000E+00 -0.17384525537E+03  0.19628916901E+03  0.91144199242E+02 0.  0.
        -11    1    3    3    0    0  0.44878193134E+02  0.67416977914E+01 -0.95883709408E+02  0.10608104655E+03  0.00000000000E+00 0.  1.
         11    1    3    3    0    0 -0.44878193134E+02 -0.67416977914E+01 -0.77961545966E+02  0.90208122459E+02  0.00000000000E+00 0. -1.
<mgrwt>
<rscale>  0 0.91144199E+02</rscale>
<asrwt>0</asrwt>
<pdfrwt beam="2">  1        1 0.28471876E-01 0.91144199E+02</pdfrwt>
<pdfrwt beam="1">  1       -1 0.17264550E-02 0.91144199E+02</pdfrwt>
<totfact> 0.11675758E+05</totfact>
</mgrwt>
</event>
<event>
 5    1  0.1270889E+001  0.9022659E+02  0.7546771E-02  0.1302304E+00
          2   -1    0    0  501    0  0.00000000000E+00  0.00000000000E+00  0.13461624751E+02  0.13461624751E+02  0.00000000000E+00 0. -1.
         -2   -1    0    0    0  501 -0.00000000000E+00 -0.00000000000E+00 -0.15118601378E+03  0.15118601378E+03  0.00000000000E+00 0.  1.
         23    2    1    2    0    0  0.00000000000E+00  0.00000000000E+00 -0.13772438903E+03  0.16464763853E+03  0.90226589987E+02 0.  0.
        -13    1    3    3    0    0 -0.25558075144E+02 -0.47516320468E+01 -0.13614392894E+03  0.13860361683E+03  0.00000000000E+00 0.  1.
         13    1    3    3    0    0  0.25558075144E+02  0.47516320468E+01 -0.15804600896E+01  0.26044021699E+02  0.00000000000E+00 0. -1.
<mgrwt>
<rscale>  0 0.90226590E+02</rscale>
<asrwt>0</asrwt>
<pdfrwt beam="1">  1        2 0.20710192E-02 0.90226590E+02</pdfrwt>
<pdfrwt beam="2">  1       -2 0.23259386E-01 0.90226590E+02</pdfrwt>
<totfact> 0.71527470E+04</totfact>
</mgrwt>
</event>
<event>
 5    1  0.1270889E+001  0.9337219E+02  0.7546771E-02  0.1294885E+00
          2   -1    0    0  501    0  0.00000000000E+00  0.00000000000E+00  0.27597487475E+03  0.27597487475E+03  0.00000000000E+00 0. -1.
         -2   -1    0    0    0  501 -0.00000000000E+00 -0.00000000000E+00 -0.78977889537E+01  0.78977889537E+01  0.00000000000E+00 0.  1.
         23    2    1    2    0    0  0.00000000000E+00  0.00000000000E+00  0.26807708580E+03  0.28387266370E+03  0.93372186807E+02 0.  0.
        -13    1    3    3    0    0  0.14228573251E+02 -0.44349330897E+02  0.12429279142E+03  0.13273286499E+03  0.00000000000E+00 0.  1.
         13    1    3    3    0    0 -0.14228573251E+02  0.44349330897E+02  0.14378429437E+03  0.15113979871E+03  0.00000000000E+00 0. -1.
<mgrwt>
<rscale>  0 0.93372187E+02</rscale>
<asrwt>0</asrwt>
<pdfrwt beam="1">  1        2 0.42457666E-01 0.93372187E+02</pdfrwt>
<pdfrwt beam="2">  1       -2 0.12150447E-02 0.93372187E+02</pdfrwt>
<totfact> 0.16340368E+05</totfact>
</mgrwt>
</event>
<event>
 5    1  0.1270889E+001  0.6459560E+02  0.7546771E-02  0.1379499E+00
         -1   -1    0    0    0  501 -0.00000000000E+00  0.00000000000E+00  0.10270100128E+03  0.10270100128E+03  0.00000000000E+00 0.  1.
          1   -1    0    0  501    0  0.00000000000E+00 -0.00000000000E+00 -0.10157134081E+02  0.10157134081E+02  0.00000000000E+00 0. -1.
         23    2    1    2    0    0  0.00000000000E+00  0.00000000000E+00  0.92543867198E+02  0.11285813536E+03  0.64595598618E+02 0.  0.
        -13    1    3    3    0    0 -0.21929475559E+02 -0.10795903368E+02  0.93870397417E+01  0.26183390592E+02  0.00000000000E+00 0. -1.
         13    1    3    3    0    0  0.21929475559E+02  0.10795903368E+02  0.83156827456E+02  0.86674744767E+02  0.00000000000E+00 0.  1.
<mgrwt>
<rscale>  0 0.64595599E+02</rscale>
<asrwt>0</asrwt>
<pdfrwt beam="2">  1        1 0.15626361E-02 0.64595599E+02</pdfrwt>
<pdfrwt beam="1">  1       -1 0.15800153E-01 0.64595599E+02</pdfrwt>
<totfact> 0.19526447E+05</totfact>
</mgrwt>
</event>
<event>
 5    1  0.1270889E+001  0.9331846E+02  0.7546771E-02  0.1295009E+00
         -4   -1    0    0    0  501 -0.00000000000E+00  0.00000000000E+00  0.13875744006E+02  0.13875744006E+02  0.00000000000E+00 0.  1.
          4   -1    0    0  501    0  0.00000000000E+00 -0.00000000000E+00 -0.15689853044E+03  0.15689853044E+03  0.00000000000E+00 0. -1.
         23    2    1    2    0    0  0.00000000000E+00  0.00000000000E+00 -0.14302278643E+03  0.17077427444E+03  0.93318462122E+02 0.  0.
        -13    1    3    3    0    0  0.41621865257E+02  0.38593929308E+01 -0.33571792085E+02  0.53612869771E+02  0.00000000000E+00 0.  1.
         13    1    3    3    0    0 -0.41621865257E+02 -0.38593929308E+01 -0.10945099435E+03  0.11716140467E+03  0.00000000000E+00 0. -1.
<mgrwt>
<rscale>  0 0.93318462E+02</rscale>
<asrwt>0</asrwt>
<pdfrwt beam="2">  1        4 0.24138236E-01 0.93318462E+02</pdfrwt>
<pdfrwt beam="1">  1       -4 0.21347298E-02 0.93318462E+02</pdfrwt>
<totfact> 0.21297119E+04</totfact>
</mgrwt>
</event>
<event>
 5    1  0.1270889E+001  0.9114360E+02  0.7546771E-02  0.1300106E+00
         -3   -1    0    0    0  501 -0.00000000000E+00  0.00000000000E+00  0.34883291065E+03  0.34883291065E+03  0.00000000000E+00 0.  1.
          3   -1    0    0  501    0  0.00000000000E+00 -0.00000000000E+00 -0.59535353398E+01  0.59535353398E+01  0.00000000000E+00 0. -1.
         23    2    1    2    0    0  0.00000000000E+00  0.00000000000E+00  0.34287937531E+03  0.35478644599E+03  0.91143602327E+02 0.  0.
        -13    1    3    3    0    0 -0.81060280641E+01 -0.43197394847E+02  0.12455572404E+03  0.13208274302E+03  0.00000000000E+00 0. -1.
         13    1    3    3    0    0  0.81060280641E+01  0.43197394847E+02  0.21832365128E+03  0.22270370298E+03  0.00000000000E+00 0.  1.
<mgrwt>
<rscale>  0 0.91143602E+02</rscale>
<asrwt>0</asrwt>
<pdfrwt beam="2">  1        3 0.91592879E-03 0.91143602E+02</pdfrwt>
<pdfrwt beam="1">  1       -3 0.53666586E-01 0.91143602E+02</pdfrwt>
<totfact> 0.22065404E+04</totfact>
</mgrwt>
</event>
<event>
 5    1  0.1270889E+001  0.9161735E+02  0.7546771E-02  0.1298982E+00
         -1   -1    0    0    0  501 -0.00000000000E+00  0.00000000000E+00  0.11462113362E+03  0.11462113362E+03  0.00000000000E+00 0.  1.
          1   -1    0    0  501    0  0.00000000000E+00 -0.00000000000E+00 -0.18307573377E+02  0.18307573377E+02  0.00000000000E+00 0. -1.
         23    2    1    2    0    0  0.00000000000E+00  0.00000000000E+00  0.96313560247E+02  0.13292870700E+03  0.91617352383E+02 0.  0.
        -11    1    3    3    0    0  0.32423198510E+02 -0.32338087728E+02  0.49885190077E+02  0.67716673785E+02  0.00000000000E+00 0. -1.
         11    1    3    3    0    0 -0.32423198510E+02  0.32338087728E+02  0.46428370170E+02  0.65212033216E+02  0.00000000000E+00 0.  1.
<mgrwt>
<rscale>  0 0.91617352E+02</rscale>
<asrwt>0</asrwt>
<pdfrwt beam="2">  1        1 0.28165498E-02 0.91617352E+02</pdfrwt>
<pdfrwt beam="1">  1       -1 0.17634020E-01 0.91617352E+02</pdfrwt>
<totfact> 0.78279703E+04</totfact>
</mgrwt>
</event>
<event>
 5    1  0.1270889E+001  0.9223768E+02  0.7546771E-02  0.1297522E+00
          3   -1    0    0  501    0  0.00000000000E+00  0.00000000000E+00  0.89920686485E+02  0.89920686485E+02  0.00000000000E+00 0. -1.
         -3   -1    0    0    0  501 -0.00000000000E+00 -0.00000000000E+00 -0.23653591821E+02  0.23653591821E+02  0.00000000000E+00 0.  1.
         23    2    1    2    0    0  0.00000000000E+00  0.00000000000E+00  0.66267094664E+02  0.11357427831E+03  0.92237675911E+02 0.  0.
        -13    1    3    3    0    0 -0.37657276786E+02  0.23391003950E+02  0.17474072129E+02  0.47650317496E+02  0.00000000000E+00 0.  1.
         13    1    3    3    0    0  0.37657276786E+02 -0.23391003950E+02  0.48793022534E+02  0.65923960809E+02  0.00000000000E+00 0. -1.
<mgrwt>
<rscale>  0 0.92237676E+02</rscale>
<asrwt>0</asrwt>
<pdfrwt beam="1">  1        3 0.13833952E-01 0.92237676E+02</pdfrwt>
<pdfrwt beam="2">  1       -3 0.36390142E-02 0.92237676E+02</pdfrwt>
<totfact> 0.32646727E+04</totfact>
</mgrwt>
</event>
<event>
 5    1  0.1270889E+001  0.9241204E+02  0.7546771E-02  0.1297114E+00
          1   -1    0    0  501    0  0.00000000000E+00  0.00000000000E+00  0.64663316626E+02  0.64663316626E+02  0.00000000000E+00 0. -1.
         -1   -1    0    0    0  501 -0.00000000000E+00 -0.00000000000E+00 -0.33017119963E+02  0.33017119963E+02  0.00000000000E+00 0.  1.
         23    2    1    2    0    0  0.00000000000E+00  0.00000000000E+00  0.31646196663E+02  0.97680436589E+02  0.92412044286E+02 0.  0.
        -11    1    3    3    0    0  0.33980752161E+02 -0.52374352699E+01  0.48451575649E+02  0.59411088430E+02  0.00000000000E+00 0. -1.
         11    1    3    3    0    0 -0.33980752161E+02  0.52374352699E+01 -0.16805378986E+02  0.38269348159E+02  0.00000000000E+00 0.  1.
<mgrwt>
<rscale>  0 0.92412044E+02</rscale>
<asrwt>0</asrwt>
<pdfrwt beam="1">  1        1 0.99482025E-02 0.92412044E+02</pdfrwt>
<pdfrwt beam="2">  1       -1 0.50795569E-02 0.92412044E+02</pdfrwt>
<totfact> 0.93905588E+04</totfact>
</mgrwt>
</event>
<event>
 5    1  0.1270889E+001  0.9705056E+02  0.7546771E-02  0.1286623E+00
          1   -1    0    0  501    0  0.00000000000E+00  0.00000000000E+00  0.62747257988E+02  0.62747257988E+02  0.00000000000E+00 0. -1.
         -1   -1    0    0    0  501 -0.00000000000E+00 -0.00000000000E+00 -0.37526784957E+02  0.37526784957E+02  0.00000000000E+00 0.  1.
         23    2    1    2    0    0  0.00000000000E+00  0.00000000000E+00  0.25220473031E+02  0.10027404294E+03  0.97050561196E+02 0.  0.
        -13    1    3    3    0    0  0.47589416434E+02 -0.85911303753E+01  0.84589794178E+01  0.49092916092E+02  0.00000000000E+00 0. -1.
         13    1    3    3    0    0 -0.47589416434E+02  0.85911303753E+01  0.16761493613E+02  0.51181126852E+02  0.00000000000E+00 0.  1.
<mgrwt>
<rscale>  0 0.97050561E+02</rscale>
<asrwt>0</asrwt>
<pdfrwt beam="1">  1        1 0.96534243E-02 0.97050561E+02</pdfrwt>
<pdfrwt beam="2">  1       -1 0.57733515E-02 0.97050561E+02</pdfrwt>
<totfact> 0.81547231E+04</totfact>
</mgrwt>
</event>
<event>
 5    1  0.1270889E+001  0.9100866E+02  0.7546771E-02  0.1300427E+00
          1   -1    0    0  501    0  0.00000000000E+00  0.00000000000E+00  0.21250781964E+03  0.21250781964E+03  0.00000000000E+00 0. -1.
         -1   -1    0    0    0  501 -0.00000000000E+00 -0.00000000000E+00 -0.97438487486E+01  0.97438487486E+01  0.00000000000E+00 0.  1.
         23    2    1    2    0    0  0.00000000000E+00  0.00000000000E+00  0.20276397089E+03  0.22225166839E+03  0.91008660081E+02 0.  0.
        -13    1    3    3    0    0  0.44200471625E+02  0.38531258924E+01  0.76704054645E+02  0.88611738895E+02  0.00000000000E+00 0. -1.
         13    1    3    3    0    0 -0.44200471625E+02 -0.38531258924E+01  0.12605991625E+03  0.13363992949E+03  0.00000000000E+00 0.  1.
<mgrwt>
<rscale>  0 0.91008660E+02</rscale>
<asrwt>0</asrwt>
<pdfrwt beam="1">  1        1 0.32693507E-01 0.91008660E+02</pdfrwt>
<pdfrwt beam="2">  1       -1 0.14990538E-02 0.91008660E+02</pdfrwt>
<totfact> 0.12040524E+05</totfact>
</mgrwt>
</event>
<event>
 5    1  0.1270889E+001  0.8542546E+02  0.7546771E-02  0.1314324E+00
         -2   -1    0    0    0  501 -0.00000000000E+00  0.00000000000E+00  0.88723977399E+02  0.88723977399E+02  0.00000000000E+00 0.  1.
          2   -1    0    0  501    0  0.00000000000E+00 -0.00000000000E+00 -0.20562391990E+02  0.20562391990E+02  0.00000000000E+00 0. -1.
         23    2    1    2    0    0  0.00000000000E+00  0.00000000000E+00  0.68161585409E+02  0.10928636939E+03  0.85425457615E+02 0.  0.
        -11    1    3    3    0    0 -0.22192754295E+02  0.36150855160E+02  0.27687459376E+02  0.50655681604E+02  0.00000000000E+00 0. -1.
         11    1    3    3    0    0  0.22192754295E+02 -0.36150855160E+02  0.40474126033E+02  0.58630687785E+02  0.00000000000E+00 0.  1.
<mgrwt>
<rscale>  0 0.85425458E+02</rscale>
<asrwt>0</asrwt>
<pdfrwt beam="2">  1        2 0.31634450E-02 0.85425458E+02</pdfrwt>
<pdfrwt beam="1">  1       -2 0.13649843E-01 0.85425458E+02</pdfrwt>
<totfact> 0.97086801E+04</totfact>
</mgrwt>
</event>
<event>
 5    1  0.1270889E+001  0.8987779E+02  0.7546771E-02  0.1303148E+00
          2   -1    0    0  501    0  0.00000000000E+00  0.00000000000E+00  0.53706785620E+02  0.53706785620E+02  0.00000000000E+00 0. -1.
         -2   -1    0    0    0  501 -0.00000000000E+00 -0.00000000000E+00 -0.37602402898E+02  0.37602402898E+02  0.00000000000E+00 0.  1.
         23    2    1    2    0    0  0.00000000000E+00  0.00000000000E+00  0.16104382722E+02  0.91309188518E+02  0.89877787940E+02 0.  0.
        -13    1    3    3    0    0  0.25756851495E+02  0.78230976880E+01 -0.28505452714E+02  0.39206850049E+02  0.00000000000E+00 0.  1.
         13    1    3    3    0    0 -0.25756851495E+02 -0.78230976880E+01  0.44609835435E+02  0.52102338469E+02  0.00000000000E+00 0. -1.
<mgrwt>
<rscale>  0 0.89877788E+02</rscale>
<asrwt>0</asrwt>
<pdfrwt beam="1">  1        2 0.82625824E-02 0.89877788E+02</pdfrwt>
<pdfrwt beam="2">  1       -2 0.57849851E-02 0.89877788E+02</pdfrwt>
<totfact> 0.10726517E+05</totfact>
</mgrwt>
</event>
<event>
 5    1  0.1270889E+001  0.9671677E+02  0.7546771E-02  0.1287356E+00
          1   -1    0    0  501    0  0.00000000000E+00  0.00000000000E+00  0.83105051145E+02  0.83105051145E+02  0.00000000000E+00 0. -1.
         -1   -1    0    0    0  501 -0.00000000000E+00 -0.00000000000E+00 -0.28139487569E+02  0.28139487569E+02  0.00000000000E+00 0.  1.
         23    2    1    2    0    0  0.00000000000E+00  0.00000000000E+00  0.54965563576E+02  0.11124453871E+03  0.96716773180E+02 0.  0.
        -13    1    3    3    0    0  0.31044555300E+02  0.12420086335E+02 -0.12700710504E+02  0.35767736938E+02  0.00000000000E+00 0.  1.
         13    1    3    3    0    0 -0.31044555300E+02 -0.12420086335E+02  0.67666274081E+02  0.75476801776E+02  0.00000000000E+00 0. -1.
<mgrwt>
<rscale>  0 0.96716773E+02</rscale>
<asrwt>0</asrwt>
<pdfrwt beam="1">  1        1 0.12785392E-01 0.96716773E+02</pdfrwt>
<pdfrwt beam="2">  1       -1 0.43291520E-02 0.96716773E+02</pdfrwt>
<totfact> 0.86153051E+04</totfact>
</mgrwt>
</event>
<event>
 5    1  0.1270889E+001  0.8193042E+02  0.7546771E-02  0.1323661E+00
          1   -1    0    0  501    0  0.00000000000E+00  0.00000000000E+00  0.34206381273E+02  0.34206381273E+02  0.00000000000E+00 0. -1.
         -1   -1    0    0    0  501 -0.00000000000E+00 -0.00000000000E+00 -0.49059509661E+02  0.49059509661E+02  0.00000000000E+00 0.  1.
         23    2    1    2    0    0  0.00000000000E+00  0.00000000000E+00 -0.14853128388E+02  0.83265890934E+02  0.81930416636E+02 0.  0.
        -13    1    3    3    0    0  0.34174932771E+02 -0.19454127519E+02  0.42391792219E+01  0.39551987913E+02  0.00000000000E+00 0. -1.
         13    1    3    3    0    0 -0.34174932771E+02  0.19454127519E+02 -0.19092307610E+02  0.43713903021E+02  0.00000000000E+00 0.  1.
<mgrwt>
<rscale>  0 0.81930417E+02</rscale>
<asrwt>0</asrwt>
<pdfrwt beam="1">  1        1 0.52625202E-02 0.81930417E+02</pdfrwt>
<pdfrwt beam="2">  1       -1 0.75476168E-02 0.81930417E+02</pdfrwt>
<totfact> 0.11965087E+05</totfact>
</mgrwt>
</event>
<event>
 5    1  0.1270889E+001  0.8497879E+02  0.7546771E-02  0.1315488E+00
          2   -1    0    0  501    0  0.00000000000E+00  0.00000000000E+00  0.12588590049E+03  0.12588590049E+03  0.00000000000E+00 0. -1.
         -2   -1    0    0    0  501 -0.00000000000E+00 -0.00000000000E+00 -0.14341152212E+02  0.14341152212E+02  0.00000000000E+00 0.  1.
         23    2    1    2    0    0  0.00000000000E+00  0.00000000000E+00  0.11154474828E+03  0.14022705270E+03  0.84978794067E+02 0.  0.
        -11    1    3    3    0    0  0.13733557736E+02  0.39581818291E+02  0.44102020256E+02  0.60830248544E+02  0.00000000000E+00 0. -1.
         11    1    3    3    0    0 -0.13733557736E+02 -0.39581818291E+02  0.67442728024E+02  0.79396804159E+02  0.00000000000E+00 0.  1.
<mgrwt>
<rscale>  0 0.84978794E+02</rscale>
<asrwt>0</asrwt>
<pdfrwt beam="1">  1        2 0.19367061E-01 0.84978794E+02</pdfrwt>
<pdfrwt beam="2">  1       -2 0.22063312E-02 0.84978794E+02</pdfrwt>
<totfact> 0.15966232E+05</totfact>
</mgrwt>
</event>
<event>
 5    1  0.1270889E+001  0.9089960E+02  0.7546771E-02  0.1300688E+00
         -1   -1    0    0    0  501 -0.00000000000E+00  0.00000000000E+00  0.13075757662E+02  0.13075757662E+02  0.00000000000E+00 0.  1.
          1   -1    0    0  501    0  0.00000000000E+00 -0.00000000000E+00 -0.15797815879E+03  0.15797815879E+03  0.00000000000E+00 0. -1.
         23    2    1    2    0    0  0.00000000000E+00  0.00000000000E+00 -0.14490240113E+03  0.17105391646E+03  0.90899595605E+02 0.  0.
        -13    1    3    3    0    0 -0.51959845042E+01 -0.23954341517E+02 -0.14447423456E+03  0.14653877707E+03  0.00000000000E+00 0. -1.
         13    1    3    3    0    0  0.51959845042E+01  0.23954341517E+02 -0.42816656756E+00  0.24515139385E+02  0.00000000000E+00 0.  1.
<mgrwt>
<rscale>  0 0.90899596E+02</rscale>
<asrwt>0</asrwt>
<pdfrwt beam="2">  1        1 0.24304332E-01 0.90899596E+02</pdfrwt>
<pdfrwt beam="1">  1       -1 0.20116551E-02 0.90899596E+02</pdfrwt>
<totfact> 0.11414478E+05</totfact>
</mgrwt>
</event>
<event>
 5    1  0.1270889E+001  0.9024720E+02  0.7546771E-02  0.1302254E+00
          2   -1    0    0  501    0  0.00000000000E+00  0.00000000000E+00  0.14064631278E+02  0.14064631278E+02  0.00000000000E+00 0.  1.
         -2   -1    0    0    0  501 -0.00000000000E+00 -0.00000000000E+00 -0.14477018876E+03  0.14477018876E+03  0.00000000000E+00 0. -1.
         23    2    1    2    0    0  0.00000000000E+00  0.00000000000E+00 -0.13070555749E+03  0.15883482004E+03  0.90247201064E+02 0.  0.
        -11    1    3    3    0    0  0.30638974424E+02 -0.23925937901E+02 -0.25028402133E+02  0.46234383001E+02  0.00000000000E+00 0.  1.
         11    1    3    3    0    0 -0.30638974424E+02  0.23925937901E+02 -0.10567715535E+03  0.11260043704E+03  0.00000000000E+00 0. -1.
<mgrwt>
<rscale>  0 0.90247201E+02</rscale>
<asrwt>0</asrwt>
<pdfrwt beam="1">  1        2 0.21637895E-02 0.90247201E+02</pdfrwt>
<pdfrwt beam="2">  1       -2 0.22272336E-01 0.90247201E+02</pdfrwt>
<totfact> 0.72612065E+04</totfact>
</mgrwt>
</event>
<event>
 5    1  0.1270889E+001  0.9280035E+02  0.7546771E-02  0.1296209E+00
          3   -1    0    0  501    0  0.00000000000E+00  0.00000000000E+00  0.82985735443E+01  0.82985735443E+01  0.00000000000E+00 0. -1.
         -3   -1    0    0    0  501 -0.00000000000E+00 -0.00000000000E+00 -0.25943933046E+03  0.25943933046E+03  0.00000000000E+00 0.  1.
         23    2    1    2    0    0  0.00000000000E+00  0.00000000000E+00 -0.25114075692E+03  0.26773790400E+03  0.92800352674E+02 0.  0.
        -13    1    3    3    0    0  0.26316882155E+02 -0.38087306606E+02 -0.11655928945E+03  0.12541646290E+03  0.00000000000E+00 0. -1.
         13    1    3    3    0    0 -0.26316882155E+02  0.38087306606E+02 -0.13458146747E+03  0.14232144110E+03  0.00000000000E+00 0.  1.
<mgrwt>
<rscale>  0 0.92800353E+02</rscale>
<asrwt>0</asrwt>
<pdfrwt beam="1">  1        3 0.12767037E-02 0.92800353E+02</pdfrwt>
<pdfrwt beam="2">  1       -3 0.39913740E-01 0.92800353E+02</pdfrwt>
<totfact> 0.24153847E+04</totfact>
</mgrwt>
</event>
<event>
 5    1  0.1270889E+001  0.9061904E+02  0.7546771E-02  0.1301359E+00
         -2   -1    0    0    0  501 -0.00000000000E+00  0.00000000000E+00  0.87324298243E+01  0.87324298243E+01  0.00000000000E+00 0. -1.
          2   -1    0    0  501    0  0.00000000000E+00 -0.00000000000E+00 -0.23509521039E+03  0.23509521039E+03  0.00000000000E+00 0.  1.
         23    2    1    2    0    0  0.00000000000E+00  0.00000000000E+00 -0.22636278057E+03  0.24382764022E+03  0.90619036119E+02 0.  0.
        -11    1    3    3    0    0  0.31235305245E+02  0.26408028283E+02 -0.16562734091E+03  0.17060317790E+03  0.00000000000E+00 0.  1.
         11    1    3    3    0    0 -0.31235305245E+02 -0.26408028283E+02 -0.60735439659E+02  0.73224462320E+02  0.00000000000E+00 0. -1.
<mgrwt>
<rscale>  0 0.90619036E+02</rscale>
<asrwt>0</asrwt>
<pdfrwt beam="2">  1        2 0.36168491E-01 0.90619036E+02</pdfrwt>
<pdfrwt beam="1">  1       -2 0.13434508E-02 0.90619036E+02</pdfrwt>
<totfact> 0.16681348E+05</totfact>
</mgrwt>
</event>
<event>
 5    1  0.1270889E+001  0.9132466E+02  0.7546771E-02  0.1299675E+00
          1   -1    0    0  501    0  0.00000000000E+00  0.00000000000E+00  0.31356697662E+03  0.31356697662E+03  0.00000000000E+00 0. -1.
         -1   -1    0    0    0  501 -0.00000000000E+00 -0.00000000000E+00 -0.66494513005E+01  0.66494513005E+01  0.00000000000E+00 0.  1.
         23    2    1    2    0    0  0.00000000000E+00  0.00000000000E+00  0.30691752532E+03  0.32021642792E+03  0.91324659112E+02 0.  0.
        -11    1    3    3    0    0 -0.37675786960E+02  0.19805261787E+02  0.95488777401E+02  0.10454577910E+03  0.00000000000E+00 0.  1.
         11    1    3    3    0    0  0.37675786960E+02 -0.19805261787E+02  0.21142874792E+03  0.21567064882E+03  0.00000000000E+00 0. -1.
<mgrwt>
<rscale>  0 0.91324659E+02</rscale>
<asrwt>0</asrwt>
<pdfrwt beam="1">  1        1 0.48241062E-01 0.91324659E+02</pdfrwt>
<pdfrwt beam="2">  1       -1 0.10229928E-02 0.91324659E+02</pdfrwt>
<totfact> 0.12864270E+05</totfact>
</mgrwt>
</event>
<event>
 5    1  0.1270889E+001  0.9172610E+02  0.7546771E-02  0.1298725E+00
         -1   -1    0    0    0  501 -0.00000000000E+00  0.00000000000E+00  0.66317769881E+02  0.66317769881E+02  0.00000000000E+00 0.  1.
          1   -1    0    0  501    0  0.00000000000E+00 -0.00000000000E+00 -0.31717283600E+02  0.31717283600E+02  0.00000000000E+00 0. -1.
         23    2    1    2    0    0  0.00000000000E+00  0.00000000000E+00  0.34600486282E+02  0.98035053481E+02  0.91726103483E+02 0.  0.
        -11    1    3    3    0    0  0.90002591008E+01 -0.16519014523E+02 -0.27404130269E+02  0.33239567694E+02  0.00000000000E+00 0. -1.
         11    1    3    3    0    0 -0.90002591008E+01  0.16519014523E+02  0.62004616551E+02  0.64795485787E+02  0.00000000000E+00 0.  1.
<mgrwt>
<rscale>  0 0.91726103E+02</rscale>
<asrwt>0</asrwt>
<pdfrwt beam="2">  1        1 0.48795821E-02 0.91726103E+02</pdfrwt>
<pdfrwt beam="1">  1       -1 0.10202734E-01 0.91726103E+02</pdfrwt>
<totfact> 0.85967859E+04</totfact>
</mgrwt>
</event>
<event>
 5    1  0.1270889E+001  0.8811494E+02  0.7546771E-02  0.1307482E+00
          1   -1    0    0  501    0  0.00000000000E+00  0.00000000000E+00  0.77373965373E+02  0.77373965373E+02  0.00000000000E+00 0. -1.
         -1   -1    0    0    0  501 -0.00000000000E+00 -0.00000000000E+00 -0.25086740152E+02  0.25086740152E+02  0.00000000000E+00 0.  1.
         23    2    1    2    0    0  0.00000000000E+00  0.00000000000E+00  0.52287225221E+02  0.10246070553E+03  0.88114937754E+02 0.  0.
        -13    1    3    3    0    0  0.40253066849E+01 -0.43293343590E+02  0.17876724637E+02  0.47011636611E+02  0.00000000000E+00 0. -1.
         13    1    3    3    0    0 -0.40253066849E+01  0.43293343590E+02  0.34410500583E+02  0.55449068914E+02  0.00000000000E+00 0.  1.
<mgrwt>
<rscale>  0 0.88114938E+02</rscale>
<asrwt>0</asrwt>
<pdfrwt beam="1">  1        1 0.11903687E-01 0.88114938E+02</pdfrwt>
<pdfrwt beam="2">  1       -1 0.38594985E-02 0.88114938E+02</pdfrwt>
<totfact> 0.11004576E+05</totfact>
</mgrwt>
</event>
<event>
 5    1  0.1270889E+001  0.8997387E+02  0.7546771E-02  0.1302915E+00
         -4   -1    0    0    0  501 -0.00000000000E+00  0.00000000000E+00  0.65705713617E+02  0.65705713617E+02  0.00000000000E+00 0.  1.
          4   -1    0    0  501    0  0.00000000000E+00 -0.00000000000E+00 -0.30801346408E+02  0.30801346408E+02  0.00000000000E+00 0. -1.
         23    2    1    2    0    0  0.00000000000E+00  0.00000000000E+00  0.34904367210E+02  0.96507060025E+02  0.89973872787E+02 0.  0.
        -11    1    3    3    0    0  0.11097831939E+02  0.31614812905E+02  0.49651385916E+02  0.59899235322E+02  0.00000000000E+00 0.  1.
         11    1    3    3    0    0 -0.11097831939E+02 -0.31614812905E+02 -0.14747018706E+02  0.36607824703E+02  0.00000000000E+00 0. -1.
<mgrwt>
<rscale>  0 0.89973873E+02</rscale>
<asrwt>0</asrwt>
<pdfrwt beam="2">  1        4 0.47386687E-02 0.89973873E+02</pdfrwt>
<pdfrwt beam="1">  1       -4 0.10108571E-01 0.89973873E+02</pdfrwt>
<totfact> 0.27652146E+04</totfact>
</mgrwt>
</event>
<event>
 5    1  0.1270889E+001  0.8978126E+02  0.7546771E-02  0.1303382E+00
          1   -1    0    0  501    0  0.00000000000E+00  0.00000000000E+00  0.41267928645E+02  0.41267928645E+02  0.00000000000E+00 0. -1.
         -1   -1    0    0    0  501 -0.00000000000E+00 -0.00000000000E+00 -0.48831350262E+02  0.48831350262E+02  0.00000000000E+00 0.  1.
         23    2    1    2    0    0  0.00000000000E+00  0.00000000000E+00 -0.75634216171E+01  0.90099278907E+02  0.89781260366E+02 0.  0.
        -11    1    3    3    0    0  0.19870586020E+02  0.66797060619E+01 -0.43617531168E+02  0.48393674039E+02  0.00000000000E+00 0.  1.
         11    1    3    3    0    0 -0.19870586020E+02 -0.66797060619E+01  0.36054109551E+02  0.41705604867E+02  0.00000000000E+00 0. -1.
<mgrwt>
<rscale>  0 0.89781260E+02</rscale>
<asrwt>0</asrwt>
<pdfrwt beam="1">  1        1 0.63489121E-02 0.89781260E+02</pdfrwt>
<pdfrwt beam="2">  1       -1 0.75125154E-02 0.89781260E+02</pdfrwt>
<totfact> 0.95135548E+04</totfact>
</mgrwt>
</event>
<event>
 5    1  0.1270889E+001  0.8943412E+02  0.7546771E-02  0.1304228E+00
          3   -1    0    0  501    0  0.00000000000E+00  0.00000000000E+00  0.20822492530E+02  0.20822492530E+02  0.00000000000E+00 0.  1.
         -3   -1    0    0    0  501 -0.00000000000E+00 -0.00000000000E+00 -0.96031521136E+02  0.96031521136E+02  0.00000000000E+00 0. -1.
         23    2    1    2    0    0  0.00000000000E+00  0.00000000000E+00 -0.75209028606E+02  0.11685401367E+03  0.89434123947E+02 0.  0.
        -11    1    3    3    0    0 -0.10549687197E+02 -0.18012750087E+02  0.14065596293E+02  0.25171334187E+02  0.00000000000E+00 0.  1.
         11    1    3    3    0    0  0.10549687197E+02  0.18012750087E+02 -0.89274624900E+02  0.91682679480E+02  0.00000000000E+00 0. -1.
<mgrwt>
<rscale>  0 0.89434124E+02</rscale>
<asrwt>0</asrwt>
<pdfrwt beam="1">  1        3 0.32034604E-02 0.89434124E+02</pdfrwt>
<pdfrwt beam="2">  1       -3 0.14774080E-01 0.89434124E+02</pdfrwt>
<totfact> 0.35261174E+04</totfact>
</mgrwt>
</event>
<event>
 5    1  0.1270889E+001  0.9552426E+02  0.7546771E-02  0.1290000E+00
         -3   -1    0    0    0  501 -0.00000000000E+00  0.00000000000E+00  0.11057960533E+03  0.11057960533E+03  0.00000000000E+00 0.  1.
          3   -1    0    0  501    0  0.00000000000E+00 -0.00000000000E+00 -0.20629672400E+02  0.20629672400E+02  0.00000000000E+00 0. -1.
         23    2    1    2    0    0  0.00000000000E+00  0.00000000000E+00  0.89949932933E+02  0.13120927773E+03  0.95524259373E+02 0.  0.
        -13    1    3    3    0    0  0.72208778351E+01  0.34601075440E+02  0.89097273260E+02  0.95852488756E+02  0.00000000000E+00 0.  1.
         13    1    3    3    0    0 -0.72208778351E+01 -0.34601075440E+02  0.85265967308E+00  0.35356788978E+02  0.00000000000E+00 0. -1.
<mgrwt>
<rscale>  0 0.95524259E+02</rscale>
<asrwt>0</asrwt>
<pdfrwt beam="2">  1        3 0.31737958E-02 0.95524259E+02</pdfrwt>
<pdfrwt beam="1">  1       -3 0.17012247E-01 0.95524259E+02</pdfrwt>
<totfact> 0.28625138E+04</totfact>
</mgrwt>
</event>
<event>
 5    1  0.1270889E+001  0.9110962E+02  0.7546771E-02  0.1300187E+00
          4   -1    0    0  501    0  0.00000000000E+00  0.00000000000E+00  0.17105915446E+02  0.17105915446E+02  0.00000000000E+00 0. -1.
         -4   -1    0    0    0  501 -0.00000000000E+00 -0.00000000000E+00 -0.12131715062E+03  0.12131715062E+03  0.00000000000E+00 0.  1.
         23    2    1    2    0    0  0.00000000000E+00  0.00000000000E+00 -0.10421123517E+03  0.13842306606E+03  0.91109624532E+02 0.  0.
        -13    1    3    3    0    0 -0.82734429702E+01  0.28555731422E+02  0.33477635885E+00  0.29731998433E+02  0.00000000000E+00 0. -1.
         13    1    3    3    0    0  0.82734429702E+01 -0.28555731422E+02 -0.10454601153E+03  0.10869106763E+03  0.00000000000E+00 0.  1.
<mgrwt>
<rscale>  0 0.91109625E+02</rscale>
<asrwt>0</asrwt>
<pdfrwt beam="1">  1        4 0.26316793E-02 0.91109625E+02</pdfrwt>
<pdfrwt beam="2">  1       -4 0.18664177E-01 0.91109625E+02</pdfrwt>
<totfact> 0.24316278E+04</totfact>
</mgrwt>
</event>
<event>
 5    1  0.1270889E+001  0.9099760E+02  0.7546771E-02  0.1300454E+00
          2   -1    0    0  501    0  0.00000000000E+00  0.00000000000E+00  0.17734447808E+03  0.17734447808E+03  0.00000000000E+00 0.  1.
         -2   -1    0    0    0  501 -0.00000000000E+00 -0.00000000000E+00 -0.11672992043E+02  0.11672992043E+02  0.00000000000E+00 0. -1.
         23    2    1    2    0    0  0.00000000000E+00  0.00000000000E+00  0.16567148604E+03  0.18901747012E+03  0.90997597365E+02 0.  0.
        -13    1    3    3    0    0 -0.36665497859E+02  0.97139290563E+01  0.13503108096E+03  0.14025730632E+03  0.00000000000E+00 0.  1.
         13    1    3    3    0    0  0.36665497859E+02 -0.97139290563E+01  0.30640405080E+02  0.48760163806E+02  0.00000000000E+00 0. -1.
<mgrwt>
<rscale>  0 0.90997597E+02</rscale>
<asrwt>0</asrwt>
<pdfrwt beam="1">  1        2 0.27283764E-01 0.90997597E+02</pdfrwt>
<pdfrwt beam="2">  1       -2 0.17958451E-02 0.90997597E+02</pdfrwt>
<totfact> 0.14895352E+05</totfact>
</mgrwt>
</event>
<event>
 5    1  0.1270889E+001  0.9086120E+02  0.7546771E-02  0.1300779E+00
         -2   -1    0    0    0  501 -0.00000000000E+00  0.00000000000E+00  0.23937207341E+02  0.23937207341E+02  0.00000000000E+00 0.  1.
          2   -1    0    0  501    0  0.00000000000E+00 -0.00000000000E+00 -0.86223060904E+02  0.86223060904E+02  0.00000000000E+00 0. -1.
         23    2    1    2    0    0  0.00000000000E+00  0.00000000000E+00 -0.62285853563E+02  0.11016026825E+03  0.90861197141E+02 0.  0.
        -13    1    3    3    0    0 -0.21842377620E+02  0.23779445626E+02  0.76044103619E+01  0.33171954289E+02  0.00000000000E+00 0.  1.
         13    1    3    3    0    0  0.21842377620E+02 -0.23779445626E+02 -0.69890263924E+02  0.76988313956E+02  0.00000000000E+00 0. -1.
<mgrwt>
<rscale>  0 0.90861197E+02</rscale>
<asrwt>0</asrwt>
<pdfrwt beam="2">  1        2 0.13265086E-01 0.90861197E+02</pdfrwt>
<pdfrwt beam="1">  1       -2 0.36826472E-02 0.90861197E+02</pdfrwt>
<totfact> 0.11850228E+05</totfact>
</mgrwt>
</event>
<event>
 5    1  0.1270889E+001  0.9095330E+02  0.7546771E-02  0.1300559E+00
          1   -1    0    0  501    0  0.00000000000E+00  0.00000000000E+00  0.28133055714E+03  0.28133055714E+03  0.00000000000E+00 0. -1.
         -1   -1    0    0    0  501 -0.00000000000E+00 -0.00000000000E+00 -0.73512294508E+01  0.73512294508E+01  0.00000000000E+00 0.  1.
         23    2    1    2    0    0  0.00000000000E+00  0.00000000000E+00  0.27397932769E+03  0.28868178659E+03  0.90953295202E+02 0.  0.
        -11    1    3    3    0    0 -0.20552167624E+02  0.35782199305E+02  0.76320744766E+02  0.86761820306E+02  0.00000000000E+00 0.  1.
         11    1    3    3    0    0  0.20552167624E+02 -0.35782199305E+02  0.19765858292E+03  0.20191996628E+03  0.00000000000E+00 0. -1.
<mgrwt>
<rscale>  0 0.90953295E+02</rscale>
<asrwt>0</asrwt>
<pdfrwt beam="1">  1        1 0.43281616E-01 0.90953295E+02</pdfrwt>
<pdfrwt beam="2">  1       -1 0.11309586E-02 0.90953295E+02</pdfrwt>
<totfact> 0.12738051E+05</totfact>
</mgrwt>
</event>
<event>
 5    1  0.1270889E+001  0.9133067E+02  0.7546771E-02  0.1299661E+00
         -1   -1    0    0    0  501 -0.00000000000E+00  0.00000000000E+00  0.14639001586E+02  0.14639001586E+02  0.00000000000E+00 0.  1.
          1   -1    0    0  501    0  0.00000000000E+00 -0.00000000000E+00 -0.14244978371E+03  0.14244978371E+03  0.00000000000E+00 0. -1.
         23    2    1    2    0    0  0.00000000000E+00  0.00000000000E+00 -0.12781078213E+03  0.15708878530E+03  0.91330665382E+02 0.  0.
        -11    1    3    3    0    0 -0.37396152909E+02  0.26028993425E+02 -0.58648303544E+02  0.74267114254E+02  0.00000000000E+00 0.  1.
         11    1    3    3    0    0  0.37396152909E+02 -0.26028993425E+02 -0.69162478584E+02  0.82821671047E+02  0.00000000000E+00 0. -1.
<mgrwt>
<rscale>  0 0.91330665E+02</rscale>
<asrwt>0</asrwt>
<pdfrwt beam="2">  1        1 0.21915351E-01 0.91330665E+02</pdfrwt>
<pdfrwt beam="1">  1       -1 0.22521541E-02 0.91330665E+02</pdfrwt>
<totfact> 0.11057392E+05</totfact>
</mgrwt>
</event>
<event>
 4    1  0.1270889E+001  0.3705450E+02  0.7546771E-02  0.1531078E+00
          2   -1    0    0  501    0  0.00000000000E+00  0.00000000000E+00  0.42481855314E+02  0.42481855314E+02  0.00000000000E+00 0. -1.
         -2   -1    0    0    0  501 -0.00000000000E+00 -0.00000000000E+00 -0.80801302235E+01  0.80801302235E+01  0.00000000000E+00 0.  1.
        -11    1    1    2    0    0  0.14447576633E+02 -0.59799063920E+01  0.36399312356E+01  0.16054309403E+02  0.00000000000E+00 0.  1.
         11    1    1    2    0    0 -0.14447576633E+02  0.59799063920E+01  0.30761793854E+02  0.34507676134E+02  0.00000000000E+00 0. -1.
<mgrwt>
<rscale>  0 0.37054496E+02</rscale>
<asrwt>0</asrwt>
<pdfrwt beam="1">  1        2 0.65356699E-02 0.37054496E+02</pdfrwt>
<pdfrwt beam="2">  1       -2 0.12430970E-02 0.37054496E+02</pdfrwt>
<totfact> 0.10612916E+06</totfact>
</mgrwt>
</event>
<event>
 5    1  0.1270889E+001  0.8902100E+02  0.7546771E-02  0.1305240E+00
         -1   -1    0    0    0  501 -0.00000000000E+00  0.00000000000E+00  0.45966728972E+02  0.45966728972E+02  0.00000000000E+00 0.  1.
          1   -1    0    0  501    0  0.00000000000E+00 -0.00000000000E+00 -0.43100404547E+02  0.43100404547E+02  0.00000000000E+00 0. -1.
         23    2    1    2    0    0  0.00000000000E+00  0.00000000000E+00  0.28663244245E+01  0.89067133519E+02  0.89021000093E+02 0.  0.
        -13    1    3    3    0    0  0.16024691969E+02 -0.41197531538E+02 -0.37808009289E+01  0.44365772992E+02  0.00000000000E+00 0.  1.
         13    1    3    3    0    0 -0.16024691969E+02  0.41197531538E+02  0.66471253534E+01  0.44701360527E+02  0.00000000000E+00 0. -1.
<mgrwt>
<rscale>  0 0.89021000E+02</rscale>
<asrwt>0</asrwt>
<pdfrwt beam="2">  1        1 0.66308315E-02 0.89021000E+02</pdfrwt>
<pdfrwt beam="1">  1       -1 0.70718044E-02 0.89021000E+02</pdfrwt>
<totfact> 0.98063060E+04</totfact>
</mgrwt>
</event>
<event>
 5    1  0.1270889E+001  0.9251422E+02  0.7546771E-02  0.1296875E+00
          1   -1    0    0  501    0  0.00000000000E+00  0.00000000000E+00  0.69302442430E+02  0.69302442430E+02  0.00000000000E+00 0. -1.
         -1   -1    0    0    0  501 -0.00000000000E+00 -0.00000000000E+00 -0.30875108610E+02  0.30875108610E+02  0.00000000000E+00 0.  1.
         23    2    1    2    0    0  0.00000000000E+00  0.00000000000E+00  0.38427333820E+02  0.10017755104E+03  0.92514224570E+02 0.  0.
        -11    1    3    3    0    0 -0.32106807691E+02  0.31985935833E+02  0.91851243995E+01  0.46241904172E+02  0.00000000000E+00 0. -1.
         11    1    3    3    0    0  0.32106807691E+02 -0.31985935833E+02  0.29242209420E+02  0.53935646868E+02  0.00000000000E+00 0.  1.
<mgrwt>
<rscale>  0 0.92514225E+02</rscale>
<asrwt>0</asrwt>
<pdfrwt beam="1">  1        1 0.10661914E-01 0.92514225E+02</pdfrwt>
<pdfrwt beam="2">  1       -1 0.47500167E-02 0.92514225E+02</pdfrwt>
<totfact> 0.94627835E+04</totfact>
</mgrwt>
</event>
<event>
 5    1  0.1270889E+001  0.9030030E+02  0.7546771E-02  0.1302126E+00
          3   -1    0    0  501    0  0.00000000000E+00  0.00000000000E+00  0.10658580994E+02  0.10658580994E+02  0.00000000000E+00 0. -1.
         -3   -1    0    0    0  501 -0.00000000000E+00 -0.00000000000E+00 -0.19125771918E+03  0.19125771918E+03  0.00000000000E+00 0.  1.
         23    2    1    2    0    0  0.00000000000E+00  0.00000000000E+00 -0.18059913819E+03  0.20191630018E+03  0.90300296581E+02 0.  0.
        -13    1    3    3    0    0  0.29155536074E+02 -0.33387850479E+02 -0.71097863865E+02  0.83783650491E+02  0.00000000000E+00 0. -1.
         13    1    3    3    0    0 -0.29155536074E+02  0.33387850479E+02 -0.10950127432E+03  0.11813264969E+03  0.00000000000E+00 0.  1.
<mgrwt>
<rscale>  0 0.90300297E+02</rscale>
<asrwt>0</asrwt>
<pdfrwt beam="1">  1        3 0.16397818E-02 0.90300297E+02</pdfrwt>
<pdfrwt beam="2">  1       -3 0.29424263E-01 0.90300297E+02</pdfrwt>
<totfact> 0.29146929E+04</totfact>
</mgrwt>
</event>
<event>
 5    1  0.1270889E+001  0.9120029E+02  0.7546771E-02  0.1299971E+00
         -2   -1    0    0    0  501 -0.00000000000E+00  0.00000000000E+00  0.43475259942E+02  0.43475259942E+02  0.00000000000E+00 0.  1.
          2   -1    0    0  501    0  0.00000000000E+00 -0.00000000000E+00 -0.47828887571E+02  0.47828887571E+02  0.00000000000E+00 0. -1.
         23    2    1    2    0    0  0.00000000000E+00  0.00000000000E+00 -0.43536276294E+01  0.91304147512E+02  0.91200292102E+02 0.  0.
        -13    1    3    3    0    0  0.43264447155E+01 -0.38534524087E+02 -0.26198838507E+02  0.46797508583E+02  0.00000000000E+00 0. -1.
         13    1    3    3    0    0 -0.43264447155E+01  0.38534524087E+02  0.21845210878E+02  0.44506638929E+02  0.00000000000E+00 0.  1.
<mgrwt>
<rscale>  0 0.91200292E+02</rscale>
<asrwt>0</asrwt>
<pdfrwt beam="2">  1        2 0.73582903E-02 0.91200292E+02</pdfrwt>
<pdfrwt beam="1">  1       -2 0.66885016E-02 0.91200292E+02</pdfrwt>
<totfact> 0.99839475E+04</totfact>
</mgrwt>
</event>
<event>
 5    1  0.1270889E+001  0.9047017E+02  0.7546771E-02  0.1301717E+00
         -3   -1    0    0    0  501 -0.00000000000E+00  0.00000000000E+00  0.10025988248E+03  0.10025988248E+03  0.00000000000E+00 0.  1.
          3   -1    0    0  501    0  0.00000000000E+00 -0.00000000000E+00 -0.20409088492E+02  0.20409088492E+02  0.00000000000E+00 0. -1.
         23    2    1    2    0    0  0.00000000000E+00  0.00000000000E+00  0.79850793991E+02  0.12066897097E+03  0.90470167763E+02 0.  0.
        -13    1    3    3    0    0  0.14907685071E+02 -0.21362092476E+02 -0.94005323290E+01  0.27693827420E+02  0.00000000000E+00 0. -1.
         13    1    3    3    0    0 -0.14907685071E+02  0.21362092476E+02  0.89251326320E+02  0.92975143555E+02  0.00000000000E+00 0.  1.
<mgrwt>
<rscale>  0 0.90470168E+02</rscale>
<asrwt>0</asrwt>
<pdfrwt beam="2">  1        3 0.31398598E-02 0.90470168E+02</pdfrwt>
<pdfrwt beam="1">  1       -3 0.15424597E-01 0.90470168E+02</pdfrwt>
<totfact> 0.33910290E+04</totfact>
</mgrwt>
</event>
<event>
 5    1  0.1270889E+001  0.8349393E+02  0.7546771E-02  0.1319419E+00
          1   -1    0    0  501    0  0.00000000000E+00  0.00000000000E+00  0.12794723410E+02  0.12794723410E+02  0.00000000000E+00 0. -1.
         -1   -1    0    0    0  501 -0.00000000000E+00 -0.00000000000E+00 -0.13621311497E+03  0.13621311497E+03  0.00000000000E+00 0.  1.
         23    2    1    2    0    0  0.00000000000E+00  0.00000000000E+00 -0.12341839156E+03  0.14900783838E+03  0.83493931056E+02 0.  0.
        -13    1    3    3    0    0  0.28745104651E+02 -0.13679513031E+01 -0.11568303226E+03  0.11920870893E+03  0.00000000000E+00 0.  1.
         13    1    3    3    0    0 -0.28745104651E+02  0.13679513031E+01 -0.77353592957E+01  0.29799129444E+02  0.00000000000E+00 0. -1.
<mgrwt>
<rscale>  0 0.83493931E+02</rscale>
<asrwt>0</asrwt>
<pdfrwt beam="1">  1        1 0.19684190E-02 0.83493931E+02</pdfrwt>
<pdfrwt beam="2">  1       -1 0.20955864E-01 0.83493931E+02</pdfrwt>
<totfact> 0.95970136E+04</totfact>
</mgrwt>
</event>
<event>
 5    1  0.1270889E+001  0.9119718E+02  0.7546771E-02  0.1299978E+00
         -2   -1    0    0    0  501 -0.00000000000E+00  0.00000000000E+00  0.72820889239E+02  0.72820889239E+02  0.00000000000E+00 0.  1.
          2   -1    0    0  501    0  0.00000000000E+00 -0.00000000000E+00 -0.28552680165E+02  0.28552680165E+02  0.00000000000E+00 0. -1.
         23    2    1    2    0    0  0.00000000000E+00  0.00000000000E+00  0.44268209074E+02  0.10137356940E+03  0.91197183284E+02 0.  0.
        -11    1    3    3    0    0 -0.44892425346E+02 -0.20777261140E+01  0.30714571281E+02  0.54433736674E+02  0.00000000000E+00 0.  1.
         11    1    3    3    0    0  0.44892425346E+02  0.20777261140E+01  0.13553637793E+02  0.46939832730E+02  0.00000000000E+00 0. -1.
<mgrwt>
<rscale>  0 0.91197183E+02</rscale>
<asrwt>0</asrwt>
<pdfrwt beam="2">  1        2 0.43927200E-02 0.91197183E+02</pdfrwt>
<pdfrwt beam="1">  1       -2 0.11203214E-01 0.91197183E+02</pdfrwt>
<totfact> 0.87241939E+04</totfact>
</mgrwt>
</event>
<event>
 5    1  0.1270889E+001  0.9205577E+02  0.7546771E-02  0.1297948E+00
         -1   -1    0    0    0  501 -0.00000000000E+00  0.00000000000E+00  0.12115296932E+02  0.12115296932E+02  0.00000000000E+00 0.  1.
          1   -1    0    0  501    0  0.00000000000E+00 -0.00000000000E+00 -0.17486703265E+03  0.17486703265E+03  0.00000000000E+00 0. -1.
         23    2    1    2    0    0  0.00000000000E+00  0.00000000000E+00 -0.16275173571E+03  0.18698232958E+03  0.92055766233E+02 0.  0.
        -13    1    3    3    0    0  0.16462168725E+02  0.41380143071E+02 -0.57754064854E+02  0.72930454865E+02  0.00000000000E+00 0.  1.
         13    1    3    3    0    0 -0.16462168725E+02 -0.41380143071E+02 -0.10499767086E+03  0.11405187471E+03  0.00000000000E+00 0. -1.
<mgrwt>
<rscale>  0 0.92055766E+02</rscale>
<asrwt>0</asrwt>
<pdfrwt beam="2">  1        1 0.26902621E-01 0.92055766E+02</pdfrwt>
<pdfrwt beam="1">  1       -1 0.18638918E-02 0.92055766E+02</pdfrwt>
<totfact> 0.11244647E+05</totfact>
</mgrwt>
</event>
<event>
 5    1  0.1270889E+001  0.9153073E+02  0.7546771E-02  0.1299187E+00
         -1   -1    0    0    0  501 -0.00000000000E+00  0.00000000000E+00  0.54668381816E+02  0.54668381816E+02  0.00000000000E+00 0.  1.
          1   -1    0    0  501    0  0.00000000000E+00 -0.00000000000E+00 -0.38312245240E+02  0.38312245240E+02  0.00000000000E+00 0. -1.
         23    2    1    2    0    0  0.00000000000E+00  0.00000000000E+00  0.16356136576E+02  0.92980627055E+02  0.91530726010E+02 0.  0.
        -13    1    3    3    0    0  0.27622102821E+02  0.30976379308E+02 -0.11413486489E+02  0.43043981148E+02  0.00000000000E+00 0. -1.
         13    1    3    3    0    0 -0.27622102821E+02 -0.30976379308E+02  0.27769623065E+02  0.49936645907E+02  0.00000000000E+00 0.  1.
<mgrwt>
<rscale>  0 0.91530726E+02</rscale>
<asrwt>0</asrwt>
<pdfrwt beam="2">  1        1 0.58941916E-02 0.91530726E+02</pdfrwt>
<pdfrwt beam="1">  1       -1 0.84105203E-02 0.91530726E+02</pdfrwt>
<totfact> 0.89086203E+04</totfact>
</mgrwt>
</event>
<event>
 5    1  0.1270889E+001  0.9179825E+02  0.7546771E-02  0.1298554E+00
          2   -1    0    0  501    0  0.00000000000E+00  0.00000000000E+00  0.27784322780E+03  0.27784322780E+03  0.00000000000E+00 0. -1.
         -2   -1    0    0    0  501 -0.00000000000E+00 -0.00000000000E+00 -0.75824397943E+01  0.75824397943E+01  0.00000000000E+00 0.  1.
         23    2    1    2    0    0  0.00000000000E+00  0.00000000000E+00  0.27026078801E+03  0.28542566760E+03  0.91798247196E+02 0.  0.
        -13    1    3    3    0    0 -0.90022469084E+01 -0.35756701710E+02  0.50141578641E+02  0.62239537878E+02  0.00000000000E+00 0.  1.
         13    1    3    3    0    0  0.90022469084E+01  0.35756701710E+02  0.22011920937E+03  0.22318612972E+03  0.00000000000E+00 0. -1.
<mgrwt>
<rscale>  0 0.91798247E+02</rscale>
<asrwt>0</asrwt>
<pdfrwt beam="1">  1        2 0.42745104E-01 0.91798247E+02</pdfrwt>
<pdfrwt beam="2">  1       -2 0.11665294E-02 0.91798247E+02</pdfrwt>
<totfact> 0.17144884E+05</totfact>
</mgrwt>
</event>
<event>
 5    1  0.1270889E+001  0.1054767E+03  0.7546771E-02  0.1269183E+00
          2   -1    0    0  501    0  0.00000000000E+00  0.00000000000E+00  0.15518419009E+02  0.15518419009E+02  0.00000000000E+00 0. -1.
         -2   -1    0    0    0  501 -0.00000000000E+00 -0.00000000000E+00 -0.17922786861E+03  0.17922786861E+03  0.00000000000E+00 0.  1.
         23    2    1    2    0    0  0.00000000000E+00  0.00000000000E+00 -0.16370944961E+03  0.19474628762E+03  0.10547669246E+03 0.  0.
        -11    1    3    3    0    0 -0.44976114037E+02  0.27386743415E+02 -0.76488048157E+02  0.92861757789E+02  0.00000000000E+00 0.  1.
         11    1    3    3    0    0  0.44976114037E+02 -0.27386743415E+02 -0.87221401449E+02  0.10188452983E+03  0.00000000000E+00 0. -1.
<mgrwt>
<rscale>  0 0.10547669E+03</rscale>
<asrwt>0</asrwt>
<pdfrwt beam="1">  1        2 0.23874492E-02 0.10547669E+03</pdfrwt>
<pdfrwt beam="2">  1       -2 0.27573517E-01 0.10547669E+03</pdfrwt>
<totfact> 0.45002041E+04</totfact>
</mgrwt>
</event>
<event>
 5    1  0.1270889E+001  0.9229733E+02  0.7546771E-02  0.1297382E+00
          2   -1    0    0  501    0  0.00000000000E+00  0.00000000000E+00  0.74463288840E+02  0.74463288840E+02  0.00000000000E+00 0. -1.
         -2   -1    0    0    0  501 -0.00000000000E+00 -0.00000000000E+00 -0.28600658649E+02  0.28600658649E+02  0.00000000000E+00 0.  1.
         23    2    1    2    0    0  0.00000000000E+00  0.00000000000E+00  0.45862630191E+02  0.10306394749E+03  0.92297326201E+02 0.  0.
        -11    1    3    3    0    0  0.84137894374E+01 -0.29399663961E+02 -0.15662962065E+02  0.34357829884E+02  0.00000000000E+00 0.  1.
         11    1    3    3    0    0 -0.84137894374E+01  0.29399663961E+02  0.61525592257E+02  0.68706117604E+02  0.00000000000E+00 0. -1.
<mgrwt>
<rscale>  0 0.92297326E+02</rscale>
<asrwt>0</asrwt>
<pdfrwt beam="1">  1        2 0.11455890E-01 0.92297326E+02</pdfrwt>
<pdfrwt beam="2">  1       -2 0.44001014E-02 0.92297326E+02</pdfrwt>
<totfact> 0.10876739E+05</totfact>
</mgrwt>
</event>
<event>
 5    1  0.1270889E+001  0.9310787E+02  0.7546771E-02  0.1295495E+00
         -1   -1    0    0    0  501 -0.00000000000E+00  0.00000000000E+00  0.10879756778E+02  0.10879756778E+02  0.00000000000E+00 0.  1.
          1   -1    0    0  501    0  0.00000000000E+00 -0.00000000000E+00 -0.19920194016E+03  0.19920194016E+03  0.00000000000E+00 0. -1.
         23    2    1    2    0    0  0.00000000000E+00  0.00000000000E+00 -0.18832218338E+03  0.21008169693E+03  0.93107865589E+02 0.  0.
        -11    1    3    3    0    0 -0.14079510957E+02  0.38125647060E+02 -0.42933493751E+02  0.59119222578E+02  0.00000000000E+00 0.  1.
         11    1    3    3    0    0  0.14079510957E+02 -0.38125647060E+02 -0.14538868963E+03  0.15096247436E+03  0.00000000000E+00 0. -1.
<mgrwt>
<rscale>  0 0.93107866E+02</rscale>
<asrwt>0</asrwt>
<pdfrwt beam="2">  1        1 0.30646452E-01 0.93107866E+02</pdfrwt>
<pdfrwt beam="1">  1       -1 0.16738088E-02 0.93107866E+02</pdfrwt>
<totfact> 0.11183534E+05</totfact>
</mgrwt>
</event>
<event>
 5    1  0.1270889E+001  0.9094357E+02  0.7546771E-02  0.1300583E+00
         -2   -1    0    0    0  501 -0.00000000000E+00  0.00000000000E+00  0.31379307006E+02  0.31379307006E+02  0.00000000000E+00 0.  1.
          2   -1    0    0  501    0  0.00000000000E+00 -0.00000000000E+00 -0.65893204909E+02  0.65893204909E+02  0.00000000000E+00 0. -1.
         23    2    1    2    0    0  0.00000000000E+00  0.00000000000E+00 -0.34513897904E+02  0.97272511915E+02  0.90943567259E+02 0.  0.
        -11    1    3    3    0    0  0.99060217590E+01 -0.13998224007E+02  0.27788033496E+02  0.32653550313E+02  0.00000000000E+00 0.  1.
         11    1    3    3    0    0 -0.99060217590E+01  0.13998224007E+02 -0.62301931400E+02  0.64618961602E+02  0.00000000000E+00 0. -1.
<mgrwt>
<rscale>  0 0.90943567E+02</rscale>
<asrwt>0</asrwt>
<pdfrwt beam="2">  1        2 0.10137416E-01 0.90943567E+02</pdfrwt>
<pdfrwt beam="1">  1       -2 0.48275857E-02 0.90943567E+02</pdfrwt>
<totfact> 0.10957940E+05</totfact>
</mgrwt>
</event>
<event>
 5    1  0.1270889E+001  0.9225055E+02  0.7546771E-02  0.1297491E+00
          2   -1    0    0  501    0  0.00000000000E+00  0.00000000000E+00  0.23411173848E+03  0.23411173848E+03  0.00000000000E+00 0.  1.
         -2   -1    0    0    0  501 -0.00000000000E+00 -0.00000000000E+00 -0.90877152248E+01  0.90877152248E+01  0.00000000000E+00 0. -1.
         23    2    1    2    0    0  0.00000000000E+00  0.00000000000E+00  0.22502402326E+03  0.24319945371E+03  0.92250546017E+02 0.  0.
        -13    1    3    3    0    0 -0.22201902214E+02  0.38282635506E+02  0.14678951313E+03  0.15331551065E+03  0.00000000000E+00 0.  1.
         13    1    3    3    0    0  0.22201902214E+02 -0.38282635506E+02  0.78234510129E+02  0.89883943051E+02  0.00000000000E+00 0. -1.
<mgrwt>
<rscale>  0 0.92250546E+02</rscale>
<asrwt>0</asrwt>
<pdfrwt beam="1">  1        2 0.36017186E-01 0.92250546E+02</pdfrwt>
<pdfrwt beam="2">  1       -2 0.13981102E-02 0.92250546E+02</pdfrwt>
<totfact> 0.15876793E+05</totfact>
</mgrwt>
</event>
<event>
 5    1  0.1270889E+001  0.9066596E+02  0.7546771E-02  0.1301247E+00
          1   -1    0    0  501    0  0.00000000000E+00  0.00000000000E+00  0.10791482927E+03  0.10791482927E+03  0.00000000000E+00 0. -1.
         -1   -1    0    0    0  501 -0.00000000000E+00 -0.00000000000E+00 -0.19043527844E+02  0.19043527844E+02  0.00000000000E+00 0.  1.
         23    2    1    2    0    0  0.00000000000E+00  0.00000000000E+00  0.88871301424E+02  0.12695835711E+03  0.90665959563E+02 0.  0.
        -11    1    3    3    0    0 -0.23716125327E+02  0.36668539003E+02  0.61473333734E+02  0.75405617255E+02  0.00000000000E+00 0. -1.
         11    1    3    3    0    0  0.23716125327E+02 -0.36668539003E+02  0.27397967690E+02  0.51552739856E+02  0.00000000000E+00 0.  1.
<mgrwt>
<rscale>  0 0.90665960E+02</rscale>
<asrwt>0</asrwt>
<pdfrwt beam="1">  1        1 0.16602281E-01 0.90665960E+02</pdfrwt>
<pdfrwt beam="2">  1       -1 0.29297736E-02 0.90665960E+02</pdfrwt>
<totfact> 0.10742371E+05</totfact>
</mgrwt>
</event>
<event>
 5    1  0.1270889E+001  0.9187412E+02  0.7546771E-02  0.1298376E+00
         -2   -1    0    0    0  501 -0.00000000000E+00  0.00000000000E+00  0.14283703873E+02  0.14283703873E+02  0.00000000000E+00 0.  1.
          2   -1    0    0  501    0  0.00000000000E+00 -0.00000000000E+00 -0.14773574325E+03  0.14773574325E+03  0.00000000000E+00 0. -1.
         23    2    1    2    0    0  0.00000000000E+00  0.00000000000E+00 -0.13345203938E+03  0.16201944713E+03  0.91874122756E+02 0.  0.
        -11    1    3    3    0    0 -0.92195617634E+01  0.23651498469E+02 -0.13424319251E+03  0.13662221062E+03  0.00000000000E+00 0. -1.
         11    1    3    3    0    0  0.92195617634E+01 -0.23651498469E+02  0.79115313041E+00  0.25397236507E+02  0.00000000000E+00 0.  1.
<mgrwt>
<rscale>  0 0.91874123E+02</rscale>
<asrwt>0</asrwt>
<pdfrwt beam="2">  1        2 0.22728577E-01 0.91874123E+02</pdfrwt>
<pdfrwt beam="1">  1       -2 0.21974928E-02 0.91874123E+02</pdfrwt>
<totfact> 0.13623781E+05</totfact>
</mgrwt>
</event>
<event>
 5    1  0.1270889E+001  0.9143523E+02  0.7546771E-02  0.1299413E+00
         -4   -1    0    0    0  501 -0.00000000000E+00  0.00000000000E+00  0.13710926123E+02  0.13710926123E+02  0.00000000000E+00 0.  1.
          4   -1    0    0  501    0  0.00000000000E+00 -0.00000000000E+00 -0.15244047947E+03  0.15244047947E+03  0.00000000000E+00 0. -1.
         23    2    1    2    0    0  0.00000000000E+00  0.00000000000E+00 -0.13872955334E+03  0.16615140559E+03  0.91435226301E+02 0.  0.
        -13    1    3    3    0    0 -0.20853382440E+02 -0.26000835220E+02 -0.12502445384E+02  0.35598007415E+02  0.00000000000E+00 0.  1.
         13    1    3    3    0    0  0.20853382440E+02  0.26000835220E+02 -0.12622710796E+03  0.13055339817E+03  0.00000000000E+00 0. -1.
<mgrwt>
<rscale>  0 0.91435226E+02</rscale>
<asrwt>0</asrwt>
<pdfrwt beam="2">  1        4 0.23452382E-01 0.91435226E+02</pdfrwt>
<pdfrwt beam="1">  1       -4 0.21093732E-02 0.91435226E+02</pdfrwt>
<totfact> 0.22713964E+04</totfact>
</mgrwt>
</event>
<event>
 5    1  0.1270889E+001  0.9160013E+02  0.7546771E-02  0.1299022E+00
          1   -1    0    0  501    0  0.00000000000E+00  0.00000000000E+00  0.48932647227E+02  0.48932647227E+02  0.00000000000E+00 0. -1.
         -1   -1    0    0    0  501 -0.00000000000E+00 -0.00000000000E+00 -0.42868027960E+02  0.42868027960E+02  0.00000000000E+00 0.  1.
         23    2    1    2    0    0  0.00000000000E+00  0.00000000000E+00  0.60646192664E+01  0.91800675187E+02  0.91600132958E+02 0.  0.
        -13    1    3    3    0    0 -0.18012992707E+02  0.32518996845E+02 -0.23778699737E+02  0.44129124434E+02  0.00000000000E+00 0.  1.
         13    1    3    3    0    0  0.18012992707E+02 -0.32518996845E+02  0.29843319004E+02  0.47671550754E+02  0.00000000000E+00 0. -1.
<mgrwt>
<rscale>  0 0.91600133E+02</rscale>
<asrwt>0</asrwt>
<pdfrwt beam="1">  1        1 0.75280996E-02 0.91600133E+02</pdfrwt>
<pdfrwt beam="2">  1       -1 0.65950812E-02 0.91600133E+02</pdfrwt>
<totfact> 0.92255706E+04</totfact>
</mgrwt>
</event>
<event>
 5    1  0.1270889E+001  0.9053964E+02  0.7546771E-02  0.1301550E+00
         -1   -1    0    0    0  501 -0.00000000000E+00  0.00000000000E+00  0.24918991807E+02  0.24918991807E+02  0.00000000000E+00 0.  1.
          1   -1    0    0  501    0  0.00000000000E+00 -0.00000000000E+00 -0.82240755166E+02  0.82240755166E+02  0.00000000000E+00 0. -1.
         23    2    1    2    0    0  0.00000000000E+00  0.00000000000E+00 -0.57321763359E+02  0.10715974697E+03  0.90539642239E+02 0.  0.
        -11    1    3    3    0    0 -0.56631225971E+01  0.43101814097E+02 -0.13712312838E+02  0.45583602966E+02  0.00000000000E+00 0.  1.
         11    1    3    3    0    0  0.56631225971E+01 -0.43101814097E+02 -0.43609450521E+02  0.61576144007E+02  0.00000000000E+00 0. -1.
<mgrwt>
<rscale>  0 0.90539642E+02</rscale>
<asrwt>0</asrwt>
<pdfrwt beam="2">  1        1 0.12652424E-01 0.90539642E+02</pdfrwt>
<pdfrwt beam="1">  1       -1 0.38336911E-02 0.90539642E+02</pdfrwt>
<totfact> 0.10314846E+05</totfact>
</mgrwt>
</event>
<event>
 5    1  0.1270889E+001  0.8790970E+02  0.7546771E-02  0.1307994E+00
         -2   -1    0    0    0  501 -0.00000000000E+00  0.00000000000E+00  0.98113088396E+02  0.98113088396E+02  0.00000000000E+00 0.  1.
          2   -1    0    0  501    0  0.00000000000E+00 -0.00000000000E+00 -0.19691857441E+02  0.19691857441E+02  0.00000000000E+00 0. -1.
         23    2    1    2    0    0  0.00000000000E+00  0.00000000000E+00  0.78421230955E+02  0.11780494584E+03  0.87909702532E+02 0.  0.
        -11    1    3    3    0    0  0.17131382410E+02  0.26690773537E+02  0.79992448735E+02  0.86050412608E+02  0.00000000000E+00 0.  1.
         11    1    3    3    0    0 -0.17131382410E+02 -0.26690773537E+02 -0.15712177807E+01  0.31754533229E+02  0.00000000000E+00 0. -1.
<mgrwt>
<rscale>  0 0.87909703E+02</rscale>
<asrwt>0</asrwt>
<pdfrwt beam="2">  1        2 0.30295166E-02 0.87909703E+02</pdfrwt>
<pdfrwt beam="1">  1       -2 0.15094321E-01 0.87909703E+02</pdfrwt>
<totfact> 0.87876124E+04</totfact>
</mgrwt>
</event>
<event>
 5    1  0.1270889E+001  0.8413967E+02  0.7546771E-02  0.1317698E+00
         -1   -1    0    0    0  501 -0.00000000000E+00  0.00000000000E+00  0.30506914448E+02  0.30506914448E+02  0.00000000000E+00 0.  1.
          1   -1    0    0  501    0  0.00000000000E+00 -0.00000000000E+00 -0.58015401293E+02  0.58015401293E+02  0.00000000000E+00 0. -1.
         23    2    1    2    0    0  0.00000000000E+00  0.00000000000E+00 -0.27508486845E+02  0.88522315741E+02  0.84139666838E+02 0.  0.
        -13    1    3    3    0    0  0.15340271455E+02 -0.33983107295E+02 -0.34254987850E+02  0.50631805245E+02  0.00000000000E+00 0. -1.
         13    1    3    3    0    0 -0.15340271455E+02  0.33983107295E+02  0.67465010055E+01  0.37890510495E+02  0.00000000000E+00 0.  1.
<mgrwt>
<rscale>  0 0.84139667E+02</rscale>
<asrwt>0</asrwt>
<pdfrwt beam="2">  1        1 0.89254463E-02 0.84139667E+02</pdfrwt>
<pdfrwt beam="1">  1       -1 0.46933715E-02 0.84139667E+02</pdfrwt>
<totfact> 0.11966748E+05</totfact>
</mgrwt>
</event>
<event>
 5    1  0.1270889E+001  0.9065864E+02  0.7546771E-02  0.1301264E+00
          2   -1    0    0  501    0  0.00000000000E+00  0.00000000000E+00  0.14811711360E+02  0.14811711360E+02  0.00000000000E+00 0. -1.
         -2   -1    0    0    0  501 -0.00000000000E+00 -0.00000000000E+00 -0.13872450599E+03  0.13872450599E+03  0.00000000000E+00 0.  1.
         23    2    1    2    0    0  0.00000000000E+00  0.00000000000E+00 -0.12391279463E+03  0.15353621735E+03  0.90658641974E+02 0.  0.
        -13    1    3    3    0    0 -0.15224795355E+02 -0.18635205964E+02  0.31012006349E+01  0.24262785090E+02  0.00000000000E+00 0. -1.
         13    1    3    3    0    0  0.15224795355E+02  0.18635205964E+02 -0.12701399526E+03  0.12927343226E+03  0.00000000000E+00 0.  1.
<mgrwt>
<rscale>  0 0.90658642E+02</rscale>
<asrwt>0</asrwt>
<pdfrwt beam="1">  1        2 0.22787248E-02 0.90658642E+02</pdfrwt>
<pdfrwt beam="2">  1       -2 0.21342232E-01 0.90658642E+02</pdfrwt>
<totfact> 0.72869843E+04</totfact>
</mgrwt>
</event>
<event>
 5    1  0.1270889E+001  0.9089982E+02  0.7546771E-02  0.1300687E+00
         -1   -1    0    0    0  501 -0.00000000000E+00  0.00000000000E+00  0.73965337880E+01  0.73965337880E+01  0.00000000000E+00 0.  1.
          1   -1    0    0  501    0  0.00000000000E+00 -0.00000000000E+00 -0.27927869806E+03  0.27927869806E+03  0.00000000000E+00 0. -1.
         23    2    1    2    0    0  0.00000000000E+00  0.00000000000E+00 -0.27188216427E+03  0.28667523185E+03  0.90899820164E+02 0.  0.
        -11    1    3    3    0    0 -0.23740599369E+02  0.35056259911E+02 -0.83819529579E+02  0.93905649224E+02  0.00000000000E+00 0. -1.
         11    1    3    3    0    0  0.23740599369E+02 -0.35056259911E+02 -0.18806263469E+03  0.19276958262E+03  0.00000000000E+00 0.  1.
<mgrwt>
<rscale>  0 0.90899820E+02</rscale>
<asrwt>0</asrwt>
<pdfrwt beam="2">  1        1 0.42965947E-01 0.90899820E+02</pdfrwt>
<pdfrwt beam="1">  1       -1 0.11379284E-02 0.90899820E+02</pdfrwt>
<totfact> 0.12739954E+05</totfact>
</mgrwt>
</event>
<event>
 5    1  0.1270889E+001  0.9180597E+02  0.7546771E-02  0.1298536E+00
         -2   -1    0    0    0  501 -0.00000000000E+00  0.00000000000E+00  0.35703187892E+03  0.35703187892E+03  0.00000000000E+00 0.  1.
          2   -1    0    0  501    0  0.00000000000E+00 -0.00000000000E+00 -0.59016686550E+01  0.59016686550E+01  0.00000000000E+00 0. -1.
         23    2    1    2    0    0  0.00000000000E+00  0.00000000000E+00  0.35113021026E+03  0.36293354757E+03  0.91805966007E+02 0.  0.
        -11    1    3    3    0    0 -0.26154687585E+02 -0.37719837998E+02  0.17746097363E+03  0.18330098478E+03  0.00000000000E+00 0.  1.
         11    1    3    3    0    0  0.26154687585E+02  0.37719837998E+02  0.17366923663E+03  0.17963256279E+03  0.00000000000E+00 0. -1.
<mgrwt>
<rscale>  0 0.91805966E+02</rscale>
<asrwt>0</asrwt>
<pdfrwt beam="2">  1        2 0.90794930E-03 0.91805966E+02</pdfrwt>
<pdfrwt beam="1">  1       -2 0.54927965E-01 0.91805966E+02</pdfrwt>
<totfact> 0.45170310E+04</totfact>
</mgrwt>
</event>
<event>
 5    1  0.1270889E+001  0.9287933E+02  0.7546771E-02  0.1296025E+00
         -1   -1    0    0    0  501 -0.00000000000E+00  0.00000000000E+00  0.35347008856E+02  0.35347008856E+02  0.00000000000E+00 0.  1.
          1   -1    0    0  501    0  0.00000000000E+00 -0.00000000000E+00 -0.61013437352E+02  0.61013437352E+02  0.00000000000E+00 0. -1.
         23    2    1    2    0    0  0.00000000000E+00  0.00000000000E+00 -0.25666428496E+02  0.96360446208E+02  0.92879330540E+02 0.  0.
        -11    1    3    3    0    0  0.17595632241E+02  0.25785932049E+02 -0.48503851315E+02  0.57681402184E+02  0.00000000000E+00 0. -1.
         11    1    3    3    0    0 -0.17595632241E+02 -0.25785932049E+02  0.22837422819E+02  0.38679044023E+02  0.00000000000E+00 0.  1.
<mgrwt>
<rscale>  0 0.92879331E+02</rscale>
<asrwt>0</asrwt>
<pdfrwt beam="2">  1        1 0.93866826E-02 0.92879331E+02</pdfrwt>
<pdfrwt beam="1">  1       -1 0.54380014E-02 0.92879331E+02</pdfrwt>
<totfact> 0.91775276E+04</totfact>
</mgrwt>
</event>
<event>
 5    1  0.1270889E+001  0.9088473E+02  0.7546771E-02  0.1300723E+00
         -1   -1    0    0    0  501 -0.00000000000E+00  0.00000000000E+00  0.87701822754E+02  0.87701822754E+02  0.00000000000E+00 0.  1.
          1   -1    0    0  501    0  0.00000000000E+00 -0.00000000000E+00 -0.23545787280E+02  0.23545787280E+02  0.00000000000E+00 0. -1.
         23    2    1    2    0    0  0.00000000000E+00  0.00000000000E+00  0.64156035474E+02  0.11124761003E+03  0.90884728369E+02 0.  0.
        -11    1    3    3    0    0 -0.44154803380E+02  0.74541513655E+01  0.22612572865E+02  0.50165122203E+02  0.00000000000E+00 0.  1.
         11    1    3    3    0    0  0.44154803380E+02 -0.74541513655E+01  0.41543462609E+02  0.61082487831E+02  0.00000000000E+00 0. -1.
<mgrwt>
<rscale>  0 0.90884728E+02</rscale>
<asrwt>0</asrwt>
<pdfrwt beam="2">  1        1 0.36224289E-02 0.90884728E+02</pdfrwt>
<pdfrwt beam="1">  1       -1 0.13492588E-01 0.90884728E+02</pdfrwt>
<totfact> 0.84010458E+04</totfact>
</mgrwt>
</event>
<event>
 5    1  0.1270889E+001  0.8996174E+02  0.7546771E-02  0.1302944E+00
         -1   -1    0    0    0  501 -0.00000000000E+00  0.00000000000E+00  0.10157770030E+02  0.10157770030E+02  0.00000000000E+00 0.  1.
          1   -1    0    0  501    0  0.00000000000E+00 -0.00000000000E+00 -0.19918530287E+03  0.19918530287E+03  0.00000000000E+00 0. -1.
         23    2    1    2    0    0  0.00000000000E+00  0.00000000000E+00 -0.18902753284E+03  0.20934307290E+03  0.89961736310E+02 0.  0.
        -13    1    3    3    0    0  0.38995197027E+02 -0.13595246749E+02 -0.13599894844E+03  0.14213082038E+03  0.00000000000E+00 0.  1.
         13    1    3    3    0    0 -0.38995197027E+02  0.13595246749E+02 -0.53028584400E+02  0.67212252520E+02  0.00000000000E+00 0. -1.
<mgrwt>
<rscale>  0 0.89961736E+02</rscale>
<asrwt>0</asrwt>
<pdfrwt beam="2">  1        1 0.30643891E-01 0.89961736E+02</pdfrwt>
<pdfrwt beam="1">  1       -1 0.15627339E-02 0.89961736E+02</pdfrwt>
<totfact> 0.12264129E+05</totfact>
</mgrwt>
</event>
<event>
 5    1  0.1270889E+001  0.8937191E+02  0.7546771E-02  0.1304380E+00
          2   -1    0    0  501    0  0.00000000000E+00  0.00000000000E+00  0.23281952533E+02  0.23281952533E+02  0.00000000000E+00 0. -1.
         -2   -1    0    0    0  501 -0.00000000000E+00 -0.00000000000E+00 -0.85767492853E+02  0.85767492853E+02  0.00000000000E+00 0.  1.
         23    2    1    2    0    0  0.00000000000E+00  0.00000000000E+00 -0.62485540320E+02  0.10904944539E+03  0.89371912757E+02 0.  0.
        -13    1    3    3    0    0  0.28253669504E+02  0.35584143128E+01  0.10776345574E+02  0.30447689186E+02  0.00000000000E+00 0. -1.
         13    1    3    3    0    0 -0.28253669504E+02 -0.35584143128E+01 -0.73261885894E+02  0.78601756200E+02  0.00000000000E+00 0.  1.
<mgrwt>
<rscale>  0 0.89371913E+02</rscale>
<asrwt>0</asrwt>
<pdfrwt beam="1">  1        2 0.35818389E-02 0.89371913E+02</pdfrwt>
<pdfrwt beam="2">  1       -2 0.13194999E-01 0.89371913E+02</pdfrwt>
<totfact> 0.87658337E+04</totfact>
</mgrwt>
</event>
<event>
 5    1  0.1270889E+001  0.9189143E+02  0.7546771E-02  0.1298335E+00
         -3   -1    0    0    0  501 -0.00000000000E+00  0.00000000000E+00  0.26898749476E+03  0.26898749476E+03  0.00000000000E+00 0.  1.
          3   -1    0    0  501    0  0.00000000000E+00 -0.00000000000E+00 -0.78479813575E+01  0.78479813575E+01  0.00000000000E+00 0. -1.
         23    2    1    2    0    0  0.00000000000E+00  0.00000000000E+00  0.26113951340E+03  0.27683547612E+03  0.91891432555E+02 0.  0.
        -11    1    3    3    0    0 -0.32993936624E+02  0.26957271605E+02  0.78763402546E+02  0.89548690259E+02  0.00000000000E+00 0. -1.
         11    1    3    3    0    0  0.32993936624E+02 -0.26957271605E+02  0.18237611085E+03  0.18728678586E+03  0.00000000000E+00 0.  1.
<mgrwt>
<rscale>  0 0.91891433E+02</rscale>
<asrwt>0</asrwt>
<pdfrwt beam="2">  1        3 0.12073820E-02 0.91891433E+02</pdfrwt>
<pdfrwt beam="1">  1       -3 0.41382685E-01 0.91891433E+02</pdfrwt>
<totfact> 0.24431082E+04</totfact>
</mgrwt>
</event>
<event>
 5    1  0.1270889E+001  0.9140647E+02  0.7546771E-02  0.1299481E+00
          1   -1    0    0  501    0  0.00000000000E+00  0.00000000000E+00  0.65705994535E+02  0.65705994535E+02  0.00000000000E+00 0. -1.
         -1   -1    0    0    0  501 -0.00000000000E+00 -0.00000000000E+00 -0.31789876728E+02  0.31789876728E+02  0.00000000000E+00 0.  1.
         23    2    1    2    0    0  0.00000000000E+00  0.00000000000E+00  0.33916117806E+02  0.97495871263E+02  0.91406465123E+02 0.  0.
        -11    1    3    3    0    0 -0.17256508305E+02  0.24332505422E+02 -0.19974192533E+02  0.35900226550E+02  0.00000000000E+00 0.  1.
         11    1    3    3    0    0  0.17256508305E+02 -0.24332505422E+02  0.53890310340E+02  0.61595644712E+02  0.00000000000E+00 0. -1.
<mgrwt>
<rscale>  0 0.91406465E+02</rscale>
<asrwt>0</asrwt>
<pdfrwt beam="1">  1        1 0.10108615E-01 0.91406465E+02</pdfrwt>
<pdfrwt beam="2">  1       -1 0.48907503E-02 0.91406465E+02</pdfrwt>
<totfact> 0.97034260E+04</totfact>
</mgrwt>
</event>
<event>
 5    1  0.1270889E+001  0.9185101E+02  0.7546771E-02  0.1298430E+00
          1   -1    0    0  501    0  0.00000000000E+00  0.00000000000E+00  0.80803720401E+02  0.80803720401E+02  0.00000000000E+00 0. -1.
         -1   -1    0    0    0  501 -0.00000000000E+00 -0.00000000000E+00 -0.26102162672E+02  0.26102162672E+02  0.00000000000E+00 0.  1.
         23    2    1    2    0    0  0.00000000000E+00  0.00000000000E+00  0.54701557729E+02  0.10690588307E+03  0.91851006623E+02 0.  0.
        -11    1    3    3    0    0 -0.73761601208E+01  0.21806023351E+02 -0.18902439167E+02  0.29786114197E+02  0.00000000000E+00 0.  1.
         11    1    3    3    0    0  0.73761601208E+01 -0.21806023351E+02  0.73603996896E+02  0.77119768876E+02  0.00000000000E+00 0. -1.
<mgrwt>
<rscale>  0 0.91851007E+02</rscale>
<asrwt>0</asrwt>
<pdfrwt beam="1">  1        1 0.12431341E-01 0.91851007E+02</pdfrwt>
<pdfrwt beam="2">  1       -1 0.40157174E-02 0.91851007E+02</pdfrwt>
<totfact> 0.98881295E+04</totfact>
</mgrwt>
</event>
<event>
 5    1  0.1270889E+001  0.9260535E+02  0.7546771E-02  0.1296662E+00
         -2   -1    0    0    0  501 -0.00000000000E+00  0.00000000000E+00  0.98884515214E+01  0.98884515214E+01  0.00000000000E+00 0.  1.
          2   -1    0    0  501    0  0.00000000000E+00 -0.00000000000E+00 -0.21681227947E+03  0.21681227947E+03  0.00000000000E+00 0. -1.
         23    2    1    2    0    0  0.00000000000E+00  0.00000000000E+00 -0.20692382795E+03  0.22670073099E+03  0.92605350057E+02 0.  0.
        -13    1    3    3    0    0  0.12527255106E+02 -0.44395415317E+02 -0.11327014744E+03  0.12230294895E+03  0.00000000000E+00 0.  1.
         13    1    3    3    0    0 -0.12527255106E+02  0.44395415317E+02 -0.93653680515E+02  0.10439778204E+03  0.00000000000E+00 0. -1.
<mgrwt>
<rscale>  0 0.92605350E+02</rscale>
<asrwt>0</asrwt>
<pdfrwt beam="2">  1        2 0.33355731E-01 0.92605350E+02</pdfrwt>
<pdfrwt beam="1">  1       -2 0.15213004E-02 0.92605350E+02</pdfrwt>
<totfact> 0.15275992E+05</totfact>
</mgrwt>
</event>
<event>
 5    1  0.1270889E+001  0.9426263E+02  0.7546771E-02  0.1292846E+00
         -2   -1    0    0    0  501 -0.00000000000E+00  0.00000000000E+00  0.77540234043E+02  0.77540234043E+02  0.00000000000E+00 0.  1.
          2   -1    0    0  501    0  0.00000000000E+00 -0.00000000000E+00 -0.28647845990E+02  0.28647845990E+02  0.00000000000E+00 0. -1.
         23    2    1    2    0    0  0.00000000000E+00  0.00000000000E+00  0.48892388053E+02  0.10618808003E+03  0.94262626377E+02 0.  0.
        -11    1    3    3    0    0  0.34101747539E+02  0.12315861128E+02 -0.94757137381E+01  0.37475308824E+02  0.00000000000E+00 0. -1.
         11    1    3    3    0    0 -0.34101747539E+02 -0.12315861128E+02  0.58368101791E+02  0.68712771209E+02  0.00000000000E+00 0.  1.
<mgrwt>
<rscale>  0 0.94262626E+02</rscale>
<asrwt>0</asrwt>
<pdfrwt beam="2">  1        2 0.44073610E-02 0.94262626E+02</pdfrwt>
<pdfrwt beam="1">  1       -2 0.11929267E-01 0.94262626E+02</pdfrwt>
<totfact> 0.79085864E+04</totfact>
</mgrwt>
</event>
<event>
 5    1  0.1270889E+001  0.9161510E+02  0.7546771E-02  0.1298987E+00
          1   -1    0    0  501    0  0.00000000000E+00  0.00000000000E+00  0.60056783447E+02  0.60056783447E+02  0.00000000000E+00 0. -1.
         -1   -1    0    0    0  501 -0.00000000000E+00 -0.00000000000E+00 -0.34939129120E+02  0.34939129120E+02  0.00000000000E+00 0.  1.
         23    2    1    2    0    0  0.00000000000E+00  0.00000000000E+00  0.25117654327E+02  0.94995912566E+02  0.91615101623E+02 0.  0.
        -13    1    3    3    0    0  0.81086489740E+01  0.31872341748E+02  0.45621793440E+02  0.56240060396E+02  0.00000000000E+00 0. -1.
         13    1    3    3    0    0 -0.81086489740E+01 -0.31872341748E+02 -0.20504139113E+02  0.38755852170E+02  0.00000000000E+00 0.  1.
<mgrwt>
<rscale>  0 0.91615102E+02</rscale>
<asrwt>0</asrwt>
<pdfrwt beam="1">  1        1 0.92395051E-02 0.91615102E+02</pdfrwt>
<pdfrwt beam="2">  1       -1 0.53752507E-02 0.91615102E+02</pdfrwt>
<totfact> 0.95109864E+04</totfact>
</mgrwt>
</event>
<event>
 5    1  0.1270889E+001  0.8996823E+02  0.7546771E-02  0.1302929E+00
         -1   -1    0    0    0  501 -0.00000000000E+00  0.00000000000E+00  0.13020078028E+03  0.13020078028E+03  0.00000000000E+00 0.  1.
          1   -1    0    0  501    0  0.00000000000E+00 -0.00000000000E+00 -0.15541922220E+02  0.15541922220E+02  0.00000000000E+00 0. -1.
         23    2    1    2    0    0  0.00000000000E+00  0.00000000000E+00  0.11465885806E+03  0.14574270250E+03  0.89968225506E+02 0.  0.
        -11    1    3    3    0    0 -0.42463793833E+02 -0.25327233205E+01  0.81026038422E+02  0.91513973668E+02  0.00000000000E+00 0.  1.
         11    1    3    3    0    0  0.42463793833E+02  0.25327233205E+01  0.33632819643E+02  0.54228728837E+02  0.00000000000E+00 0. -1.
<mgrwt>
<rscale>  0 0.89968226E+02</rscale>
<asrwt>0</asrwt>
<pdfrwt beam="2">  1        1 0.23910650E-02 0.89968226E+02</pdfrwt>
<pdfrwt beam="1">  1       -1 0.20030889E-01 0.89968226E+02</pdfrwt>
<totfact> 0.79910331E+04</totfact>
</mgrwt>
</event>
<event>
 5    1  0.1270889E+001  0.9041729E+02  0.7546771E-02  0.1301844E+00
         -1   -1    0    0    0  501 -0.00000000000E+00  0.00000000000E+00  0.14760819337E+03  0.14760819337E+03  0.00000000000E+00 0.  1.
          1   -1    0    0  501    0  0.00000000000E+00 -0.00000000000E+00 -0.13846261397E+02  0.13846261397E+02  0.00000000000E+00 0. -1.
         23    2    1    2    0    0  0.00000000000E+00  0.00000000000E+00  0.13376193197E+03  0.16145445476E+03  0.90417291038E+02 0.  0.
        -11    1    3    3    0    0  0.49907738267E+01 -0.44899501546E+02  0.69947191247E+02  0.83267536446E+02  0.00000000000E+00 0. -1.
         11    1    3    3    0    0 -0.49907738267E+01  0.44899501546E+02  0.63814740723E+02  0.78186918317E+02  0.00000000000E+00 0.  1.
<mgrwt>
<rscale>  0 0.90417291E+02</rscale>
<asrwt>0</asrwt>
<pdfrwt beam="2">  1        1 0.21301942E-02 0.90417291E+02</pdfrwt>
<pdfrwt beam="1">  1       -1 0.22708952E-01 0.90417291E+02</pdfrwt>
<totfact> 0.76715057E+04</totfact>
</mgrwt>
</event>
<event>
 5    1  0.1270889E+001  0.9759828E+02  0.7546771E-02  0.1285429E+00
         -2   -1    0    0    0  501 -0.00000000000E+00  0.00000000000E+00  0.17310954363E+02  0.17310954363E+02  0.00000000000E+00 0.  1.
          2   -1    0    0  501    0  0.00000000000E+00 -0.00000000000E+00 -0.13756353178E+03  0.13756353178E+03  0.00000000000E+00 0. -1.
         23    2    1    2    0    0  0.00000000000E+00  0.00000000000E+00 -0.12025257741E+03  0.15487448614E+03  0.97598279096E+02 0.  0.
        -11    1    3    3    0    0  0.29438192885E+02  0.38327430512E+02 -0.49392180450E+02  0.69102725124E+02  0.00000000000E+00 0.  1.
         11    1    3    3    0    0 -0.29438192885E+02 -0.38327430512E+02 -0.70860396962E+02  0.85771761015E+02  0.00000000000E+00 0. -1.
<mgrwt>
<rscale>  0 0.97598279E+02</rscale>
<asrwt>0</asrwt>
<pdfrwt beam="2">  1        2 0.21163621E-01 0.97598279E+02</pdfrwt>
<pdfrwt beam="1">  1       -2 0.26632237E-02 0.97598279E+02</pdfrwt>
<totfact> 0.11272526E+05</totfact>
</mgrwt>
</event>
<event>
 5    1  0.1270889E+001  0.8886725E+02  0.7546771E-02  0.1305618E+00
          1   -1    0    0  501    0  0.00000000000E+00  0.00000000000E+00  0.11252624964E+03  0.11252624964E+03  0.00000000000E+00 0. -1.
         -1   -1    0    0    0  501 -0.00000000000E+00 -0.00000000000E+00 -0.17545656801E+02  0.17545656801E+02  0.00000000000E+00 0.  1.
         23    2    1    2    0    0  0.00000000000E+00  0.00000000000E+00  0.94980592837E+02  0.13007190644E+03  0.88867248347E+02 0.  0.
        -13    1    3    3    0    0 -0.19506118970E+02  0.18231755440E+01 -0.10882875601E+02  0.22410926524E+02  0.00000000000E+00 0.  1.
         13    1    3    3    0    0  0.19506118970E+02 -0.18231755440E+01  0.10586346844E+03  0.10766097991E+03  0.00000000000E+00 0. -1.
<mgrwt>
<rscale>  0 0.88867248E+02</rscale>
<asrwt>0</asrwt>
<pdfrwt beam="1">  1        1 0.17311730E-01 0.88867248E+02</pdfrwt>
<pdfrwt beam="2">  1       -1 0.26993319E-02 0.88867248E+02</pdfrwt>
<totfact> 0.11422421E+05</totfact>
</mgrwt>
</event>
<event>
 5    1  0.1270889E+001  0.9033094E+02  0.7546771E-02  0.1302052E+00
          1   -1    0    0  501    0  0.00000000000E+00  0.00000000000E+00  0.58266780216E+02  0.58266780216E+02  0.00000000000E+00 0. -1.
         -1   -1    0    0    0  501 -0.00000000000E+00 -0.00000000000E+00 -0.35009994798E+02  0.35009994798E+02  0.00000000000E+00 0.  1.
         23    2    1    2    0    0  0.00000000000E+00  0.00000000000E+00  0.23256785418E+02  0.93276775013E+02  0.90330939821E+02 0.  0.
        -11    1    3    3    0    0  0.21278116120E+02 -0.23384682976E+02 -0.21677421883E+02  0.38334217653E+02  0.00000000000E+00 0.  1.
         11    1    3    3    0    0 -0.21278116120E+02  0.23384682976E+02  0.44934207301E+02  0.54942557361E+02  0.00000000000E+00 0. -1.
<mgrwt>
<rscale>  0 0.90330940E+02</rscale>
<asrwt>0</asrwt>
<pdfrwt beam="1">  1        1 0.89641200E-02 0.90330940E+02</pdfrwt>
<pdfrwt beam="2">  1       -1 0.53861531E-02 0.90330940E+02</pdfrwt>
<totfact> 0.98457613E+04</totfact>
</mgrwt>
</event>
<event>
 5    1  0.1270889E+001  0.9153387E+02  0.7546771E-02  0.1299179E+00
          2   -1    0    0  501    0  0.00000000000E+00  0.00000000000E+00  0.36959586496E+02  0.36959586496E+02  0.00000000000E+00 0. -1.
         -2   -1    0    0    0  501 -0.00000000000E+00 -0.00000000000E+00 -0.56673044189E+02  0.56673044189E+02  0.00000000000E+00 0.  1.
         23    2    1    2    0    0  0.00000000000E+00  0.00000000000E+00 -0.19713457692E+02  0.93632630685E+02  0.91533868676E+02 0.  0.
        -11    1    3    3    0    0 -0.43023848196E+02  0.87164551642E+01 -0.23098982712E+02  0.49604345641E+02  0.00000000000E+00 0.  1.
         11    1    3    3    0    0  0.43023848196E+02 -0.87164551642E+01  0.33855250198E+01  0.44028285043E+02  0.00000000000E+00 0. -1.
<mgrwt>
<rscale>  0 0.91533869E+02</rscale>
<asrwt>0</asrwt>
<pdfrwt beam="1">  1        2 0.56860902E-02 0.91533869E+02</pdfrwt>
<pdfrwt beam="2">  1       -2 0.87189299E-02 0.91533869E+02</pdfrwt>
<totfact> 0.92394109E+04</totfact>
</mgrwt>
</event>
<event>
 5    1  0.1270889E+001  0.9089752E+02  0.7546771E-02  0.1300693E+00
          1   -1    0    0  501    0  0.00000000000E+00  0.00000000000E+00  0.39501528910E+01  0.39501528910E+01  0.00000000000E+00 0. -1.
         -1   -1    0    0    0  501 -0.00000000000E+00 -0.00000000000E+00 -0.52291384806E+03  0.52291384806E+03  0.00000000000E+00 0.  1.
         23    2    1    2    0    0  0.00000000000E+00  0.00000000000E+00 -0.51896369517E+03  0.52686400095E+03  0.90897516988E+02 0.  0.
        -11    1    3    3    0    0  0.45017808488E+02 -0.62220977474E+01 -0.25645852418E+03  0.26045401169E+03  0.00000000000E+00 0. -1.
         11    1    3    3    0    0 -0.45017808488E+02  0.62220977474E+01 -0.26250517098E+03  0.26640998926E+03  0.00000000000E+00 0.  1.
<mgrwt>
<rscale>  0 0.90897517E+02</rscale>
<asrwt>0</asrwt>
<pdfrwt beam="1">  1        1 0.60771575E-03 0.90897517E+02</pdfrwt>
<pdfrwt beam="2">  1       -1 0.80448295E-01 0.90897517E+02</pdfrwt>
<totfact> 0.46103193E+04</totfact>
</mgrwt>
</event>
<event>
 5    1  0.1270889E+001  0.9063991E+02  0.7546771E-02  0.1301309E+00
         -2   -1    0    0    0  501 -0.00000000000E+00  0.00000000000E+00  0.20740257645E+02  0.20740257645E+02  0.00000000000E+00 0.  1.
          2   -1    0    0  501    0  0.00000000000E+00 -0.00000000000E+00 -0.99029546656E+02  0.99029546656E+02  0.00000000000E+00 0. -1.
         23    2    1    2    0    0  0.00000000000E+00  0.00000000000E+00 -0.78289289012E+02  0.11976980430E+03  0.90639909799E+02 0.  0.
        -11    1    3    3    0    0  0.20513215819E+02  0.22727417518E+02  0.50094522347E+01  0.31022929294E+02  0.00000000000E+00 0.  1.
         11    1    3    3    0    0 -0.20513215819E+02 -0.22727417518E+02 -0.83298741247E+02  0.88746875007E+02  0.00000000000E+00 0. -1.
<mgrwt>
<rscale>  0 0.90639910E+02</rscale>
<asrwt>0</asrwt>
<pdfrwt beam="2">  1        2 0.15235315E-01 0.90639910E+02</pdfrwt>
<pdfrwt beam="1">  1       -2 0.31908089E-02 0.90639910E+02</pdfrwt>
<totfact> 0.12431700E+05</totfact>
</mgrwt>
</event>
<event>
 5    1  0.1270889E+001  0.9126138E+02  0.7546771E-02  0.1299826E+00
          2   -1    0    0  501    0  0.00000000000E+00  0.00000000000E+00  0.20038044334E+02  0.20038044334E+02  0.00000000000E+00 0. -1.
         -2   -1    0    0    0  501 -0.00000000000E+00 -0.00000000000E+00 -0.10391032798E+03  0.10391032798E+03  0.00000000000E+00 0.  1.
         23    2    1    2    0    0  0.00000000000E+00  0.00000000000E+00 -0.83872283642E+02  0.12394837231E+03  0.91261377564E+02 0.  0.
        -11    1    3    3    0    0  0.66526396053E+01  0.32551189910E+02 -0.84417144409E+02  0.90719853662E+02  0.00000000000E+00 0.  1.
         11    1    3    3    0    0 -0.66526396053E+01 -0.32551189910E+02  0.54486076674E+00  0.33228518648E+02  0.00000000000E+00 0. -1.
<mgrwt>
<rscale>  0 0.91261378E+02</rscale>
<asrwt>0</asrwt>
<pdfrwt beam="1">  1        2 0.30827761E-02 0.91261378E+02</pdfrwt>
<pdfrwt beam="2">  1       -2 0.15986204E-01 0.91261378E+02</pdfrwt>
<totfact> 0.78708830E+04</totfact>
</mgrwt>
</event>
<event>
 5    1  0.1270889E+001  0.9232684E+02  0.7546771E-02  0.1297313E+00
         -3   -1    0    0    0  501 -0.00000000000E+00  0.00000000000E+00  0.40259876118E+02  0.40259876118E+02  0.00000000000E+00 0.  1.
          3   -1    0    0  501    0  0.00000000000E+00 -0.00000000000E+00 -0.52932636882E+02  0.52932636882E+02  0.00000000000E+00 0. -1.
         23    2    1    2    0    0  0.00000000000E+00  0.00000000000E+00 -0.12672760764E+02  0.93192513000E+02  0.92326841243E+02 0.  0.
        -13    1    3    3    0    0  0.29498954766E+02 -0.13546888955E+02  0.26794458714E+02  0.42090967564E+02  0.00000000000E+00 0.  1.
         13    1    3    3    0    0 -0.29498954766E+02  0.13546888955E+02 -0.39467219478E+02  0.51101545436E+02  0.00000000000E+00 0. -1.
<mgrwt>
<rscale>  0 0.92326841E+02</rscale>
<asrwt>0</asrwt>
<pdfrwt beam="2">  1        3 0.81434826E-02 0.92326841E+02</pdfrwt>
<pdfrwt beam="1">  1       -3 0.61938271E-02 0.92326841E+02</pdfrwt>
<totfact> 0.34000725E+04</totfact>
</mgrwt>
</event>
<event>
 5    1  0.1270889E+001  0.9262564E+02  0.7546771E-02  0.1296615E+00
          2   -1    0    0  501    0  0.00000000000E+00  0.00000000000E+00  0.83152195647E+02  0.83152195647E+02  0.00000000000E+00 0. -1.
         -2   -1    0    0    0  501 -0.00000000000E+00 -0.00000000000E+00 -0.25794597032E+02  0.25794597032E+02  0.00000000000E+00 0.  1.
         23    2    1    2    0    0  0.00000000000E+00  0.00000000000E+00  0.57357598615E+02  0.10894679268E+03  0.92625641786E+02 0.  0.
        -13    1    3    3    0    0 -0.37233775085E+02  0.21290852980E+02  0.81297462719E+01  0.43654864587E+02  0.00000000000E+00 0.  1.
         13    1    3    3    0    0  0.37233775085E+02 -0.21290852980E+02  0.49227852343E+02  0.65291928092E+02  0.00000000000E+00 0. -1.
<mgrwt>
<rscale>  0 0.92625642E+02</rscale>
<asrwt>0</asrwt>
<pdfrwt beam="1">  1        2 0.12792645E-01 0.92625642E+02</pdfrwt>
<pdfrwt beam="2">  1       -2 0.39683996E-02 0.92625642E+02</pdfrwt>
<totfact> 0.11115817E+05</totfact>
</mgrwt>
</event>
<event>
 5    1  0.1270889E+001  0.9008921E+02  0.7546771E-02  0.1302636E+00
          1   -1    0    0  501    0  0.00000000000E+00  0.00000000000E+00  0.26933089336E+02  0.26933089336E+02  0.00000000000E+00 0. -1.
         -1   -1    0    0    0  501 -0.00000000000E+00 -0.00000000000E+00 -0.75335446664E+02  0.75335446664E+02  0.00000000000E+00 0.  1.
         23    2    1    2    0    0  0.00000000000E+00  0.00000000000E+00 -0.48402357329E+02  0.10226853600E+03  0.90089207238E+02 0.  0.
        -13    1    3    3    0    0  0.30387074121E+02  0.30984018128E+02 -0.37900487864E+02  0.57617971444E+02  0.00000000000E+00 0.  1.
         13    1    3    3    0    0 -0.30387074121E+02 -0.30984018128E+02 -0.10501869464E+02  0.44650564557E+02  0.00000000000E+00 0. -1.
<mgrwt>
<rscale>  0 0.90089207E+02</rscale>
<asrwt>0</asrwt>
<pdfrwt beam="1">  1        1 0.41435522E-02 0.90089207E+02</pdfrwt>
<pdfrwt beam="2">  1       -1 0.11590069E-01 0.90089207E+02</pdfrwt>
<totfact> 0.88165773E+04</totfact>
</mgrwt>
</event>
<event>
 5    1  0.1270889E+001  0.9152525E+02  0.7546771E-02  0.1299200E+00
          1   -1    0    0  501    0  0.00000000000E+00  0.00000000000E+00  0.65222659464E+02  0.65222659464E+02  0.00000000000E+00 0. -1.
         -1   -1    0    0    0  501 -0.00000000000E+00 -0.00000000000E+00 -0.32108743935E+02  0.32108743935E+02  0.00000000000E+00 0.  1.
         23    2    1    2    0    0  0.00000000000E+00  0.00000000000E+00  0.33113915528E+02  0.97331403399E+02  0.91525246167E+02 0.  0.
        -11    1    3    3    0    0 -0.10551908449E+02  0.43953298681E+02  0.24150114515E+02  0.51249031873E+02  0.00000000000E+00 0. -1.
         11    1    3    3    0    0  0.10551908449E+02 -0.43953298681E+02  0.89638010132E+01  0.46082371526E+02  0.00000000000E+00 0.  1.
<mgrwt>
<rscale>  0 0.91525246E+02</rscale>
<asrwt>0</asrwt>
<pdfrwt beam="1">  1        1 0.10034255E-01 0.91525246E+02</pdfrwt>
<pdfrwt beam="2">  1       -1 0.49398068E-02 0.91525246E+02</pdfrwt>
<totfact> 0.96576714E+04</totfact>
</mgrwt>
</event>
<event>
 5    1  0.1270889E+001  0.9181024E+02  0.7546771E-02  0.1298526E+00
          1   -1    0    0  501    0  0.00000000000E+00  0.00000000000E+00  0.89181710856E+02  0.89181710856E+02  0.00000000000E+00 0. -1.
         -1   -1    0    0    0  501 -0.00000000000E+00 -0.00000000000E+00 -0.23629061411E+02  0.23629061411E+02  0.00000000000E+00 0.  1.
         23    2    1    2    0    0  0.00000000000E+00  0.00000000000E+00  0.65552649444E+02  0.11281077227E+03  0.91810241751E+02 0.  0.
        -13    1    3    3    0    0  0.31309184766E+02 -0.17016818924E+02  0.68334302615E+02  0.77067594298E+02  0.00000000000E+00 0. -1.
         13    1    3    3    0    0 -0.31309184766E+02  0.17016818924E+02 -0.27816531711E+01  0.35743177969E+02  0.00000000000E+00 0.  1.
<mgrwt>
<rscale>  0 0.91810242E+02</rscale>
<asrwt>0</asrwt>
<pdfrwt beam="1">  1        1 0.13720263E-01 0.91810242E+02</pdfrwt>
<pdfrwt beam="2">  1       -1 0.36352402E-02 0.91810242E+02</pdfrwt>
<totfact> 0.10058299E+05</totfact>
</mgrwt>
</event>
<event>
 5    1  0.1270889E+001  0.8999723E+02  0.7546771E-02  0.1302858E+00
          2   -1    0    0  501    0  0.00000000000E+00  0.00000000000E+00  0.24951572468E+02  0.24951572468E+02  0.00000000000E+00 0. -1.
         -2   -1    0    0    0  501 -0.00000000000E+00 -0.00000000000E+00 -0.81152222020E+02  0.81152222020E+02  0.00000000000E+00 0.  1.
         23    2    1    2    0    0  0.00000000000E+00  0.00000000000E+00 -0.56200649551E+02  0.10610379449E+03  0.89997234373E+02 0.  0.
        -13    1    3    3    0    0  0.16601197988E+02 -0.35278976422E+02 -0.16149987918E+01  0.39023251699E+02  0.00000000000E+00 0. -1.
         13    1    3    3    0    0 -0.16601197988E+02  0.35278976422E+02 -0.54585650759E+02  0.67080542789E+02  0.00000000000E+00 0.  1.
<mgrwt>
<rscale>  0 0.89997234E+02</rscale>
<asrwt>0</asrwt>
<pdfrwt beam="1">  1        2 0.38387035E-02 0.89997234E+02</pdfrwt>
<pdfrwt beam="2">  1       -2 0.12484957E-01 0.89997234E+02</pdfrwt>
<totfact> 0.87498552E+04</totfact>
</mgrwt>
</event>
<event>
 5    1  0.1270889E+001  0.9570299E+02  0.7546771E-02  0.1289601E+00
         -1   -1    0    0    0  501 -0.00000000000E+00  0.00000000000E+00  0.61080365593E+02  0.61080365593E+02  0.00000000000E+00 0.  1.
          1   -1    0    0  501    0  0.00000000000E+00 -0.00000000000E+00 -0.37487755122E+02  0.37487755122E+02  0.00000000000E+00 0. -1.
         23    2    1    2    0    0  0.00000000000E+00  0.00000000000E+00  0.23592610471E+02  0.98568120715E+02  0.95702994480E+02 0.  0.
        -13    1    3    3    0    0 -0.34809773936E+02 -0.74446895364E+01  0.44732128281E+02  0.57167360130E+02  0.00000000000E+00 0.  1.
         13    1    3    3    0    0  0.34809773936E+02  0.74446895364E+01 -0.21139517810E+02  0.41400760585E+02  0.00000000000E+00 0. -1.
<mgrwt>
<rscale>  0 0.95702994E+02</rscale>
<asrwt>0</asrwt>
<pdfrwt beam="2">  1        1 0.57673469E-02 0.95702994E+02</pdfrwt>
<pdfrwt beam="1">  1       -1 0.93969793E-02 0.95702994E+02</pdfrwt>
<totfact> 0.78195909E+04</totfact>
</mgrwt>
</event>
<event>
 5    1  0.1270889E+001  0.9108744E+02  0.7546771E-02  0.1300239E+00
          1   -1    0    0  501    0  0.00000000000E+00  0.00000000000E+00  0.11765321856E+03  0.11765321856E+03  0.00000000000E+00 0. -1.
         -1   -1    0    0    0  501 -0.00000000000E+00 -0.00000000000E+00 -0.17630035110E+02  0.17630035110E+02  0.00000000000E+00 0.  1.
         23    2    1    2    0    0  0.00000000000E+00  0.00000000000E+00  0.10002318345E+03  0.13528325367E+03  0.91087438740E+02 0.  0.
        -11    1    3    3    0    0  0.38379010673E+02 -0.17502163661E+02  0.24504302881E+02  0.48782528151E+02  0.00000000000E+00 0. -1.
         11    1    3    3    0    0 -0.38379010673E+02  0.17502163661E+02  0.75518880569E+02  0.86500725520E+02  0.00000000000E+00 0.  1.
<mgrwt>
<rscale>  0 0.91087439E+02</rscale>
<asrwt>0</asrwt>
<pdfrwt beam="1">  1        1 0.18100495E-01 0.91087439E+02</pdfrwt>
<pdfrwt beam="2">  1       -1 0.27123132E-02 0.91087439E+02</pdfrwt>
<totfact> 0.10765706E+05</totfact>
</mgrwt>
</event>
<event>
 5    1  0.1270889E+001  0.9049507E+02  0.7546771E-02  0.1301657E+00
         -2   -1    0    0    0  501 -0.00000000000E+00  0.00000000000E+00  0.48151944927E+02  0.48151944927E+02  0.00000000000E+00 0.  1.
          2   -1    0    0  501    0  0.00000000000E+00 -0.00000000000E+00 -0.42518315292E+02  0.42518315292E+02  0.00000000000E+00 0. -1.
         23    2    1    2    0    0  0.00000000000E+00  0.00000000000E+00  0.56336296351E+01  0.90670260218E+02  0.90495073375E+02 0.  0.
        -11    1    3    3    0    0 -0.32366599532E+02  0.16857365087E+01  0.34451678252E+02  0.47300704088E+02  0.00000000000E+00 0.  1.
         11    1    3    3    0    0  0.32366599532E+02 -0.16857365087E+01 -0.28818048617E+02  0.43369556130E+02  0.00000000000E+00 0. -1.
<mgrwt>
<rscale>  0 0.90495073E+02</rscale>
<asrwt>0</asrwt>
<pdfrwt beam="2">  1        2 0.65412793E-02 0.90495073E+02</pdfrwt>
<pdfrwt beam="1">  1       -2 0.74079915E-02 0.90495073E+02</pdfrwt>
<totfact> 0.99025131E+04</totfact>
</mgrwt>
</event>
<event>
 5    1  0.1270889E+001  0.9140470E+02  0.7546771E-02  0.1299485E+00
          1   -1    0    0  501    0  0.00000000000E+00  0.00000000000E+00  0.88063915593E+02  0.88063915593E+02  0.00000000000E+00 0.  1.
         -1   -1    0    0    0  501 -0.00000000000E+00 -0.00000000000E+00 -0.23718053639E+02  0.23718053639E+02  0.00000000000E+00 0. -1.
         23    2    1    2    0    0  0.00000000000E+00  0.00000000000E+00  0.64345861954E+02  0.11178196923E+03  0.91404697334E+02 0.  0.
        -13    1    3    3    0    0  0.25681043164E+02  0.10347334614E+02  0.76640040740E+02  0.81487908037E+02  0.00000000000E+00 0.  1.
         13    1    3    3    0    0 -0.25681043164E+02 -0.10347334614E+02 -0.12294178786E+02  0.30294061194E+02  0.00000000000E+00 0. -1.
<mgrwt>
<rscale>  0 0.91404697E+02</rscale>
<asrwt>0</asrwt>
<pdfrwt beam="1">  1        1 0.13548295E-01 0.91404697E+02</pdfrwt>
<pdfrwt beam="2">  1       -1 0.36489314E-02 0.91404697E+02</pdfrwt>
<totfact> 0.10160275E+05</totfact>
</mgrwt>
</event>
<event>
 5    1  0.1270889E+001  0.9147137E+02  0.7546771E-02  0.1299327E+00
         -1   -1    0    0    0  501 -0.00000000000E+00  0.00000000000E+00  0.30410962737E+03  0.30410962737E+03  0.00000000000E+00 0.  1.
          1   -1    0    0  501    0  0.00000000000E+00 -0.00000000000E+00 -0.68782859771E+01  0.68782859771E+01  0.00000000000E+00 0. -1.
         23    2    1    2    0    0  0.00000000000E+00  0.00000000000E+00  0.29723134139E+03  0.31098791335E+03  0.91471372253E+02 0.  0.
        -11    1    3    3    0    0  0.42504854253E+02  0.12716843054E+02  0.11085262066E+03  0.11940135778E+03  0.00000000000E+00 0.  1.
         11    1    3    3    0    0 -0.42504854253E+02 -0.12716843054E+02  0.18637872073E+03  0.19158655557E+03  0.00000000000E+00 0. -1.
<mgrwt>
<rscale>  0 0.91471372E+02</rscale>
<asrwt>0</asrwt>
<pdfrwt beam="2">  1        1 0.10581981E-02 0.91471372E+02</pdfrwt>
<pdfrwt beam="1">  1       -1 0.46786086E-01 0.91471372E+02</pdfrwt>
<totfact> 0.59754294E+04</totfact>
</mgrwt>
</event>
<event>
 5    1  0.1270889E+001  0.9432496E+02  0.7546771E-02  0.1292704E+00
          3   -1    0    0  501    0  0.00000000000E+00  0.00000000000E+00  0.15069800721E+02  0.15069800721E+02  0.00000000000E+00 0. -1.
         -3   -1    0    0    0  501 -0.00000000000E+00 -0.00000000000E+00 -0.14759978977E+03  0.14759978977E+03  0.00000000000E+00 0.  1.
         23    2    1    2    0    0  0.00000000000E+00  0.00000000000E+00 -0.13252998905E+03  0.16266959049E+03  0.94324957848E+02 0.  0.
        -11    1    3    3    0    0  0.22117677512E+02 -0.19239730628E+02 -0.12997925074E+03  0.13324400368E+03  0.00000000000E+00 0.  1.
         11    1    3    3    0    0 -0.22117677512E+02  0.19239730628E+02 -0.25507383054E+01  0.29425586809E+02  0.00000000000E+00 0. -1.
<mgrwt>
<rscale>  0 0.94324958E+02</rscale>
<asrwt>0</asrwt>
<pdfrwt beam="1">  1        3 0.23184308E-02 0.94324958E+02</pdfrwt>
<pdfrwt beam="2">  1       -3 0.22707661E-01 0.94324958E+02</pdfrwt>
<totfact> 0.27860721E+04</totfact>
</mgrwt>
</event>
<event>
 5    1  0.1270889E+001  0.9260963E+02  0.7546771E-02  0.1296652E+00
         -4   -1    0    0    0  501 -0.00000000000E+00  0.00000000000E+00  0.33275919378E+03  0.33275919378E+03  0.00000000000E+00 0.  1.
          4   -1    0    0  501    0  0.00000000000E+00 -0.00000000000E+00 -0.64435066168E+01  0.64435066168E+01  0.00000000000E+00 0. -1.
         23    2    1    2    0    0  0.00000000000E+00  0.00000000000E+00  0.32631568716E+03  0.33920270040E+03  0.92609633774E+02 0.  0.
        -13    1    3    3    0    0  0.45998935432E+02  0.43158780396E+01  0.15180507951E+03  0.15867990115E+03  0.00000000000E+00 0.  1.
         13    1    3    3    0    0 -0.45998935432E+02 -0.43158780396E+01  0.17451060765E+03  0.18052279924E+03  0.00000000000E+00 0. -1.
<mgrwt>
<rscale>  0 0.92609634E+02</rscale>
<asrwt>0</asrwt>
<pdfrwt beam="2">  1        4 0.99130897E-03 0.92609634E+02</pdfrwt>
<pdfrwt beam="1">  1       -4 0.51193709E-01 0.92609634E+02</pdfrwt>
<totfact> 0.16009801E+04</totfact>
</mgrwt>
</event>
<event>
 5    1  0.1270889E+001  0.8922494E+02  0.7546771E-02  0.1304740E+00
         -2   -1    0    0    0  501 -0.00000000000E+00  0.00000000000E+00  0.26582248158E+02  0.26582248158E+02  0.00000000000E+00 0.  1.
          2   -1    0    0  501    0  0.00000000000E+00 -0.00000000000E+00 -0.74872235738E+02  0.74872235738E+02  0.00000000000E+00 0. -1.
         23    2    1    2    0    0  0.00000000000E+00  0.00000000000E+00 -0.48289987580E+02  0.10145448390E+03  0.89224937109E+02 0.  0.
        -11    1    3    3    0    0  0.31656673062E+02  0.58375890181E+01 -0.59266291404E+02  0.67444167218E+02  0.00000000000E+00 0. -1.
         11    1    3    3    0    0 -0.31656673062E+02 -0.58375890181E+01  0.10976303824E+02  0.34010316678E+02  0.00000000000E+00 0.  1.
<mgrwt>
<rscale>  0 0.89224937E+02</rscale>
<asrwt>0</asrwt>
<pdfrwt beam="2">  1        2 0.11518805E-01 0.89224937E+02</pdfrwt>
<pdfrwt beam="1">  1       -2 0.40895767E-02 0.89224937E+02</pdfrwt>
<totfact> 0.11970908E+05</totfact>
</mgrwt>
</event>
<event>
 5    1  0.1270889E+001  0.9252206E+02  0.7546771E-02  0.1296857E+00
         -4   -1    0    0    0  501 -0.00000000000E+00  0.00000000000E+00  0.65993400990E+02  0.65993400990E+02  0.00000000000E+00 0.  1.
          4   -1    0    0  501    0  0.00000000000E+00 -0.00000000000E+00 -0.32428739958E+02  0.32428739958E+02  0.00000000000E+00 0. -1.
         23    2    1    2    0    0  0.00000000000E+00  0.00000000000E+00  0.33564661032E+02  0.98422140948E+02  0.92522058768E+02 0.  0.
        -13    1    3    3    0    0 -0.17943461633E+02  0.38969742033E+02 -0.16265444730E+01  0.42933137043E+02  0.00000000000E+00 0. -1.
         13    1    3    3    0    0  0.17943461633E+02 -0.38969742033E+02  0.35191205505E+02  0.55489003905E+02  0.00000000000E+00 0.  1.
<mgrwt>
<rscale>  0 0.92522059E+02</rscale>
<asrwt>0</asrwt>
<pdfrwt beam="2">  1        4 0.49890369E-02 0.92522059E+02</pdfrwt>
<pdfrwt beam="1">  1       -4 0.10152831E-01 0.92522059E+02</pdfrwt>
<totfact> 0.25519489E+04</totfact>
</mgrwt>
</event>
<event>
 5    1  0.1270889E+001  0.9185511E+02  0.7546771E-02  0.1298420E+00
          1   -1    0    0  501    0  0.00000000000E+00  0.00000000000E+00  0.17145001965E+02  0.17145001965E+02  0.00000000000E+00 0.  1.
         -1   -1    0    0    0  501 -0.00000000000E+00 -0.00000000000E+00 -0.12302946872E+03  0.12302946872E+03  0.00000000000E+00 0. -1.
         23    2    1    2    0    0  0.00000000000E+00  0.00000000000E+00 -0.10588446675E+03  0.14017447068E+03  0.91855113802E+02 0.  0.
        -13    1    3    3    0    0  0.28227462427E+02  0.91823405933E+01 -0.10642408104E+03  0.11048615316E+03  0.00000000000E+00 0. -1.
         13    1    3    3    0    0 -0.28227462427E+02 -0.91823405933E+01  0.53961428976E+00  0.29688317524E+02  0.00000000000E+00 0.  1.
<mgrwt>
<rscale>  0 0.91855114E+02</rscale>
<asrwt>0</asrwt>
<pdfrwt beam="1">  1        1 0.26376926E-02 0.91855114E+02</pdfrwt>
<pdfrwt beam="2">  1       -1 0.18927610E-01 0.91855114E+02</pdfrwt>
<totfact> 0.76643171E+04</totfact>
</mgrwt>
</event>
<event>
 5    1  0.1270889E+001  0.9242544E+02  0.7546771E-02  0.1297082E+00
          2   -1    0    0  501    0  0.00000000000E+00  0.00000000000E+00  0.15719630128E+03  0.15719630128E+03  0.00000000000E+00 0. -1.
         -2   -1    0    0    0  501 -0.00000000000E+00 -0.00000000000E+00 -0.13585660510E+02  0.13585660510E+02  0.00000000000E+00 0.  1.
         23    2    1    2    0    0  0.00000000000E+00  0.00000000000E+00  0.14361064077E+03  0.17078196179E+03  0.92425442009E+02 0.  0.
        -11    1    3    3    0    0 -0.28536486038E+00  0.32326488815E+02  0.13282497183E+03  0.13670243763E+03  0.00000000000E+00 0. -1.
         11    1    3    3    0    0  0.28536486038E+00 -0.32326488815E+02  0.10785668932E+02  0.34079524154E+02  0.00000000000E+00 0.  1.
<mgrwt>
<rscale>  0 0.92425442E+02</rscale>
<asrwt>0</asrwt>
<pdfrwt beam="1">  1        2 0.24184045E-01 0.92425442E+02</pdfrwt>
<pdfrwt beam="2">  1       -2 0.20901017E-02 0.92425442E+02</pdfrwt>
<totfact> 0.13691794E+05</totfact>
</mgrwt>
</event>
<event>
 5    1  0.1270889E+001  0.9493509E+02  0.7546771E-02  0.1291322E+00
         -2   -1    0    0    0  501 -0.00000000000E+00  0.00000000000E+00  0.26047937232E+02  0.26047937232E+02  0.00000000000E+00 0.  1.
          2   -1    0    0  501    0  0.00000000000E+00 -0.00000000000E+00 -0.86500815050E+02  0.86500815050E+02  0.00000000000E+00 0. -1.
         23    2    1    2    0    0  0.00000000000E+00  0.00000000000E+00 -0.60452877818E+02  0.11254875228E+03  0.94935089422E+02 0.  0.
        -13    1    3    3    0    0  0.39502280727E+02 -0.20727751368E+02 -0.10996732840E+02  0.45945598185E+02  0.00000000000E+00 0.  1.
         13    1    3    3    0    0 -0.39502280727E+02  0.20727751368E+02 -0.49456144978E+02  0.66603154096E+02  0.00000000000E+00 0. -1.
<mgrwt>
<rscale>  0 0.94935089E+02</rscale>
<asrwt>0</asrwt>
<pdfrwt beam="2">  1        2 0.13307817E-01 0.94935089E+02</pdfrwt>
<pdfrwt beam="1">  1       -2 0.40073750E-02 0.94935089E+02</pdfrwt>
<totfact> 0.10499922E+05</totfact>
</mgrwt>
</event>
<event>
 5    1  0.1270889E+001  0.9039420E+02  0.7546771E-02  0.1301900E+00
         -1   -1    0    0    0  501 -0.00000000000E+00  0.00000000000E+00  0.15746889703E+03  0.15746889703E+03  0.00000000000E+00 0.  1.
          1   -1    0    0  501    0  0.00000000000E+00 -0.00000000000E+00 -0.12972579513E+02  0.12972579513E+02  0.00000000000E+00 0. -1.
         23    2    1    2    0    0  0.00000000000E+00  0.00000000000E+00  0.14449631752E+03  0.17044147654E+03  0.90394198653E+02 0.  0.
        -13    1    3    3    0    0  0.39239255380E+02 -0.18290361438E+02  0.47770936391E+02  0.64469518751E+02  0.00000000000E+00 0. -1.
         13    1    3    3    0    0 -0.39239255380E+02  0.18290361438E+02  0.96725381126E+02  0.10597195779E+03  0.00000000000E+00 0.  1.
<mgrwt>
<rscale>  0 0.90394199E+02</rscale>
<asrwt>0</asrwt>
<pdfrwt beam="2">  1        1 0.19957816E-02 0.90394199E+02</pdfrwt>
<pdfrwt beam="1">  1       -1 0.24225983E-01 0.90394199E+02</pdfrwt>
<totfact> 0.75601747E+04</totfact>
</mgrwt>
</event>
<event>
 5    1  0.1270889E+001  0.9100900E+02  0.7546771E-02  0.1300426E+00
         -1   -1    0    0    0  501 -0.00000000000E+00  0.00000000000E+00  0.49033014780E+02  0.49033014780E+02  0.00000000000E+00 0.  1.
          1   -1    0    0  501    0  0.00000000000E+00 -0.00000000000E+00 -0.42229901894E+02  0.42229901894E+02  0.00000000000E+00 0. -1.
         23    2    1    2    0    0  0.00000000000E+00  0.00000000000E+00  0.68031128864E+01  0.91262916674E+02  0.91008997439E+02 0.  0.
        -11    1    3    3    0    0  0.18934022665E+02  0.27813980757E+02  0.34122707696E+02  0.47921539211E+02  0.00000000000E+00 0.  1.
         11    1    3    3    0    0 -0.18934022665E+02 -0.27813980757E+02 -0.27319594809E+02  0.43341377463E+02  0.00000000000E+00 0. -1.
<mgrwt>
<rscale>  0 0.91008997E+02</rscale>
<asrwt>0</asrwt>
<pdfrwt beam="2">  1        1 0.64969080E-02 0.91008997E+02</pdfrwt>
<pdfrwt beam="1">  1       -1 0.75435407E-02 0.91008997E+02</pdfrwt>
<totfact> 0.91888038E+04</totfact>
</mgrwt>
</event>
<event>
 5    1  0.1270889E+001  0.8985701E+02  0.7546771E-02  0.1303198E+00
         -2   -1    0    0    0  501 -0.00000000000E+00  0.00000000000E+00  0.35435152399E+02  0.35435152399E+02  0.00000000000E+00 0.  1.
          2   -1    0    0  501    0  0.00000000000E+00 -0.00000000000E+00 -0.56965194873E+02  0.56965194873E+02  0.00000000000E+00 0. -1.
         23    2    1    2    0    0  0.00000000000E+00  0.00000000000E+00 -0.21530042474E+02  0.92400347273E+02  0.89857005554E+02 0.  0.
        -13    1    3    3    0    0 -0.29189073625E+02  0.27883727208E+02  0.95180332482E+01  0.41474054769E+02  0.00000000000E+00 0.  1.
         13    1    3    3    0    0  0.29189073625E+02 -0.27883727208E+02 -0.31048075722E+02  0.50926292503E+02  0.00000000000E+00 0. -1.
<mgrwt>
<rscale>  0 0.89857006E+02</rscale>
<asrwt>0</asrwt>
<pdfrwt beam="2">  1        2 0.87638760E-02 0.89857006E+02</pdfrwt>
<pdfrwt beam="1">  1       -2 0.54515620E-02 0.89857006E+02</pdfrwt>
<totfact> 0.10900535E+05</totfact>
</mgrwt>
</event>
<event>
 5    1  0.1270889E+001  0.9811868E+02  0.7546771E-02  0.1284303E+00
          1   -1    0    0  501    0  0.00000000000E+00  0.00000000000E+00  0.15225472949E+03  0.15225472949E+03  0.00000000000E+00 0. -1.
         -1   -1    0    0    0  501 -0.00000000000E+00 -0.00000000000E+00 -0.15807842002E+02  0.15807842002E+02  0.00000000000E+00 0.  1.
         23    2    1    2    0    0  0.00000000000E+00  0.00000000000E+00  0.13644688749E+03  0.16806257150E+03  0.98118677283E+02 0.  0.
        -11    1    3    3    0    0  0.42255334303E+02 -0.28407213552E+01  0.25807117974E+02  0.49594256855E+02  0.00000000000E+00 0.  1.
         11    1    3    3    0    0 -0.42255334303E+02  0.28407213552E+01  0.11063976952E+03  0.11846831464E+03  0.00000000000E+00 0. -1.
<mgrwt>
<rscale>  0 0.98118677E+02</rscale>
<asrwt>0</asrwt>
<pdfrwt beam="1">  1        1 0.23423803E-01 0.98118677E+02</pdfrwt>
<pdfrwt beam="2">  1       -1 0.24319758E-02 0.98118677E+02</pdfrwt>
<totfact> 0.92162666E+04</totfact>
</mgrwt>
</event>
<event>
 5    1  0.1270889E+001  0.8923487E+02  0.7546771E-02  0.1304715E+00
          1   -1    0    0  501    0  0.00000000000E+00  0.00000000000E+00  0.37972230976E+02  0.37972230976E+02  0.00000000000E+00 0. -1.
         -1   -1    0    0    0  501 -0.00000000000E+00 -0.00000000000E+00 -0.52425556243E+02  0.52425556243E+02  0.00000000000E+00 0.  1.
         23    2    1    2    0    0  0.00000000000E+00  0.00000000000E+00 -0.14453325267E+02  0.90397787219E+02  0.89234866071E+02 0.  0.
        -11    1    3    3    0    0  0.61205914016E+01 -0.42444172637E+02  0.52523926186E+01  0.43203669499E+02  0.00000000000E+00 0.  1.
         11    1    3    3    0    0 -0.61205914016E+01  0.42444172637E+02 -0.19705717885E+02  0.47194117720E+02  0.00000000000E+00 0. -1.
<mgrwt>
<rscale>  0 0.89234866E+02</rscale>
<asrwt>0</asrwt>
<pdfrwt beam="1">  1        1 0.58418817E-02 0.89234866E+02</pdfrwt>
<pdfrwt beam="2">  1       -1 0.80654702E-02 0.89234866E+02</pdfrwt>
<totfact> 0.95586778E+04</totfact>
</mgrwt>
</event>
<event>
 5    1  0.1270889E+001  0.9327485E+02  0.7546771E-02  0.1295110E+00
         -2   -1    0    0    0  501 -0.00000000000E+00  0.00000000000E+00  0.71493574986E+01  0.71493574986E+01  0.00000000000E+00 0.  1.
          2   -1    0    0  501    0  0.00000000000E+00 -0.00000000000E+00 -0.30423002598E+03  0.30423002598E+03  0.00000000000E+00 0. -1.
         23    2    1    2    0    0  0.00000000000E+00  0.00000000000E+00 -0.29708066848E+03  0.31137938348E+03  0.93274845859E+02 0.  0.
        -13    1    3    3    0    0 -0.19550799920E+02 -0.42278038174E+02 -0.14079509908E+03  0.14830012210E+03  0.00000000000E+00 0. -1.
         13    1    3    3    0    0  0.19550799920E+02  0.42278038174E+02 -0.15628556940E+03  0.16307926138E+03  0.00000000000E+00 0.  1.
<mgrwt>
<rscale>  0 0.93274846E+02</rscale>
<asrwt>0</asrwt>
<pdfrwt beam="2">  1        2 0.46804622E-01 0.93274846E+02</pdfrwt>
<pdfrwt beam="1">  1       -2 0.10999011E-02 0.93274846E+02</pdfrwt>
<totfact> 0.16994613E+05</totfact>
</mgrwt>
</event>
<event>
 5    1  0.1270889E+001  0.1056188E+03  0.7546771E-02  0.1268905E+00
          4   -1    0    0  501    0  0.00000000000E+00  0.00000000000E+00  0.16393053084E+03  0.16393053084E+03  0.00000000000E+00 0. -1.
         -4   -1    0    0    0  501 -0.00000000000E+00 -0.00000000000E+00 -0.17012285477E+02  0.17012285477E+02  0.00000000000E+00 0.  1.
         23    2    1    2    0    0  0.00000000000E+00  0.00000000000E+00  0.14691824536E+03  0.18094281632E+03  0.10561880494E+03 0.  0.
        -11    1    3    3    0    0  0.52317612287E+02 -0.70653758741E+01  0.75745350703E+02  0.92327732804E+02  0.00000000000E+00 0.  1.
         11    1    3    3    0    0 -0.52317612287E+02  0.70653758741E+01  0.71172894658E+02  0.88615083511E+02  0.00000000000E+00 0. -1.
<mgrwt>
<rscale>  0 0.10561880E+03</rscale>
<asrwt>0</asrwt>
<pdfrwt beam="1">  1        4 0.25220081E-01 0.10561880E+03</pdfrwt>
<pdfrwt beam="2">  1       -4 0.26172748E-02 0.10561880E+03</pdfrwt>
<totfact> 0.14907019E+04</totfact>
</mgrwt>
</event>
<event>
 5    1  0.1270889E+001  0.9116791E+02  0.7546771E-02  0.1300048E+00
          1   -1    0    0  501    0  0.00000000000E+00  0.00000000000E+00  0.18167900976E+02  0.18167900976E+02  0.00000000000E+00 0. -1.
         -1   -1    0    0    0  501 -0.00000000000E+00 -0.00000000000E+00 -0.11437188509E+03  0.11437188509E+03  0.00000000000E+00 0.  1.
         23    2    1    2    0    0  0.00000000000E+00  0.00000000000E+00 -0.96203984117E+02  0.13253978607E+03  0.91167912837E+02 0.  0.
        -13    1    3    3    0    0 -0.44359037267E+02  0.94423370457E+01 -0.41437444496E+02  0.61432432171E+02  0.00000000000E+00 0.  1.
         13    1    3    3    0    0  0.44359037267E+02 -0.94423370457E+01 -0.54766539621E+02  0.71107353896E+02  0.00000000000E+00 0. -1.
<mgrwt>
<rscale>  0 0.91167913E+02</rscale>
<asrwt>0</asrwt>
<pdfrwt beam="1">  1        1 0.27950617E-02 0.91167913E+02</pdfrwt>
<pdfrwt beam="2">  1       -1 0.17595675E-01 0.91167913E+02</pdfrwt>
<totfact> 0.79315795E+04</totfact>
</mgrwt>
</event>
<event>
 5    1  0.1270889E+001  0.1156309E+03  0.7546771E-02  0.1250484E+00
         -1   -1    0    0    0  501 -0.00000000000E+00  0.00000000000E+00  0.38173468056E+03  0.38173468056E+03  0.00000000000E+00 0.  1.
          1   -1    0    0  501    0  0.00000000000E+00 -0.00000000000E+00 -0.87564087644E+01  0.87564087644E+01  0.00000000000E+00 0. -1.
         23    2    1    2    0    0  0.00000000000E+00  0.00000000000E+00  0.37297827179E+03  0.39049108932E+03  0.11563087654E+03 0.  0.
        -13    1    3    3    0    0 -0.57291903662E+02 -0.33490781187E+01  0.21013965461E+03  0.21783538048E+03  0.00000000000E+00 0.  1.
         13    1    3    3    0    0  0.57291903662E+02  0.33490781187E+01  0.16283861718E+03  0.17265570884E+03  0.00000000000E+00 0. -1.
<mgrwt>
<rscale>  0 0.11563088E+03</rscale>
<asrwt>0</asrwt>
<pdfrwt beam="2">  1        1 0.13471401E-02 0.11563088E+03</pdfrwt>
<pdfrwt beam="1">  1       -1 0.58728399E-01 0.11563088E+03</pdfrwt>
<totfact> 0.29116023E+04</totfact>
</mgrwt>
</event>
<event>
 5    1  0.1270889E+001  0.9335541E+02  0.7546771E-02  0.1294924E+00
         -3   -1    0    0    0  501 -0.00000000000E+00  0.00000000000E+00  0.90952246821E+02  0.90952246821E+02  0.00000000000E+00 0.  1.
          3   -1    0    0  501    0  0.00000000000E+00 -0.00000000000E+00 -0.23955519981E+02  0.23955519981E+02  0.00000000000E+00 0. -1.
         23    2    1    2    0    0  0.00000000000E+00  0.00000000000E+00  0.66996726840E+02  0.11490776680E+03  0.93355414755E+02 0.  0.
        -11    1    3    3    0    0  0.13245560616E+02 -0.78388189001E+01  0.87739044886E+02  0.89078796329E+02  0.00000000000E+00 0.  1.
         11    1    3    3    0    0 -0.13245560616E+02  0.78388189001E+01 -0.20742318046E+02  0.25828970473E+02  0.00000000000E+00 0. -1.
<mgrwt>
<rscale>  0 0.93355415E+02</rscale>
<asrwt>0</asrwt>
<pdfrwt beam="2">  1        3 0.36854647E-02 0.93355415E+02</pdfrwt>
<pdfrwt beam="1">  1       -3 0.13992653E-01 0.93355415E+02</pdfrwt>
<totfact> 0.31505951E+04</totfact>
</mgrwt>
</event>
<event>
 5    1  0.1270889E+001  0.9035728E+02  0.7546771E-02  0.1301989E+00
         -3   -1    0    0    0  501 -0.00000000000E+00  0.00000000000E+00  0.24223374982E+03  0.24223374982E+03  0.00000000000E+00 0. -1.
          3   -1    0    0  501    0  0.00000000000E+00 -0.00000000000E+00 -0.84261983150E+01  0.84261983150E+01  0.00000000000E+00 0.  1.
         23    2    1    2    0    0  0.00000000000E+00  0.00000000000E+00  0.23380755150E+03  0.25065994813E+03  0.90357282264E+02 0.  0.
        -13    1    3    3    0    0 -0.31819288684E+02 -0.21696806419E+02  0.51380365642E+02  0.64211840923E+02  0.00000000000E+00 0.  1.
         13    1    3    3    0    0  0.31819288684E+02  0.21696806419E+02  0.18242718586E+03  0.18644810721E+03  0.00000000000E+00 0. -1.
<mgrwt>
<rscale>  0 0.90357282E+02</rscale>
<asrwt>0</asrwt>
<pdfrwt beam="2">  1        3 0.12963384E-02 0.90357282E+02</pdfrwt>
<pdfrwt beam="1">  1       -3 0.37266725E-01 0.90357282E+02</pdfrwt>
<totfact> 0.26710094E+04</totfact>
</mgrwt>
</event>
<event>
 5    1  0.1270889E+001  0.8992357E+02  0.7546771E-02  0.1303037E+00
          2   -1    0    0  501    0  0.00000000000E+00  0.00000000000E+00  0.61378961353E+02  0.61378961353E+02  0.00000000000E+00 0. -1.
         -2   -1    0    0    0  501 -0.00000000000E+00 -0.00000000000E+00 -0.32935751624E+02  0.32935751624E+02  0.00000000000E+00 0.  1.
         23    2    1    2    0    0  0.00000000000E+00  0.00000000000E+00  0.28443209729E+02  0.94314712977E+02  0.89923572573E+02 0.  0.
        -13    1    3    3    0    0 -0.99668827321E+01 -0.41502134264E+02 -0.60356383220E+00  0.42686416916E+02  0.00000000000E+00 0.  1.
         13    1    3    3    0    0  0.99668827321E+01  0.41502134264E+02  0.29046773561E+02  0.51628296061E+02  0.00000000000E+00 0. -1.
<mgrwt>
<rscale>  0 0.89923573E+02</rscale>
<asrwt>0</asrwt>
<pdfrwt beam="1">  1        2 0.94429171E-02 0.89923573E+02</pdfrwt>
<pdfrwt beam="2">  1       -2 0.50670387E-02 0.89923573E+02</pdfrwt>
<totfact> 0.11095403E+05</totfact>
</mgrwt>
</event>
<event>
 5    1  0.1270889E+001  0.9247610E+02  0.7546771E-02  0.1296964E+00
         -1   -1    0    0    0  501 -0.00000000000E+00  0.00000000000E+00  0.59388231706E+02  0.59388231706E+02  0.00000000000E+00 0.  1.
          1   -1    0    0  501    0  0.00000000000E+00 -0.00000000000E+00 -0.35999680631E+02  0.35999680631E+02  0.00000000000E+00 0. -1.
         23    2    1    2    0    0  0.00000000000E+00  0.00000000000E+00  0.23388551075E+02  0.95387912337E+02  0.92476102311E+02 0.  0.
        -11    1    3    3    0    0  0.14957158223E+01  0.29444522536E+02  0.48435209741E+02  0.56702615600E+02  0.00000000000E+00 0.  1.
         11    1    3    3    0    0 -0.14957158223E+01 -0.29444522536E+02 -0.25046658667E+02  0.38685296736E+02  0.00000000000E+00 0. -1.
<mgrwt>
<rscale>  0 0.92476102E+02</rscale>
<asrwt>0</asrwt>
<pdfrwt beam="2">  1        1 0.55384124E-02 0.92476102E+02</pdfrwt>
<pdfrwt beam="1">  1       -1 0.91366510E-02 0.92476102E+02</pdfrwt>
<totfact> 0.85690043E+04</totfact>
</mgrwt>
</event>
<event>
 5    1  0.1270889E+001  0.9173876E+02  0.7546771E-02  0.1298695E+00
          1   -1    0    0  501    0  0.00000000000E+00  0.00000000000E+00  0.94620889176E+02  0.94620889176E+02  0.00000000000E+00 0. -1.
         -1   -1    0    0    0  501 -0.00000000000E+00 -0.00000000000E+00 -0.22236105324E+02  0.22236105324E+02  0.00000000000E+00 0.  1.
         23    2    1    2    0    0  0.00000000000E+00  0.00000000000E+00  0.72384783852E+02  0.11685699450E+03  0.91738760784E+02 0.  0.
        -11    1    3    3    0    0  0.38157994099E+02  0.22806651687E+02  0.50593912702E+02  0.67349238135E+02  0.00000000000E+00 0. -1.
         11    1    3    3    0    0 -0.38157994099E+02 -0.22806651687E+02  0.21790871151E+02  0.49507756365E+02  0.00000000000E+00 0.  1.
<mgrwt>
<rscale>  0 0.91738761E+02</rscale>
<asrwt>0</asrwt>
<pdfrwt beam="1">  1        1 0.14557060E-01 0.91738761E+02</pdfrwt>
<pdfrwt beam="2">  1       -1 0.34209393E-02 0.91738761E+02</pdfrwt>
<totfact> 0.10177802E+05</totfact>
</mgrwt>
</event>
<event>
 5    1  0.1270889E+001  0.9229311E+02  0.7546771E-02  0.1297392E+00
         -2   -1    0    0    0  501 -0.00000000000E+00  0.00000000000E+00  0.33214425302E+02  0.33214425302E+02  0.00000000000E+00 0.  1.
          2   -1    0    0  501    0  0.00000000000E+00 -0.00000000000E+00 -0.64113847683E+02  0.64113847683E+02  0.00000000000E+00 0. -1.
         23    2    1    2    0    0  0.00000000000E+00  0.00000000000E+00 -0.30899422380E+02  0.97328272985E+02  0.92293111437E+02 0.  0.
        -13    1    3    3    0    0 -0.19942776255E+02  0.41125407506E+02 -0.87392909643E+01  0.46533736943E+02  0.00000000000E+00 0.  1.
         13    1    3    3    0    0  0.19942776255E+02 -0.41125407506E+02 -0.22160131416E+02  0.50794536042E+02  0.00000000000E+00 0. -1.
<mgrwt>
<rscale>  0 0.92293111E+02</rscale>
<asrwt>0</asrwt>
<pdfrwt beam="2">  1        2 0.98636687E-02 0.92293111E+02</pdfrwt>
<pdfrwt beam="1">  1       -2 0.51099117E-02 0.92293111E+02</pdfrwt>
<totfact> 0.10434790E+05</totfact>
</mgrwt>
</event>
<event>
 5    1  0.1270889E+001  0.9105363E+02  0.7546771E-02  0.1300320E+00
          1   -1    0    0  501    0  0.00000000000E+00  0.00000000000E+00  0.97794091863E+02  0.97794091863E+02  0.00000000000E+00 0. -1.
         -1   -1    0    0    0  501 -0.00000000000E+00 -0.00000000000E+00 -0.21194438009E+02  0.21194438009E+02  0.00000000000E+00 0.  1.
         23    2    1    2    0    0  0.00000000000E+00  0.00000000000E+00  0.76599653854E+02  0.11898852987E+03  0.91053628542E+02 0.  0.
        -13    1    3    3    0    0  0.21673292398E+02  0.11707153916E+02  0.88333256713E+02  0.91703616601E+02  0.00000000000E+00 0. -1.
         13    1    3    3    0    0 -0.21673292398E+02 -0.11707153916E+02 -0.11733602859E+02  0.27284913271E+02  0.00000000000E+00 0.  1.
<mgrwt>
<rscale>  0 0.91053629E+02</rscale>
<asrwt>0</asrwt>
<pdfrwt beam="1">  1        1 0.15045245E-01 0.91053629E+02</pdfrwt>
<pdfrwt beam="2">  1       -1 0.32606828E-02 0.91053629E+02</pdfrwt>
<totfact> 0.10445104E+05</totfact>
</mgrwt>
</event>
<event>
 5    1  0.1270889E+001  0.9076384E+02  0.7546771E-02  0.1301012E+00
         -2   -1    0    0    0  501 -0.00000000000E+00  0.00000000000E+00  0.19474066322E+02  0.19474066322E+02  0.00000000000E+00 0.  1.
          2   -1    0    0  501    0  0.00000000000E+00 -0.00000000000E+00 -0.10575698915E+03  0.10575698915E+03  0.00000000000E+00 0. -1.
         23    2    1    2    0    0  0.00000000000E+00  0.00000000000E+00 -0.86282922826E+02  0.12523105547E+03  0.90763839070E+02 0.  0.
        -13    1    3    3    0    0 -0.27681941330E+02 -0.40490920145E+01  0.61607426504E+01  0.28646810851E+02  0.00000000000E+00 0.  1.
         13    1    3    3    0    0  0.27681941330E+02  0.40490920145E+01 -0.92443665476E+02  0.96584244619E+02  0.00000000000E+00 0. -1.
<mgrwt>
<rscale>  0 0.90763839E+02</rscale>
<asrwt>0</asrwt>
<pdfrwt beam="2">  1        2 0.16270306E-01 0.90763839E+02</pdfrwt>
<pdfrwt beam="1">  1       -2 0.29960102E-02 0.90763839E+02</pdfrwt>
<totfact> 0.12636703E+05</totfact>
</mgrwt>
</event>
<event>
 5    1  0.1270889E+001  0.9206979E+02  0.7546771E-02  0.1297915E+00
         -2   -1    0    0    0  501 -0.00000000000E+00  0.00000000000E+00  0.24014682978E+02  0.24014682978E+02  0.00000000000E+00 0.  1.
          2   -1    0    0  501    0  0.00000000000E+00 -0.00000000000E+00 -0.88246487864E+02  0.88246487864E+02  0.00000000000E+00 0. -1.
         23    2    1    2    0    0  0.00000000000E+00  0.00000000000E+00 -0.64231804886E+02  0.11226117084E+03  0.92069787227E+02 0.  0.
        -11    1    3    3    0    0 -0.11849108815E+02 -0.34624178155E+02 -0.66168727061E+02  0.75614387080E+02  0.00000000000E+00 0.  1.
         11    1    3    3    0    0  0.11849108815E+02  0.34624178155E+02  0.19369221757E+01  0.36646783762E+02  0.00000000000E+00 0. -1.
<mgrwt>
<rscale>  0 0.92069787E+02</rscale>
<asrwt>0</asrwt>
<pdfrwt beam="2">  1        2 0.13576383E-01 0.92069787E+02</pdfrwt>
<pdfrwt beam="1">  1       -2 0.36945666E-02 0.92069787E+02</pdfrwt>
<totfact> 0.11502114E+05</totfact>
</mgrwt>
</event>
<event>
 5    1  0.1270889E+001  0.9307263E+02  0.7546771E-02  0.1295577E+00
         -3   -1    0    0    0  501 -0.00000000000E+00  0.00000000000E+00  0.29123464861E+02  0.29123464861E+02  0.00000000000E+00 0.  1.
          3   -1    0    0  501    0  0.00000000000E+00 -0.00000000000E+00 -0.74360260587E+02  0.74360260587E+02  0.00000000000E+00 0. -1.
         23    2    1    2    0    0  0.00000000000E+00  0.00000000000E+00 -0.45236795726E+02  0.10348372545E+03  0.93072626185E+02 0.  0.
        -11    1    3    3    0    0  0.40075936349E+02  0.10270106080E+02 -0.46311000709E+02  0.62098828812E+02  0.00000000000E+00 0.  1.
         11    1    3    3    0    0 -0.40075936349E+02 -0.10270106080E+02  0.10742049831E+01  0.41384896635E+02  0.00000000000E+00 0. -1.
<mgrwt>
<rscale>  0 0.93072626E+02</rscale>
<asrwt>0</asrwt>
<pdfrwt beam="2">  1        3 0.11440040E-01 0.93072626E+02</pdfrwt>
<pdfrwt beam="1">  1       -3 0.44805331E-02 0.93072626E+02</pdfrwt>
<totfact> 0.32535600E+04</totfact>
</mgrwt>
</event>
<event>
 5    1  0.1270889E+001  0.9019671E+02  0.7546771E-02  0.1302376E+00
          3   -1    0    0  501    0  0.00000000000E+00  0.00000000000E+00  0.84594982538E+02  0.84594982538E+02  0.00000000000E+00 0. -1.
         -3   -1    0    0    0  501 -0.00000000000E+00 -0.00000000000E+00 -0.24042341387E+02  0.24042341387E+02  0.00000000000E+00 0.  1.
         23    2    1    2    0    0  0.00000000000E+00  0.00000000000E+00  0.60552641151E+02  0.10863732392E+03  0.90196706143E+02 0.  0.
        -11    1    3    3    0    0  0.21281226724E+02  0.35558155873E+02  0.88456444482E+01  0.42373558804E+02  0.00000000000E+00 0.  1.
         11    1    3    3    0    0 -0.21281226724E+02 -0.35558155873E+02  0.51706996703E+02  0.66263765121E+02  0.00000000000E+00 0. -1.
<mgrwt>
<rscale>  0 0.90196706E+02</rscale>
<asrwt>0</asrwt>
<pdfrwt beam="1">  1        3 0.13014613E-01 0.90196706E+02</pdfrwt>
<pdfrwt beam="2">  1       -3 0.36988218E-02 0.90196706E+02</pdfrwt>
<totfact> 0.35055375E+04</totfact>
</mgrwt>
</event>
<event>
 5    1  0.1270889E+001  0.8993407E+02  0.7546771E-02  0.1303011E+00
         -4   -1    0    0    0  501 -0.00000000000E+00  0.00000000000E+00  0.49060768384E+02  0.49060768384E+02  0.00000000000E+00 0.  1.
          4   -1    0    0  501    0  0.00000000000E+00 -0.00000000000E+00 -0.41214888010E+02  0.41214888010E+02  0.00000000000E+00 0. -1.
         23    2    1    2    0    0  0.00000000000E+00  0.00000000000E+00  0.78458803741E+01  0.90275656394E+02  0.89934066396E+02 0.  0.
        -11    1    3    3    0    0 -0.26901667487E+02  0.34054489352E+02  0.15741619590E+02  0.46164992645E+02  0.00000000000E+00 0.  1.
         11    1    3    3    0    0  0.26901667487E+02 -0.34054489352E+02 -0.78957392161E+01  0.44110663749E+02  0.00000000000E+00 0. -1.
<mgrwt>
<rscale>  0 0.89934066E+02</rscale>
<asrwt>0</asrwt>
<pdfrwt beam="2">  1        4 0.63407520E-02 0.89934066E+02</pdfrwt>
<pdfrwt beam="1">  1       -4 0.75478105E-02 0.89934066E+02</pdfrwt>
<totfact> 0.28099862E+04</totfact>
</mgrwt>
</event>
<event>
 5    1  0.1270889E+001  0.8947064E+02  0.7546771E-02  0.1304139E+00
         -4   -1    0    0    0  501 -0.00000000000E+00  0.00000000000E+00  0.59064223140E+02  0.59064223140E+02  0.00000000000E+00 0.  1.
          4   -1    0    0  501    0  0.00000000000E+00 -0.00000000000E+00 -0.33882588811E+02  0.33882588811E+02  0.00000000000E+00 0. -1.
         23    2    1    2    0    0  0.00000000000E+00  0.00000000000E+00  0.25181634329E+02  0.92946811952E+02  0.89470638449E+02 0.  0.
        -11    1    3    3    0    0  0.34600062991E+02 -0.25722139060E+02  0.19159851930E+00  0.43114145090E+02  0.00000000000E+00 0. -1.
         11    1    3    3    0    0 -0.34600062991E+02  0.25722139060E+02  0.24990035809E+02  0.49832666862E+02  0.00000000000E+00 0.  1.
<mgrwt>
<rscale>  0 0.89470638E+02</rscale>
<asrwt>0</asrwt>
<pdfrwt beam="2">  1        4 0.52127060E-02 0.89470638E+02</pdfrwt>
<pdfrwt beam="1">  1       -4 0.90868036E-02 0.89470638E+02</pdfrwt>
<totfact> 0.28313311E+04</totfact>
</mgrwt>
</event>
<event>
 4    1  0.1270889E+001  0.4292917E+02  0.7546771E-02  0.1487700E+00
         -3   -1    0    0    0  501 -0.00000000000E+00  0.00000000000E+00  0.56190908524E+02  0.56190908524E+02  0.00000000000E+00 0.  1.
          3   -1    0    0  501    0  0.00000000000E+00 -0.00000000000E+00 -0.81993425731E+01  0.81993425731E+01  0.00000000000E+00 0. -1.
        -11    1    1    2    0    0 -0.15730731615E+01  0.20776842217E+02  0.16263304238E+02  0.26431927596E+02  0.00000000000E+00 0. -1.
         11    1    1    2    0    0  0.15730731615E+01 -0.20776842217E+02  0.31728261712E+02  0.37958323501E+02  0.00000000000E+00 0.  1.
<mgrwt>
<rscale>  0 0.42929175E+02</rscale>
<asrwt>0</asrwt>
<pdfrwt beam="2">  1        3 0.12614374E-02 0.42929175E+02</pdfrwt>
<pdfrwt beam="1">  1       -3 0.86447549E-02 0.42929175E+02</pdfrwt>
<totfact> 0.26623626E+05</totfact>
</mgrwt>
</event>
<event>
 5    1  0.1270889E+001  0.9162380E+02  0.7546771E-02  0.1298966E+00
         -1   -1    0    0    0  501 -0.00000000000E+00  0.00000000000E+00  0.23221650996E+03  0.23221650996E+03  0.00000000000E+00 0.  1.
          1   -1    0    0  501    0  0.00000000000E+00 -0.00000000000E+00 -0.90378157294E+01  0.90378157294E+01  0.00000000000E+00 0. -1.
         23    2    1    2    0    0  0.00000000000E+00  0.00000000000E+00  0.22317869423E+03  0.24125432569E+03  0.91623796611E+02 0.  0.
        -13    1    3    3    0    0 -0.31655521359E+02 -0.27533375160E+02  0.16003913291E+03  0.16544691851E+03  0.00000000000E+00 0.  1.
         13    1    3    3    0    0  0.31655521359E+02  0.27533375160E+02  0.63139561320E+02  0.75807407183E+02  0.00000000000E+00 0. -1.
<mgrwt>
<rscale>  0 0.91623797E+02</rscale>
<asrwt>0</asrwt>
<pdfrwt beam="2">  1        1 0.13904334E-02 0.91623797E+02</pdfrwt>
<pdfrwt beam="1">  1       -1 0.35725612E-01 0.91623797E+02</pdfrwt>
<totfact> 0.65515734E+04</totfact>
</mgrwt>
</event>
<event>
 5    1  0.1270889E+001  0.9343198E+02  0.7546771E-02  0.1294747E+00
          2   -1    0    0  501    0  0.00000000000E+00  0.00000000000E+00  0.56022213148E+01  0.56022213148E+01  0.00000000000E+00 0. -1.
         -2   -1    0    0    0  501 -0.00000000000E+00 -0.00000000000E+00 -0.38955686231E+03  0.38955686231E+03  0.00000000000E+00 0.  1.
         23    2    1    2    0    0  0.00000000000E+00  0.00000000000E+00 -0.38395464099E+03  0.39515908362E+03  0.93431980763E+02 0.  0.
        -11    1    3    3    0    0 -0.34021437899E+02 -0.31951310878E+02 -0.20047747824E+03  0.20583868389E+03  0.00000000000E+00 0. -1.
         11    1    3    3    0    0  0.34021437899E+02  0.31951310878E+02 -0.18347716275E+03  0.18932039973E+03  0.00000000000E+00 0.  1.
<mgrwt>
<rscale>  0 0.93431981E+02</rscale>
<asrwt>0</asrwt>
<pdfrwt beam="1">  1        2 0.86188001E-03 0.93431981E+02</pdfrwt>
<pdfrwt beam="2">  1       -2 0.59931838E-01 0.93431981E+02</pdfrwt>
<totfact> 0.40794452E+04</totfact>
</mgrwt>
</event>
<event>
 5    1  0.1270889E+001  0.9326078E+02  0.7546771E-02  0.1295142E+00
          3   -1    0    0  501    0  0.00000000000E+00  0.00000000000E+00  0.11130569672E+02  0.11130569672E+02  0.00000000000E+00 0. -1.
         -3   -1    0    0    0  501 -0.00000000000E+00 -0.00000000000E+00 -0.19535327955E+03  0.19535327955E+03  0.00000000000E+00 0.  1.
         23    2    1    2    0    0  0.00000000000E+00  0.00000000000E+00 -0.18422270987E+03  0.20648384922E+03  0.93260780368E+02 0.  0.
        -11    1    3    3    0    0 -0.13699791434E+02 -0.39175110854E+02 -0.45039022250E+02  0.61244486454E+02  0.00000000000E+00 0.  1.
         11    1    3    3    0    0  0.13699791434E+02  0.39175110854E+02 -0.13918368762E+03  0.14523936276E+03  0.00000000000E+00 0. -1.
<mgrwt>
<rscale>  0 0.93260780E+02</rscale>
<asrwt>0</asrwt>
<pdfrwt beam="1">  1        3 0.17123954E-02 0.93260780E+02</pdfrwt>
<pdfrwt beam="2">  1       -3 0.30054350E-01 0.93260780E+02</pdfrwt>
<totfact> 0.26495464E+04</totfact>
</mgrwt>
</event>
<event>
 5    1  0.1270889E+001  0.9409310E+02  0.7546771E-02  0.1293232E+00
          1   -1    0    0  501    0  0.00000000000E+00  0.00000000000E+00  0.21600363980E+02  0.21600363980E+02  0.00000000000E+00 0. -1.
         -1   -1    0    0    0  501 -0.00000000000E+00 -0.00000000000E+00 -0.10246946387E+03  0.10246946387E+03  0.00000000000E+00 0.  1.
         23    2    1    2    0    0  0.00000000000E+00  0.00000000000E+00 -0.80869099891E+02  0.12406982785E+03  0.94093096801E+02 0.  0.
        -13    1    3    3    0    0 -0.46968611568E+02  0.34666842610E+00 -0.36894677351E+02  0.59727613952E+02  0.00000000000E+00 0.  1.
         13    1    3    3    0    0  0.46968611568E+02 -0.34666842610E+00 -0.43974422540E+02  0.64342213898E+02  0.00000000000E+00 0. -1.
<mgrwt>
<rscale>  0 0.94093097E+02</rscale>
<asrwt>0</asrwt>
<pdfrwt beam="1">  1        1 0.33231329E-02 0.94093097E+02</pdfrwt>
<pdfrwt beam="2">  1       -1 0.15764533E-01 0.94093097E+02</pdfrwt>
<totfact> 0.74679948E+04</totfact>
</mgrwt>
</event>
<event>
 5    1  0.1270889E+001  0.8844314E+02  0.7546771E-02  0.1306666E+00
          4   -1    0    0  501    0  0.00000000000E+00  0.00000000000E+00  0.13939226959E+03  0.13939226959E+03  0.00000000000E+00 0. -1.
         -4   -1    0    0    0  501 -0.00000000000E+00 -0.00000000000E+00 -0.14029094204E+02  0.14029094204E+02  0.00000000000E+00 0.  1.
         23    2    1    2    0    0  0.00000000000E+00  0.00000000000E+00  0.12536317538E+03  0.15342136379E+03  0.88443140636E+02 0.  0.
        -13    1    3    3    0    0 -0.21775945365E+02  0.34622326905E+02  0.33517650749E+02  0.52880338772E+02  0.00000000000E+00 0.  1.
         13    1    3    3    0    0  0.21775945365E+02 -0.34622326905E+02  0.91845524635E+02  0.10054102502E+03  0.00000000000E+00 0. -1.
<mgrwt>
<rscale>  0 0.88443141E+02</rscale>
<asrwt>0</asrwt>
<pdfrwt beam="1">  1        4 0.21444964E-01 0.88443141E+02</pdfrwt>
<pdfrwt beam="2">  1       -4 0.21583223E-02 0.88443141E+02</pdfrwt>
<totfact> 0.25500007E+04</totfact>
</mgrwt>
</event>
<event>
 5    1  0.1270889E+001  0.8715607E+02  0.7546771E-02  0.1309889E+00
         -4   -1    0    0    0  501 -0.00000000000E+00  0.00000000000E+00  0.27890227566E+02  0.27890227566E+02  0.00000000000E+00 0.  1.
          4   -1    0    0  501    0  0.00000000000E+00 -0.00000000000E+00 -0.68089981802E+02  0.68089981802E+02  0.00000000000E+00 0. -1.
         23    2    1    2    0    0  0.00000000000E+00  0.00000000000E+00 -0.40199754235E+02  0.95980209368E+02  0.87156068921E+02 0.  0.
        -13    1    3    3    0    0  0.78371333053E+01  0.24989478807E+02 -0.58456589699E+02  0.64055191739E+02  0.00000000000E+00 0. -1.
         13    1    3    3    0    0 -0.78371333053E+01 -0.24989478807E+02  0.18256835463E+02  0.31925017629E+02  0.00000000000E+00 0.  1.
<mgrwt>
<rscale>  0 0.87156069E+02</rscale>
<asrwt>0</asrwt>
<pdfrwt beam="2">  1        4 0.10475382E-01 0.87156069E+02</pdfrwt>
<pdfrwt beam="1">  1       -4 0.42908043E-02 0.87156069E+02</pdfrwt>
<totfact> 0.30166945E+04</totfact>
</mgrwt>
</event>
<event>
 5    1  0.1270889E+001  0.9185251E+02  0.7546771E-02  0.1298427E+00
         -2   -1    0    0    0  501 -0.00000000000E+00  0.00000000000E+00  0.16439662388E+02  0.16439662388E+02  0.00000000000E+00 0.  1.
          2   -1    0    0  501    0  0.00000000000E+00 -0.00000000000E+00 -0.12830075466E+03  0.12830075466E+03  0.00000000000E+00 0. -1.
         23    2    1    2    0    0  0.00000000000E+00  0.00000000000E+00 -0.11186109227E+03  0.14474041705E+03  0.91852514189E+02 0.  0.
        -13    1    3    3    0    0 -0.40877793465E+02  0.74873124056E+01 -0.25125241909E+02  0.48562656708E+02  0.00000000000E+00 0.  1.
         13    1    3    3    0    0  0.40877793465E+02 -0.74873124056E+01 -0.86735850365E+02  0.96177760340E+02  0.00000000000E+00 0. -1.
<mgrwt>
<rscale>  0 0.91852514E+02</rscale>
<asrwt>0</asrwt>
<pdfrwt beam="2">  1        2 0.19738577E-01 0.91852514E+02</pdfrwt>
<pdfrwt beam="1">  1       -2 0.25291789E-02 0.91852514E+02</pdfrwt>
<totfact> 0.13005794E+05</totfact>
</mgrwt>
</event>
<event>
 5    1  0.1270889E+001  0.9083248E+02  0.7546771E-02  0.1300848E+00
         -4   -1    0    0    0  501 -0.00000000000E+00  0.00000000000E+00  0.96449675310E+02  0.96449675310E+02  0.00000000000E+00 0.  1.
          4   -1    0    0  501    0  0.00000000000E+00 -0.00000000000E+00 -0.21385609092E+02  0.21385609092E+02  0.00000000000E+00 0. -1.
         23    2    1    2    0    0  0.00000000000E+00  0.00000000000E+00  0.75064066218E+02  0.11783528440E+03  0.90832484348E+02 0.  0.
        -11    1    3    3    0    0  0.11088703845E+02  0.22762564781E+02 -0.11379796603E+02  0.27759565543E+02  0.00000000000E+00 0. -1.
         11    1    3    3    0    0 -0.11088703845E+02 -0.22762564781E+02  0.86443862822E+02  0.90075718859E+02  0.00000000000E+00 0.  1.
<mgrwt>
<rscale>  0 0.90832484E+02</rscale>
<asrwt>0</asrwt>
<pdfrwt beam="2">  1        4 0.32900938E-02 0.90832484E+02</pdfrwt>
<pdfrwt beam="1">  1       -4 0.14838411E-01 0.90832484E+02</pdfrwt>
<totfact> 0.25656907E+04</totfact>
</mgrwt>
</event>
<event>
 5    1  0.1270889E+001  0.9173867E+02  0.7546771E-02  0.1298695E+00
          1   -1    0    0  501    0  0.00000000000E+00  0.00000000000E+00  0.20595640610E+02  0.20595640610E+02  0.00000000000E+00 0. -1.
         -1   -1    0    0    0  501 -0.00000000000E+00 -0.00000000000E+00 -0.10215734657E+03  0.10215734657E+03  0.00000000000E+00 0.  1.
         23    2    1    2    0    0  0.00000000000E+00  0.00000000000E+00 -0.81561705964E+02  0.12275298718E+03  0.91738672230E+02 0.  0.
        -11    1    3    3    0    0 -0.34390146687E+02 -0.47859155109E+01 -0.80887524640E+02  0.88024876136E+02  0.00000000000E+00 0.  1.
         11    1    3    3    0    0  0.34390146687E+02  0.47859155109E+01 -0.67418132413E+00  0.34728111047E+02  0.00000000000E+00 0. -1.
<mgrwt>
<rscale>  0 0.91738672E+02</rscale>
<asrwt>0</asrwt>
<pdfrwt beam="1">  1        1 0.31685602E-02 0.91738672E+02</pdfrwt>
<pdfrwt beam="2">  1       -1 0.15716515E-01 0.91738672E+02</pdfrwt>
<totfact> 0.79772494E+04</totfact>
</mgrwt>
</event>
<event>
 5    1  0.1270889E+001  0.8266717E+02  0.7546771E-02  0.1321648E+00
         -2   -1    0    0    0  501 -0.00000000000E+00  0.00000000000E+00  0.12734573850E+03  0.12734573850E+03  0.00000000000E+00 0.  1.
          2   -1    0    0  501    0  0.00000000000E+00 -0.00000000000E+00 -0.13415960567E+02  0.13415960567E+02  0.00000000000E+00 0. -1.
         23    2    1    2    0    0  0.00000000000E+00  0.00000000000E+00  0.11392977793E+03  0.14076169907E+03  0.82667173801E+02 0.  0.
        -11    1    3    3    0    0  0.34283471432E+02 -0.21872313778E+02  0.44370176110E+02  0.60186934225E+02  0.00000000000E+00 0. -1.
         11    1    3    3    0    0 -0.34283471432E+02  0.21872313778E+02  0.69559601824E+02  0.80574764842E+02  0.00000000000E+00 0.  1.
<mgrwt>
<rscale>  0 0.82667174E+02</rscale>
<asrwt>0</asrwt>
<pdfrwt beam="2">  1        2 0.20639940E-02 0.82667174E+02</pdfrwt>
<pdfrwt beam="1">  1       -2 0.19591651E-01 0.82667174E+02</pdfrwt>
<totfact> 0.94612306E+04</totfact>
</mgrwt>
</event>
<event>
 5    1  0.1270889E+001  0.9408666E+02  0.7546771E-02  0.1293247E+00
         -2   -1    0    0    0  501 -0.00000000000E+00  0.00000000000E+00  0.17323123877E+02  0.17323123877E+02  0.00000000000E+00 0.  1.
          2   -1    0    0  501    0  0.00000000000E+00 -0.00000000000E+00 -0.12775263884E+03  0.12775263884E+03  0.00000000000E+00 0. -1.
         23    2    1    2    0    0  0.00000000000E+00  0.00000000000E+00 -0.11042951496E+03  0.14507576271E+03  0.94086657675E+02 0.  0.
        -13    1    3    3    0    0 -0.33847693095E+02  0.29000928386E+01 -0.50366386754E+01  0.34343042897E+02  0.00000000000E+00 0.  1.
         13    1    3    3    0    0  0.33847693095E+02 -0.29000928386E+01 -0.10539287628E+03  0.11073271982E+03  0.00000000000E+00 0. -1.
<mgrwt>
<rscale>  0 0.94086658E+02</rscale>
<asrwt>0</asrwt>
<pdfrwt beam="2">  1        2 0.19654252E-01 0.94086658E+02</pdfrwt>
<pdfrwt beam="1">  1       -2 0.26650960E-02 0.94086658E+02</pdfrwt>
<totfact> 0.12160657E+05</totfact>
</mgrwt>
</event>
<event>
 5    1  0.1270889E+001  0.9159683E+02  0.7546771E-02  0.1299030E+00
         -4   -1    0    0    0  501 -0.00000000000E+00  0.00000000000E+00  0.11486990982E+02  0.11486990982E+02  0.00000000000E+00 0.  1.
          4   -1    0    0  501    0  0.00000000000E+00 -0.00000000000E+00 -0.18259743013E+03  0.18259743013E+03  0.00000000000E+00 0. -1.
         23    2    1    2    0    0  0.00000000000E+00  0.00000000000E+00 -0.17111043914E+03  0.19408442111E+03  0.91596834731E+02 0.  0.
        -11    1    3    3    0    0  0.22365630355E+02 -0.34666036056E+02 -0.43414187148E+02  0.59889457525E+02  0.00000000000E+00 0.  1.
         11    1    3    3    0    0 -0.22365630355E+02  0.34666036056E+02 -0.12769625200E+03  0.13419496358E+03  0.00000000000E+00 0. -1.
<mgrwt>
<rscale>  0 0.91596835E+02</rscale>
<asrwt>0</asrwt>
<pdfrwt beam="2">  1        4 0.28091913E-01 0.91596835E+02</pdfrwt>
<pdfrwt beam="1">  1       -4 0.17672293E-02 0.91596835E+02</pdfrwt>
<totfact> 0.21370602E+04</totfact>
</mgrwt>
</event>
<event>
 5    1  0.1270889E+001  0.9203822E+02  0.7546771E-02  0.1297990E+00
         -1   -1    0    0    0  501 -0.00000000000E+00  0.00000000000E+00  0.32987360358E+02  0.32987360358E+02  0.00000000000E+00 0.  1.
          1   -1    0    0  501    0  0.00000000000E+00 -0.00000000000E+00 -0.64199083294E+02  0.64199083294E+02  0.00000000000E+00 0. -1.
         23    2    1    2    0    0  0.00000000000E+00  0.00000000000E+00 -0.31211722936E+02  0.97186443653E+02  0.92038215874E+02 0.  0.
        -11    1    3    3    0    0 -0.36213201930E+02 -0.34834262748E+01 -0.45364297804E+02  0.58150234461E+02  0.00000000000E+00 0. -1.
         11    1    3    3    0    0  0.36213201930E+02  0.34834262748E+01  0.14152574868E+02  0.39036209192E+02  0.00000000000E+00 0.  1.
<mgrwt>
<rscale>  0 0.92038216E+02</rscale>
<asrwt>0</asrwt>
<pdfrwt beam="2">  1        1 0.98767821E-02 0.92038216E+02</pdfrwt>
<pdfrwt beam="1">  1       -1 0.50749785E-02 0.92038216E+02</pdfrwt>
<totfact> 0.94862106E+04</totfact>
</mgrwt>
</event>
<event>
 5    1  0.1270889E+001  0.9236235E+02  0.7546771E-02  0.1297230E+00
         -4   -1    0    0    0  501 -0.00000000000E+00  0.00000000000E+00  0.52650095129E+02  0.52650095129E+02  0.00000000000E+00 0.  1.
          4   -1    0    0  501    0  0.00000000000E+00 -0.00000000000E+00 -0.40507065095E+02  0.40507065095E+02  0.00000000000E+00 0. -1.
         23    2    1    2    0    0  0.00000000000E+00  0.00000000000E+00  0.12143030034E+02  0.93157160225E+02  0.92362347971E+02 0.  0.
        -11    1    3    3    0    0 -0.14563755599E+02 -0.18613349895E+02  0.46088383500E+02  0.51794776427E+02  0.00000000000E+00 0.  1.
         11    1    3    3    0    0  0.14563755599E+02  0.18613349895E+02 -0.33945353466E+02  0.41362383797E+02  0.00000000000E+00 0. -1.
<mgrwt>
<rscale>  0 0.92362348E+02</rscale>
<asrwt>0</asrwt>
<pdfrwt beam="2">  1        4 0.62318561E-02 0.92362348E+02</pdfrwt>
<pdfrwt beam="1">  1       -4 0.81000147E-02 0.92362348E+02</pdfrwt>
<totfact> 0.25960569E+04</totfact>
</mgrwt>
</event>
<event>
 5    1  0.1270889E+001  0.9101929E+02  0.7546771E-02  0.1300402E+00
          2   -1    0    0  501    0  0.00000000000E+00  0.00000000000E+00  0.42886128853E+02  0.42886128853E+02  0.00000000000E+00 0. -1.
         -2   -1    0    0    0  501 -0.00000000000E+00 -0.00000000000E+00 -0.48293652495E+02  0.48293652495E+02  0.00000000000E+00 0.  1.
         23    2    1    2    0    0  0.00000000000E+00  0.00000000000E+00 -0.54075236420E+01  0.91179781348E+02  0.91019290344E+02 0.  0.
        -11    1    3    3    0    0  0.31806190473E+02  0.24746070610E+02 -0.23886401716E+02  0.46846151923E+02  0.00000000000E+00 0.  1.
         11    1    3    3    0    0 -0.31806190473E+02 -0.24746070610E+02  0.18478878074E+02  0.44333629425E+02  0.00000000000E+00 0. -1.
<mgrwt>
<rscale>  0 0.91019290E+02</rscale>
<asrwt>0</asrwt>
<pdfrwt beam="1">  1        2 0.65978660E-02 0.91019290E+02</pdfrwt>
<pdfrwt beam="2">  1       -2 0.74297927E-02 0.91019290E+02</pdfrwt>
<totfact> 0.97609682E+04</totfact>
</mgrwt>
</event>
<event>
 5    1  0.1270889E+001  0.9236622E+02  0.7546771E-02  0.1297221E+00
          2   -1    0    0  501    0  0.00000000000E+00  0.00000000000E+00  0.17098147855E+03  0.17098147855E+03  0.00000000000E+00 0. -1.
         -2   -1    0    0    0  501 -0.00000000000E+00 -0.00000000000E+00 -0.12474332301E+02  0.12474332301E+02  0.00000000000E+00 0.  1.
         23    2    1    2    0    0  0.00000000000E+00  0.00000000000E+00  0.15850714625E+03  0.18345581086E+03  0.92366222849E+02 0.  0.
        -11    1    3    3    0    0  0.44519840439E+02  0.11140041302E+02  0.68978468883E+02  0.82850141113E+02  0.00000000000E+00 0.  1.
         11    1    3    3    0    0 -0.44519840439E+02 -0.11140041302E+02  0.89528677369E+02  0.10060566974E+03  0.00000000000E+00 0. -1.
<mgrwt>
<rscale>  0 0.92366223E+02</rscale>
<asrwt>0</asrwt>
<pdfrwt beam="1">  1        2 0.26304841E-01 0.92366223E+02</pdfrwt>
<pdfrwt beam="2">  1       -2 0.19191282E-02 0.92366223E+02</pdfrwt>
<totfact> 0.14122832E+05</totfact>
</mgrwt>
</event>
<event>
 5    1  0.1270889E+001  0.8387607E+02  0.7546771E-02  0.1318398E+00
          3   -1    0    0  501    0  0.00000000000E+00  0.00000000000E+00  0.14181906950E+02  0.14181906950E+02  0.00000000000E+00 0. -1.
         -3   -1    0    0    0  501 -0.00000000000E+00 -0.00000000000E+00 -0.12401708064E+03  0.12401708064E+03  0.00000000000E+00 0.  1.
         23    2    1    2    0    0  0.00000000000E+00  0.00000000000E+00 -0.10983517369E+03  0.13819898759E+03  0.83876068051E+02 0.  0.
        -11    1    3    3    0    0  0.21515722527E+02  0.13781089814E+02 -0.12329490082E+00  0.25551124319E+02  0.00000000000E+00 0. -1.
         11    1    3    3    0    0 -0.21515722527E+02 -0.13781089814E+02 -0.10971187879E+03  0.11264786327E+03  0.00000000000E+00 0.  1.
<mgrwt>
<rscale>  0 0.83876068E+02</rscale>
<asrwt>0</asrwt>
<pdfrwt beam="1">  1        3 0.21818319E-02 0.83876068E+02</pdfrwt>
<pdfrwt beam="2">  1       -3 0.19079551E-01 0.83876068E+02</pdfrwt>
<totfact> 0.40126220E+04</totfact>
</mgrwt>
</event>
<event>
 5    1  0.1270889E+001  0.8884628E+02  0.7546771E-02  0.1305670E+00
          4   -1    0    0  501    0  0.00000000000E+00  0.00000000000E+00  0.19166085770E+02  0.19166085770E+02  0.00000000000E+00 0. -1.
         -4   -1    0    0    0  501 -0.00000000000E+00 -0.00000000000E+00 -0.10296391188E+03  0.10296391188E+03  0.00000000000E+00 0.  1.
         23    2    1    2    0    0  0.00000000000E+00  0.00000000000E+00 -0.83797826112E+02  0.12212999765E+03  0.88846275473E+02 0.  0.
        -13    1    3    3    0    0 -0.14377225200E+02  0.21550406786E+02 -0.91505239100E+02  0.95101700405E+02  0.00000000000E+00 0.  1.
         13    1    3    3    0    0  0.14377225200E+02 -0.21550406786E+02  0.77074129881E+01  0.27028297247E+02  0.00000000000E+00 0. -1.
<mgrwt>
<rscale>  0 0.88846275E+02</rscale>
<asrwt>0</asrwt>
<pdfrwt beam="1">  1        4 0.29486286E-02 0.88846275E+02</pdfrwt>
<pdfrwt beam="2">  1       -4 0.15840602E-01 0.88846275E+02</pdfrwt>
<totfact> 0.26967898E+04</totfact>
</mgrwt>
</event>
<event>
 5    1  0.1270889E+001  0.9280201E+02  0.7546771E-02  0.1296205E+00
          1   -1    0    0  501    0  0.00000000000E+00  0.00000000000E+00  0.11043148128E+03  0.11043148128E+03  0.00000000000E+00 0. -1.
         -1   -1    0    0    0  501 -0.00000000000E+00 -0.00000000000E+00 -0.19496734687E+02  0.19496734687E+02  0.00000000000E+00 0.  1.
         23    2    1    2    0    0  0.00000000000E+00  0.00000000000E+00  0.90934746594E+02  0.12992821597E+03  0.92802010575E+02 0.  0.
        -13    1    3    3    0    0  0.27699165682E+02 -0.55917273505E+01  0.96995261428E+02  0.10102767905E+03  0.00000000000E+00 0. -1.
         13    1    3    3    0    0 -0.27699165682E+02  0.55917273505E+01 -0.60605148340E+01  0.28900536921E+02  0.00000000000E+00 0.  1.
<mgrwt>
<rscale>  0 0.92802011E+02</rscale>
<asrwt>0</asrwt>
<pdfrwt beam="1">  1        1 0.16989458E-01 0.92802011E+02</pdfrwt>
<pdfrwt beam="2">  1       -1 0.29994977E-02 0.92802011E+02</pdfrwt>
<totfact> 0.10122021E+05</totfact>
</mgrwt>
</event>
<event>
 5    1  0.1270889E+001  0.9305687E+02  0.7546771E-02  0.1295613E+00
          1   -1    0    0  501    0  0.00000000000E+00  0.00000000000E+00  0.15906007116E+02  0.15906007116E+02  0.00000000000E+00 0. -1.
         -1   -1    0    0    0  501 -0.00000000000E+00 -0.00000000000E+00 -0.13610551828E+03  0.13610551828E+03  0.00000000000E+00 0.  1.
         23    2    1    2    0    0  0.00000000000E+00  0.00000000000E+00 -0.12019951117E+03  0.15201152540E+03  0.93056871694E+02 0.  0.
        -11    1    3    3    0    0 -0.37433086011E+02 -0.49446864605E+00 -0.10523422991E+03  0.11169477862E+03  0.00000000000E+00 0.  1.
         11    1    3    3    0    0  0.37433086011E+02  0.49446864605E+00 -0.14965281262E+02  0.40316746778E+02  0.00000000000E+00 0. -1.
<mgrwt>
<rscale>  0 0.93056872E+02</rscale>
<asrwt>0</asrwt>
<pdfrwt beam="1">  1        1 0.24470779E-02 0.93056872E+02</pdfrwt>
<pdfrwt beam="2">  1       -1 0.20939311E-01 0.93056872E+02</pdfrwt>
<totfact> 0.72514186E+04</totfact>
</mgrwt>
</event>
<event>
 5    1  0.1270889E+001  0.5875928E+02  0.7546771E-02  0.1403113E+00
          2   -1    0    0  501    0  0.00000000000E+00  0.00000000000E+00  0.70235458504E+02  0.70235458504E+02  0.00000000000E+00 0.  1.
         -2   -1    0    0    0  501 -0.00000000000E+00 -0.00000000000E+00 -0.12289563689E+02  0.12289563689E+02  0.00000000000E+00 0. -1.
         23    2    1    2    0    0  0.00000000000E+00  0.00000000000E+00  0.57945894815E+02  0.82525022193E+02  0.58759276392E+02 0.  0.
        -11    1    3    3    0    0 -0.19579540887E+02  0.20496545785E+02  0.18121616001E+02  0.33643123769E+02  0.00000000000E+00 0. -1.
         11    1    3    3    0    0  0.19579540887E+02 -0.20496545785E+02  0.39824278814E+02  0.48881898424E+02  0.00000000000E+00 0.  1.
<mgrwt>
<rscale>  0 0.58759276E+02</rscale>
<asrwt>0</asrwt>
<pdfrwt beam="1">  1        2 0.10805455E-01 0.58759276E+02</pdfrwt>
<pdfrwt beam="2">  1       -2 0.18907022E-02 0.58759276E+02</pdfrwt>
<totfact> 0.36257394E+05</totfact>
</mgrwt>
</event>
<event>
 5    1  0.1270889E+001  0.9116924E+02  0.7546771E-02  0.1300045E+00
          1   -1    0    0  501    0  0.00000000000E+00  0.00000000000E+00  0.24253934607E+02  0.24253934607E+02  0.00000000000E+00 0. -1.
         -1   -1    0    0    0  501 -0.00000000000E+00 -0.00000000000E+00 -0.85675072658E+02  0.85675072658E+02  0.00000000000E+00 0.  1.
         23    2    1    2    0    0  0.00000000000E+00  0.00000000000E+00 -0.61421138051E+02  0.10992900727E+03  0.91169240640E+02 0.  0.
        -11    1    3    3    0    0  0.33910412659E+02  0.11972576258E+02 -0.64487135656E+02  0.73836639509E+02  0.00000000000E+00 0.  1.
         11    1    3    3    0    0 -0.33910412659E+02 -0.11972576258E+02  0.30659976044E+01  0.36092367757E+02  0.00000000000E+00 0. -1.
<mgrwt>
<rscale>  0 0.91169241E+02</rscale>
<asrwt>0</asrwt>
<pdfrwt beam="1">  1        1 0.37313746E-02 0.91169241E+02</pdfrwt>
<pdfrwt beam="2">  1       -1 0.13180780E-01 0.91169241E+02</pdfrwt>
<totfact> 0.83680242E+04</totfact>
</mgrwt>
</event>
<event>
 5    1  0.1270889E+001  0.9053842E+02  0.7546771E-02  0.1301553E+00
         -4   -1    0    0    0  501 -0.00000000000E+00  0.00000000000E+00  0.47545095904E+02  0.47545095904E+02  0.00000000000E+00 0.  1.
          4   -1    0    0  501    0  0.00000000000E+00 -0.00000000000E+00 -0.43102270276E+02  0.43102270276E+02  0.00000000000E+00 0. -1.
         23    2    1    2    0    0  0.00000000000E+00  0.00000000000E+00  0.44428256280E+01  0.90647366179E+02  0.90538424416E+02 0.  0.
        -11    1    3    3    0    0 -0.92074244238E+01 -0.42671971554E+02  0.14220313002E+02  0.45911775425E+02  0.00000000000E+00 0.  1.
         11    1    3    3    0    0  0.92074244238E+01  0.42671971554E+02 -0.97774873736E+01  0.44735590754E+02  0.00000000000E+00 0. -1.
<mgrwt>
<rscale>  0 0.90538424E+02</rscale>
<asrwt>0</asrwt>
<pdfrwt beam="2">  1        4 0.66311185E-02 0.90538424E+02</pdfrwt>
<pdfrwt beam="1">  1       -4 0.73146302E-02 0.90538424E+02</pdfrwt>
<totfact> 0.27570561E+04</totfact>
</mgrwt>
</event>
<event>
 5    1  0.1270889E+001  0.9197601E+02  0.7546771E-02  0.1298136E+00
         -2   -1    0    0    0  501 -0.00000000000E+00  0.00000000000E+00  0.25495702124E+02  0.25495702124E+02  0.00000000000E+00 0.  1.
          2   -1    0    0  501    0  0.00000000000E+00 -0.00000000000E+00 -0.82951099386E+02  0.82951099386E+02  0.00000000000E+00 0. -1.
         23    2    1    2    0    0  0.00000000000E+00  0.00000000000E+00 -0.57455397261E+02  0.10844680151E+03  0.91976008194E+02 0.  0.
        -13    1    3    3    0    0  0.15229294380E+02  0.18586129699E+02 -0.74960765579E+02  0.78717799770E+02  0.00000000000E+00 0. -1.
         13    1    3    3    0    0 -0.15229294380E+02 -0.18586129699E+02  0.17505368318E+02  0.29729001740E+02  0.00000000000E+00 0.  1.
<mgrwt>
<rscale>  0 0.91976008E+02</rscale>
<asrwt>0</asrwt>
<pdfrwt beam="2">  1        2 0.12761708E-01 0.91976008E+02</pdfrwt>
<pdfrwt beam="1">  1       -2 0.39224157E-02 0.91976008E+02</pdfrwt>
<totfact> 0.11327676E+05</totfact>
</mgrwt>
</event>
<event>
 5    1  0.1270889E+001  0.9011423E+02  0.7546771E-02  0.1302575E+00
         -1   -1    0    0    0  501 -0.00000000000E+00  0.00000000000E+00  0.30353234538E+02  0.30353234538E+02  0.00000000000E+00 0.  1.
          1   -1    0    0  501    0  0.00000000000E+00 -0.00000000000E+00 -0.66883928943E+02  0.66883928943E+02  0.00000000000E+00 0. -1.
         23    2    1    2    0    0  0.00000000000E+00  0.00000000000E+00 -0.36530694405E+02  0.97237163480E+02  0.90114229331E+02 0.  0.
        -13    1    3    3    0    0 -0.35024557880E+02  0.14239588249E+02 -0.44710894597E+02  0.58553818183E+02  0.00000000000E+00 0.  1.
         13    1    3    3    0    0  0.35024557880E+02 -0.14239588249E+02  0.81802001924E+01  0.38683345297E+02  0.00000000000E+00 0. -1.
<mgrwt>
<rscale>  0 0.90114229E+02</rscale>
<asrwt>0</asrwt>
<pdfrwt beam="2">  1        1 0.10289835E-01 0.90114229E+02</pdfrwt>
<pdfrwt beam="1">  1       -1 0.46697285E-02 0.90114229E+02</pdfrwt>
<totfact> 0.10119792E+05</totfact>
</mgrwt>
</event>
<event>
 5    1  0.1270889E+001  0.8347294E+02  0.7546771E-02  0.1319475E+00
         -2   -1    0    0    0  501 -0.00000000000E+00  0.00000000000E+00  0.61229673296E+01  0.61229673296E+01  0.00000000000E+00 0.  1.
          2   -1    0    0  501    0  0.00000000000E+00 -0.00000000000E+00 -0.28449162335E+03  0.28449162335E+03  0.00000000000E+00 0. -1.
         23    2    1    2    0    0  0.00000000000E+00  0.00000000000E+00 -0.27836865602E+03  0.29061459068E+03  0.83472939694E+02 0.  0.
        -13    1    3    3    0    0  0.63300082415E+01  0.36377650993E+02 -0.20692072611E+03  0.21018941312E+03  0.00000000000E+00 0. -1.
         13    1    3    3    0    0 -0.63300082415E+01 -0.36377650993E+02 -0.71447929910E+02  0.80425177554E+02  0.00000000000E+00 0.  1.
<mgrwt>
<rscale>  0 0.83472940E+02</rscale>
<asrwt>0</asrwt>
<pdfrwt beam="2">  1        2 0.43767944E-01 0.83472940E+02</pdfrwt>
<pdfrwt beam="1">  1       -2 0.94199494E-03 0.83472940E+02</pdfrwt>
<totfact> 0.22269425E+05</totfact>
</mgrwt>
</event>
<event>
 5    1  0.1270889E+001  0.8286596E+02  0.7546771E-02  0.1321110E+00
         -1   -1    0    0    0  501 -0.00000000000E+00  0.00000000000E+00  0.74586701541E+01  0.74586701541E+01  0.00000000000E+00 0.  1.
          1   -1    0    0  501    0  0.00000000000E+00 -0.00000000000E+00 -0.23016056093E+03  0.23016056093E+03  0.00000000000E+00 0. -1.
         23    2    1    2    0    0  0.00000000000E+00  0.00000000000E+00 -0.22270189078E+03  0.23761923109E+03  0.82865956978E+02 0.  0.
        -11    1    3    3    0    0 -0.13106672372E+02 -0.35809916561E+02 -0.15781498946E+03  0.16235672417E+03  0.00000000000E+00 0. -1.
         11    1    3    3    0    0  0.13106672372E+02  0.35809916561E+02 -0.64886901319E+02  0.75262506918E+02  0.00000000000E+00 0.  1.
<mgrwt>
<rscale>  0 0.82865957E+02</rscale>
<asrwt>0</asrwt>
<pdfrwt beam="2">  1        1 0.35409318E-01 0.82865957E+02</pdfrwt>
<pdfrwt beam="1">  1       -1 0.11474877E-02 0.82865957E+02</pdfrwt>
<totfact> 0.15691898E+05</totfact>
</mgrwt>
</event>
<event>
 5    1  0.1270889E+001  0.9002383E+02  0.7546771E-02  0.1302794E+00
         -1   -1    0    0    0  501 -0.00000000000E+00  0.00000000000E+00  0.14356204906E+02  0.14356204906E+02  0.00000000000E+00 0.  1.
          1   -1    0    0  501    0  0.00000000000E+00 -0.00000000000E+00 -0.14112869697E+03  0.14112869697E+03  0.00000000000E+00 0. -1.
         23    2    1    2    0    0  0.00000000000E+00  0.00000000000E+00 -0.12677249207E+03  0.15548490188E+03  0.90023829999E+02 0.  0.
        -13    1    3    3    0    0  0.80693585786E+01 -0.38342120328E+02 -0.25121344285E+02  0.46543685692E+02  0.00000000000E+00 0.  1.
         13    1    3    3    0    0 -0.80693585786E+01  0.38342120328E+02 -0.10165114778E+03  0.10894121619E+03  0.00000000000E+00 0. -1.
<mgrwt>
<rscale>  0 0.90023830E+02</rscale>
<asrwt>0</asrwt>
<pdfrwt beam="2">  1        1 0.21712107E-01 0.90023830E+02</pdfrwt>
<pdfrwt beam="1">  1       -1 0.22086470E-02 0.90023830E+02</pdfrwt>
<totfact> 0.11476447E+05</totfact>
</mgrwt>
</event>
<event>
 5    1  0.1270889E+001  0.8894305E+02  0.7546771E-02  0.1305432E+00
         -2   -1    0    0    0  501 -0.00000000000E+00  0.00000000000E+00  0.26738332219E+02  0.26738332219E+02  0.00000000000E+00 0.  1.
          2   -1    0    0  501    0  0.00000000000E+00 -0.00000000000E+00 -0.73965594173E+02  0.73965594173E+02  0.00000000000E+00 0. -1.
         23    2    1    2    0    0  0.00000000000E+00  0.00000000000E+00 -0.47227261953E+02  0.10070392639E+03  0.88943052113E+02 0.  0.
        -11    1    3    3    0    0  0.95305080491E+01  0.32117748394E+02  0.94996964338E+01  0.34822759482E+02  0.00000000000E+00 0.  1.
         11    1    3    3    0    0 -0.95305080491E+01 -0.32117748394E+02 -0.56726958387E+02  0.65881166910E+02  0.00000000000E+00 0. -1.
<mgrwt>
<rscale>  0 0.88943052E+02</rscale>
<asrwt>0</asrwt>
<pdfrwt beam="2">  1        2 0.11379322E-01 0.88943052E+02</pdfrwt>
<pdfrwt beam="1">  1       -2 0.41135896E-02 0.88943052E+02</pdfrwt>
<totfact> 0.12035712E+05</totfact>
</mgrwt>
</event>
<event>
 5    1  0.1270889E+001  0.8209002E+02  0.7546771E-02  0.1323223E+00
          1   -1    0    0  501    0  0.00000000000E+00  0.00000000000E+00  0.48963914320E+01  0.48963914320E+01  0.00000000000E+00 0. -1.
         -1   -1    0    0    0  501 -0.00000000000E+00 -0.00000000000E+00 -0.34406828230E+03  0.34406828230E+03  0.00000000000E+00 0.  1.
         23    2    1    2    0    0  0.00000000000E+00  0.00000000000E+00 -0.33917189087E+03  0.34896467373E+03  0.82090023498E+02 0.  0.
        -13    1    3    3    0    0  0.14019195498E+02 -0.37765093622E+02 -0.13612626933E+03  0.14196161925E+03  0.00000000000E+00 0. -1.
         13    1    3    3    0    0 -0.14019195498E+02  0.37765093622E+02 -0.20304562154E+03  0.20700305448E+03  0.00000000000E+00 0.  1.
<mgrwt>
<rscale>  0 0.82090023E+02</rscale>
<asrwt>0</asrwt>
<pdfrwt beam="1">  1        1 0.75329093E-03 0.82090023E+02</pdfrwt>
<pdfrwt beam="2">  1       -1 0.52933586E-01 0.82090023E+02</pdfrwt>
<totfact> 0.75231117E+04</totfact>
</mgrwt>
</event>
<event>
 5    1  0.1270889E+001  0.9219197E+02  0.7546771E-02  0.1297629E+00
          1   -1    0    0  501    0  0.00000000000E+00  0.00000000000E+00  0.97881407858E+02  0.97881407858E+02  0.00000000000E+00 0. -1.
         -1   -1    0    0    0  501 -0.00000000000E+00 -0.00000000000E+00 -0.21708311011E+02  0.21708311011E+02  0.00000000000E+00 0.  1.
         23    2    1    2    0    0  0.00000000000E+00  0.00000000000E+00  0.76173096847E+02  0.11958971887E+03  0.92191974573E+02 0.  0.
        -11    1    3    3    0    0 -0.30499208910E+02 -0.32617511126E+02  0.23254580779E+02  0.50347584881E+02  0.00000000000E+00 0. -1.
         11    1    3    3    0    0  0.30499208910E+02  0.32617511126E+02  0.52918516069E+02  0.69242133987E+02  0.00000000000E+00 0.  1.
<mgrwt>
<rscale>  0 0.92191975E+02</rscale>
<asrwt>0</asrwt>
<pdfrwt beam="1">  1        1 0.15058678E-01 0.92191975E+02</pdfrwt>
<pdfrwt beam="2">  1       -1 0.33397402E-02 0.92191975E+02</pdfrwt>
<totfact> 0.10097994E+05</totfact>
</mgrwt>
</event>
<event>
 5    1  0.1270889E+001  0.9192679E+02  0.7546771E-02  0.1298252E+00
          2   -1    0    0  501    0  0.00000000000E+00  0.00000000000E+00  0.29518477283E+03  0.29518477283E+03  0.00000000000E+00 0. -1.
         -2   -1    0    0    0  501 -0.00000000000E+00 -0.00000000000E+00 -0.71569872824E+01  0.71569872824E+01  0.00000000000E+00 0.  1.
         23    2    1    2    0    0  0.00000000000E+00  0.00000000000E+00  0.28802778555E+03  0.30234176011E+03  0.91926789678E+02 0.  0.
        -11    1    3    3    0    0  0.15773347442E+02 -0.41553073162E+02  0.10549292876E+03  0.11447364062E+03  0.00000000000E+00 0.  1.
         11    1    3    3    0    0 -0.15773347442E+02  0.41553073162E+02  0.18253485679E+03  0.18786811949E+03  0.00000000000E+00 0. -1.
<mgrwt>
<rscale>  0 0.91926790E+02</rscale>
<asrwt>0</asrwt>
<pdfrwt beam="1">  1        2 0.45413033E-01 0.91926790E+02</pdfrwt>
<pdfrwt beam="2">  1       -2 0.11010752E-02 0.91926790E+02</pdfrwt>
<totfact> 0.17471419E+05</totfact>
</mgrwt>
</event>
<event>
 5    1  0.1270889E+001  0.9355770E+02  0.7546771E-02  0.1294458E+00
         -1   -1    0    0    0  501 -0.00000000000E+00  0.00000000000E+00  0.22822878102E+03  0.22822878102E+03  0.00000000000E+00 0.  1.
          1   -1    0    0  501    0  0.00000000000E+00 -0.00000000000E+00 -0.95880148549E+01  0.95880148549E+01  0.00000000000E+00 0. -1.
         23    2    1    2    0    0  0.00000000000E+00  0.00000000000E+00  0.21864076616E+03  0.23781679587E+03  0.93557702895E+02 0.  0.
        -11    1    3    3    0    0  0.30962134480E+02  0.31614175217E+02  0.70757499830E+02  0.83454979651E+02  0.00000000000E+00 0. -1.
         11    1    3    3    0    0 -0.30962134480E+02 -0.31614175217E+02  0.14788326633E+03  0.15436181622E+03  0.00000000000E+00 0.  1.
<mgrwt>
<rscale>  0 0.93557703E+02</rscale>
<asrwt>0</asrwt>
<pdfrwt beam="2">  1        1 0.14750794E-02 0.93557703E+02</pdfrwt>
<pdfrwt beam="1">  1       -1 0.35112116E-01 0.93557703E+02</pdfrwt>
<totfact> 0.62377577E+04</totfact>
</mgrwt>
</event>
<event>
 5    1  0.1270889E+001  0.9035507E+02  0.7546771E-02  0.1301994E+00
         -1   -1    0    0    0  501 -0.00000000000E+00  0.00000000000E+00  0.27578579689E+02  0.27578579689E+02  0.00000000000E+00 0.  1.
          1   -1    0    0  501    0  0.00000000000E+00 -0.00000000000E+00 -0.74007062709E+02  0.74007062709E+02  0.00000000000E+00 0. -1.
         23    2    1    2    0    0  0.00000000000E+00  0.00000000000E+00 -0.46428483019E+02  0.10158564240E+03  0.90355070173E+02 0.  0.
        -11    1    3    3    0    0  0.40095009839E+02 -0.20001304743E+02 -0.29706750482E+02  0.53760143504E+02  0.00000000000E+00 0. -1.
         11    1    3    3    0    0 -0.40095009839E+02  0.20001304743E+02 -0.16721732537E+02  0.47825498894E+02  0.00000000000E+00 0.  1.
<mgrwt>
<rscale>  0 0.90355070E+02</rscale>
<asrwt>0</asrwt>
<pdfrwt beam="2">  1        1 0.11385702E-01 0.90355070E+02</pdfrwt>
<pdfrwt beam="1">  1       -1 0.42428585E-02 0.90355070E+02</pdfrwt>
<totfact> 0.10203021E+05</totfact>
</mgrwt>
</event>
<event>
 5    1  0.1270889E+001  0.8881608E+02  0.7546771E-02  0.1305744E+00
          1   -1    0    0  501    0  0.00000000000E+00  0.00000000000E+00  0.83723995805E+01  0.83723995805E+01  0.00000000000E+00 0. -1.
         -1   -1    0    0    0  501 -0.00000000000E+00 -0.00000000000E+00 -0.23554465641E+03  0.23554465641E+03  0.00000000000E+00 0.  1.
         23    2    1    2    0    0  0.00000000000E+00  0.00000000000E+00 -0.22717225682E+03  0.24391705599E+03  0.88816079231E+02 0.  0.
        -11    1    3    3    0    0  0.34299135385E+02  0.63385392651E+01 -0.38101574036E+02  0.51655955244E+02  0.00000000000E+00 0. -1.
         11    1    3    3    0    0 -0.34299135385E+02 -0.63385392651E+01 -0.18907068279E+03  0.19226110074E+03  0.00000000000E+00 0.  1.
<mgrwt>
<rscale>  0 0.88816079E+02</rscale>
<asrwt>0</asrwt>
<pdfrwt beam="1">  1        1 0.12880613E-02 0.88816079E+02</pdfrwt>
<pdfrwt beam="2">  1       -1 0.36237645E-01 0.88816079E+02</pdfrwt>
<totfact> 0.70728179E+04</totfact>
</mgrwt>
</event>
<event>
 5    1  0.1270889E+001  0.9291061E+02  0.7546771E-02  0.1295952E+00
         -3   -1    0    0    0  501 -0.00000000000E+00  0.00000000000E+00  0.26349592850E+02  0.26349592850E+02  0.00000000000E+00 0.  1.
          3   -1    0    0  501    0  0.00000000000E+00 -0.00000000000E+00 -0.81902413983E+02  0.81902413983E+02  0.00000000000E+00 0. -1.
         23    2    1    2    0    0  0.00000000000E+00  0.00000000000E+00 -0.55552821133E+02  0.10825200683E+03  0.92910607831E+02 0.  0.
        -13    1    3    3    0    0  0.16238342407E+02 -0.37327426070E+02 -0.16955499062E+01  0.40741813787E+02  0.00000000000E+00 0.  1.
         13    1    3    3    0    0 -0.16238342407E+02  0.37327426070E+02 -0.53857271226E+02  0.67510193046E+02  0.00000000000E+00 0. -1.
<mgrwt>
<rscale>  0 0.92910608E+02</rscale>
<asrwt>0</asrwt>
<pdfrwt beam="2">  1        3 0.12600371E-01 0.92910608E+02</pdfrwt>
<pdfrwt beam="1">  1       -3 0.40537835E-02 0.92910608E+02</pdfrwt>
<totfact> 0.32364279E+04</totfact>
</mgrwt>
</event>
<event>
 5    1  0.1270889E+001  0.8930420E+02  0.7546771E-02  0.1304545E+00
         -4   -1    0    0    0  501 -0.00000000000E+00  0.00000000000E+00  0.27987529347E+02  0.27987529347E+02  0.00000000000E+00 0.  1.
          4   -1    0    0  501    0  0.00000000000E+00 -0.00000000000E+00 -0.71239231804E+02  0.71239231804E+02  0.00000000000E+00 0. -1.
         23    2    1    2    0    0  0.00000000000E+00  0.00000000000E+00 -0.43251702457E+02  0.99226761151E+02  0.89304201262E+02 0.  0.
        -11    1    3    3    0    0  0.39757884754E+02  0.16214882213E+02 -0.35243101296E+02  0.55548969336E+02  0.00000000000E+00 0.  1.
         11    1    3    3    0    0 -0.39757884754E+02 -0.16214882213E+02 -0.80086011614E+01  0.43677791815E+02  0.00000000000E+00 0. -1.
<mgrwt>
<rscale>  0 0.89304201E+02</rscale>
<asrwt>0</asrwt>
<pdfrwt beam="2">  1        4 0.10959882E-01 0.89304201E+02</pdfrwt>
<pdfrwt beam="1">  1       -4 0.43057737E-02 0.89304201E+02</pdfrwt>
<totfact> 0.28035066E+04</totfact>
</mgrwt>
</event>
<event>
 5    1  0.1270889E+001  0.9161590E+02  0.7546771E-02  0.1298985E+00
          3   -1    0    0  501    0  0.00000000000E+00  0.00000000000E+00  0.35811263589E+02  0.35811263589E+02  0.00000000000E+00 0. -1.
         -3   -1    0    0    0  501 -0.00000000000E+00 -0.00000000000E+00 -0.58595199974E+02  0.58595199974E+02  0.00000000000E+00 0.  1.
         23    2    1    2    0    0  0.00000000000E+00  0.00000000000E+00 -0.22783936386E+02  0.94406463563E+02  0.91615897121E+02 0.  0.
        -13    1    3    3    0    0  0.29542296131E+02  0.19929987038E+02 -0.41050883430E+02  0.54361076833E+02  0.00000000000E+00 0.  1.
         13    1    3    3    0    0 -0.29542296131E+02 -0.19929987038E+02  0.18266947045E+02  0.40045386730E+02  0.00000000000E+00 0. -1.
<mgrwt>
<rscale>  0 0.91615897E+02</rscale>
<asrwt>0</asrwt>
<pdfrwt beam="1">  1        3 0.55094252E-02 0.91615897E+02</pdfrwt>
<pdfrwt beam="2">  1       -3 0.90146461E-02 0.91615897E+02</pdfrwt>
<totfact> 0.34635613E+04</totfact>
</mgrwt>
</event>
<event>
 5    1  0.1270889E+001  0.9198970E+02  0.7546771E-02  0.1298104E+00
         -2   -1    0    0    0  501 -0.00000000000E+00  0.00000000000E+00  0.91895226450E+01  0.91895226450E+01  0.00000000000E+00 0.  1.
          2   -1    0    0  501    0  0.00000000000E+00 -0.00000000000E+00 -0.23021066106E+03  0.23021066106E+03  0.00000000000E+00 0. -1.
         23    2    1    2    0    0  0.00000000000E+00  0.00000000000E+00 -0.22102113841E+03  0.23940018370E+03  0.91989696878E+02 0.  0.
        -11    1    3    3    0    0 -0.84972748097E+01  0.42654424050E+02 -0.71567141814E+02  0.83746399073E+02  0.00000000000E+00 0. -1.
         11    1    3    3    0    0  0.84972748097E+01 -0.42654424050E+02 -0.14945399660E+03  0.15565378463E+03  0.00000000000E+00 0.  1.
<mgrwt>
<rscale>  0 0.91989697E+02</rscale>
<asrwt>0</asrwt>
<pdfrwt beam="2">  1        2 0.35417022E-01 0.91989697E+02</pdfrwt>
<pdfrwt beam="1">  1       -2 0.14137728E-02 0.91989697E+02</pdfrwt>
<totfact> 0.15899250E+05</totfact>
</mgrwt>
</event>
<event>
 5    1  0.1270889E+001  0.9060035E+02  0.7546771E-02  0.1301404E+00
         -2   -1    0    0    0  501 -0.00000000000E+00  0.00000000000E+00  0.44437319114E+02  0.44437319114E+02  0.00000000000E+00 0.  1.
          2   -1    0    0  501    0  0.00000000000E+00 -0.00000000000E+00 -0.46179789917E+02  0.46179789917E+02  0.00000000000E+00 0. -1.
         23    2    1    2    0    0  0.00000000000E+00  0.00000000000E+00 -0.17424708029E+01  0.90617109031E+02  0.90600354550E+02 0.  0.
        -13    1    3    3    0    0 -0.19180555601E+02  0.19165442139E+02 -0.37167037935E+02  0.46006484265E+02  0.00000000000E+00 0. -1.
         13    1    3    3    0    0  0.19180555601E+02 -0.19165442139E+02  0.35424567132E+02  0.44610624766E+02  0.00000000000E+00 0.  1.
<mgrwt>
<rscale>  0 0.90600355E+02</rscale>
<asrwt>0</asrwt>
<pdfrwt beam="2">  1        2 0.71045830E-02 0.90600355E+02</pdfrwt>
<pdfrwt beam="1">  1       -2 0.68365107E-02 0.90600355E+02</pdfrwt>
<totfact> 0.10082032E+05</totfact>
</mgrwt>
</event>
<event>
 4    1  0.1270889E+001  0.1379025E+03  0.7546771E-02  0.1216180E+00
          3   -1    0    0  501    0  0.00000000000E+00  0.00000000000E+00  0.13387552663E+02  0.13387552663E+02  0.00000000000E+00 0. -1.
         -3   -1    0    0    0  501 -0.00000000000E+00 -0.00000000000E+00 -0.35512644557E+03  0.35512644557E+03  0.00000000000E+00 0.  1.
        -11    1    1    2    0    0 -0.86158963280E+00  0.67154622520E+02 -0.21259367794E+03  0.22294967495E+03  0.00000000000E+00 0.  1.
         11    1    1    2    0    0  0.86158963280E+00 -0.67154622520E+02 -0.12914521497E+03  0.14556432328E+03  0.00000000000E+00 0. -1.
<mgrwt>
<rscale>  0 0.13790249E+03</rscale>
<asrwt>0</asrwt>
<pdfrwt beam="1">  1        3 0.20596235E-02 0.13790249E+03</pdfrwt>
<pdfrwt beam="2">  1       -3 0.54634839E-01 0.13790249E+03</pdfrwt>
<totfact> 0.69369475E+03</totfact>
</mgrwt>
</event>
<event>
 5    1  0.1270889E+001  0.9091132E+02  0.7546771E-02  0.1300660E+00
         -4   -1    0    0    0  501 -0.00000000000E+00  0.00000000000E+00  0.58113038438E+02  0.58113038438E+02  0.00000000000E+00 0.  1.
          4   -1    0    0  501    0  0.00000000000E+00 -0.00000000000E+00 -0.35555135408E+02  0.35555135408E+02  0.00000000000E+00 0. -1.
         23    2    1    2    0    0  0.00000000000E+00  0.00000000000E+00  0.22557903030E+02  0.93668173846E+02  0.90911318341E+02 0.  0.
        -11    1    3    3    0    0  0.41479554265E+02 -0.13957691864E+02 -0.13754474972E+01  0.43786555471E+02  0.00000000000E+00 0. -1.
         11    1    3    3    0    0 -0.41479554265E+02  0.13957691864E+02  0.23933350527E+02  0.49881618375E+02  0.00000000000E+00 0.  1.
<mgrwt>
<rscale>  0 0.90911318E+02</rscale>
<asrwt>0</asrwt>
<pdfrwt beam="2">  1        4 0.54700208E-02 0.90911318E+02</pdfrwt>
<pdfrwt beam="1">  1       -4 0.89404675E-02 0.90911318E+02</pdfrwt>
<totfact> 0.27070142E+04</totfact>
</mgrwt>
</event>
<event>
 5    1  0.1270889E+001  0.8928340E+02  0.7546771E-02  0.1304596E+00
         -3   -1    0    0    0  501 -0.00000000000E+00  0.00000000000E+00  0.22096571066E+02  0.22096571066E+02  0.00000000000E+00 0.  1.
          3   -1    0    0  501    0  0.00000000000E+00 -0.00000000000E+00 -0.90189631051E+02  0.90189631051E+02  0.00000000000E+00 0. -1.
         23    2    1    2    0    0  0.00000000000E+00  0.00000000000E+00 -0.68093059985E+02  0.11228620212E+03  0.89283404772E+02 0.  0.
        -11    1    3    3    0    0  0.29989649083E+02  0.26248643054E+02 -0.87523289321E+01  0.40804087737E+02  0.00000000000E+00 0.  1.
         11    1    3    3    0    0 -0.29989649083E+02 -0.26248643054E+02 -0.59340731053E+02  0.71482114380E+02  0.00000000000E+00 0. -1.
<mgrwt>
<rscale>  0 0.89283405E+02</rscale>
<asrwt>0</asrwt>
<pdfrwt beam="2">  1        3 0.13875328E-01 0.89283405E+02</pdfrwt>
<pdfrwt beam="1">  1       -3 0.33994724E-02 0.89283405E+02</pdfrwt>
<totfact> 0.35759638E+04</totfact>
</mgrwt>
</event>
<event>
 5    1  0.1270889E+001  0.8999012E+02  0.7546771E-02  0.1302876E+00
         -1   -1    0    0    0  501 -0.00000000000E+00  0.00000000000E+00  0.68526797599E+02  0.68526797599E+02  0.00000000000E+00 0.  1.
          1   -1    0    0  501    0  0.00000000000E+00 -0.00000000000E+00 -0.29543998600E+02  0.29543998600E+02  0.00000000000E+00 0. -1.
         23    2    1    2    0    0  0.00000000000E+00  0.00000000000E+00  0.38982798999E+02  0.98070796199E+02  0.89990124177E+02 0.  0.
        -11    1    3    3    0    0 -0.11661768900E+02  0.80809159739E+01 -0.27042437158E+02  0.30538360537E+02  0.00000000000E+00 0. -1.
         11    1    3    3    0    0  0.11661768900E+02 -0.80809159739E+01  0.66025236157E+02  0.67532435662E+02  0.00000000000E+00 0.  1.
<mgrwt>
<rscale>  0 0.89990124E+02</rscale>
<asrwt>0</asrwt>
<pdfrwt beam="2">  1        1 0.45452306E-02 0.89990124E+02</pdfrwt>
<pdfrwt beam="1">  1       -1 0.10542584E-01 0.89990124E+02</pdfrwt>
<totfact> 0.89780976E+04</totfact>
</mgrwt>
</event>
<event>
 5    1  0.1270889E+001  0.1258770E+03  0.7546771E-02  0.1233705E+00
         -1   -1    0    0    0  501 -0.00000000000E+00  0.00000000000E+00  0.14900867199E+02  0.14900867199E+02  0.00000000000E+00 0.  1.
          1   -1    0    0  501    0  0.00000000000E+00 -0.00000000000E+00 -0.26584070081E+03  0.26584070081E+03  0.00000000000E+00 0. -1.
         23    2    1    2    0    0  0.00000000000E+00  0.00000000000E+00 -0.25093983361E+03  0.28074156801E+03  0.12587703490E+03 0.  0.
        -13    1    3    3    0    0 -0.12583837564E+02 -0.56200591439E+02 -0.68854181596E+02  0.89765014172E+02  0.00000000000E+00 0. -1.
         13    1    3    3    0    0  0.12583837564E+02  0.56200591439E+02 -0.18208565201E+03  0.19097655384E+03  0.00000000000E+00 0.  1.
<mgrwt>
<rscale>  0 0.12587703E+03</rscale>
<asrwt>0</asrwt>
<pdfrwt beam="2">  1        1 0.40898567E-01 0.12587703E+03</pdfrwt>
<pdfrwt beam="1">  1       -1 0.22924413E-02 0.12587703E+03</pdfrwt>
<totfact> 0.52112232E+04</totfact>
</mgrwt>
</event>
<event>
 5    1  0.1270889E+001  0.9168486E+02  0.7546771E-02  0.1298822E+00
          2   -1    0    0  501    0  0.00000000000E+00  0.00000000000E+00  0.78804201205E+02  0.78804201205E+02  0.00000000000E+00 0. -1.
         -2   -1    0    0    0  501 -0.00000000000E+00 -0.00000000000E+00 -0.26667721746E+02  0.26667721746E+02  0.00000000000E+00 0.  1.
         23    2    1    2    0    0  0.00000000000E+00  0.00000000000E+00  0.52136479458E+02  0.10547192295E+03  0.91684862658E+02 0.  0.
        -11    1    3    3    0    0 -0.28209936229E+02  0.34146198176E+02  0.12468246704E+02  0.46013264694E+02  0.00000000000E+00 0.  1.
         11    1    3    3    0    0  0.28209936229E+02 -0.34146198176E+02  0.39668232754E+02  0.59458658257E+02  0.00000000000E+00 0. -1.
<mgrwt>
<rscale>  0 0.91684863E+02</rscale>
<asrwt>0</asrwt>
<pdfrwt beam="1">  1        2 0.12123723E-01 0.91684863E+02</pdfrwt>
<pdfrwt beam="2">  1       -2 0.41027265E-02 0.91684863E+02</pdfrwt>
<totfact> 0.11260681E+05</totfact>
</mgrwt>
</event>
<event>
 4    1  0.1270889E+001  0.5451735E+02  0.7546771E-02  0.1422395E+00
          2   -1    0    0  501    0  0.00000000000E+00  0.00000000000E+00  0.99468149636E+01  0.99468149636E+01  0.00000000000E+00 0.  1.
         -2   -1    0    0    0  501 -0.00000000000E+00 -0.00000000000E+00 -0.74700819450E+02  0.74700819450E+02  0.00000000000E+00 0. -1.
        -11    1    1    2    0    0 -0.11103350031E+02  0.22676248134E+02 -0.16426078908E+02  0.30121631424E+02  0.00000000000E+00 0.  1.
         11    1    1    2    0    0  0.11103350031E+02 -0.22676248134E+02 -0.48327925579E+02  0.54526002990E+02  0.00000000000E+00 0. -1.
<mgrwt>
<rscale>  0 0.54517345E+02</rscale>
<asrwt>0</asrwt>
<pdfrwt beam="1">  1        2 0.15302792E-02 0.54517345E+02</pdfrwt>
<pdfrwt beam="2">  1       -2 0.11492434E-01 0.54517345E+02</pdfrwt>
<totfact> 0.30592071E+05</totfact>
</mgrwt>
</event>
<event>
 5    1  0.1270889E+001  0.9054987E+02  0.7546771E-02  0.1301526E+00
         -1   -1    0    0    0  501 -0.00000000000E+00  0.00000000000E+00  0.31422319719E+03  0.31422319719E+03  0.00000000000E+00 0.  1.
          1   -1    0    0  501    0  0.00000000000E+00 -0.00000000000E+00 -0.65234506421E+01  0.65234506421E+01  0.00000000000E+00 0. -1.
         23    2    1    2    0    0  0.00000000000E+00  0.00000000000E+00  0.30769974655E+03  0.32074664784E+03  0.90549865102E+02 0.  0.
        -13    1    3    3    0    0  0.41864691953E+02 -0.78861292040E+01  0.20814815910E+03  0.21246293701E+03  0.00000000000E+00 0.  1.
         13    1    3    3    0    0 -0.41864691953E+02  0.78861292040E+01  0.99551587456E+02  0.10828371083E+03  0.00000000000E+00 0. -1.
<mgrwt>
<rscale>  0 0.90549865E+02</rscale>
<asrwt>0</asrwt>
<pdfrwt beam="2">  1        1 0.10036080E-02 0.90549865E+02</pdfrwt>
<pdfrwt beam="1">  1       -1 0.48342019E-01 0.90549865E+02</pdfrwt>
<totfact> 0.60553131E+04</totfact>
</mgrwt>
</event>
<event>
 5    1  0.1270889E+001  0.7573190E+02  0.7546771E-02  0.1341619E+00
          2   -1    0    0  501    0  0.00000000000E+00  0.00000000000E+00  0.22741129974E+03  0.22741129974E+03  0.00000000000E+00 0. -1.
         -2   -1    0    0    0  501 -0.00000000000E+00 -0.00000000000E+00 -0.63050087444E+01  0.63050087444E+01  0.00000000000E+00 0.  1.
         23    2    1    2    0    0  0.00000000000E+00  0.00000000000E+00  0.22110629100E+03  0.23371630849E+03  0.75731901691E+02 0.  0.
        -11    1    3    3    0    0  0.25941928264E+02  0.23067011552E+02  0.63876483478E+02  0.72699902376E+02  0.00000000000E+00 0. -1.
         11    1    3    3    0    0 -0.25941928264E+02 -0.23067011552E+02  0.15722980752E+03  0.16101640611E+03  0.00000000000E+00 0.  1.
<mgrwt>
<rscale>  0 0.75731902E+02</rscale>
<asrwt>0</asrwt>
<pdfrwt beam="1">  1        2 0.34986348E-01 0.75731902E+02</pdfrwt>
<pdfrwt beam="2">  1       -2 0.97000152E-03 0.75731902E+02</pdfrwt>
<totfact> 0.26530533E+05</totfact>
</mgrwt>
</event>
<event>
 5    1  0.1270889E+001  0.9146053E+02  0.7546771E-02  0.1299353E+00
         -3   -1    0    0    0  501 -0.00000000000E+00  0.00000000000E+00  0.62217115296E+02  0.62217115296E+02  0.00000000000E+00 0.  1.
          3   -1    0    0  501    0  0.00000000000E+00 -0.00000000000E+00 -0.33612244974E+02  0.33612244974E+02  0.00000000000E+00 0. -1.
         23    2    1    2    0    0  0.00000000000E+00  0.00000000000E+00  0.28604870322E+02  0.95829360270E+02  0.91460525275E+02 0.  0.
        -11    1    3    3    0    0  0.10548339674E+02 -0.21931388271E+02  0.54868814195E+02  0.60023662272E+02  0.00000000000E+00 0.  1.
         11    1    3    3    0    0 -0.10548339674E+02  0.21931388271E+02 -0.26263943873E+02  0.35805697998E+02  0.00000000000E+00 0. -1.
<mgrwt>
<rscale>  0 0.91460525E+02</rscale>
<asrwt>0</asrwt>
<pdfrwt beam="2">  1        3 0.51711146E-02 0.91460525E+02</pdfrwt>
<pdfrwt beam="1">  1       -3 0.95718639E-02 0.91460525E+02</pdfrwt>
<totfact> 0.34689201E+04</totfact>
</mgrwt>
</event>
<event>
 5    1  0.1270889E+001  0.8544697E+02  0.7546771E-02  0.1314268E+00
         -1   -1    0    0    0  501 -0.00000000000E+00  0.00000000000E+00  0.15331695250E+03  0.15331695250E+03  0.00000000000E+00 0.  1.
          1   -1    0    0  501    0  0.00000000000E+00 -0.00000000000E+00 -0.11905376076E+02  0.11905376076E+02  0.00000000000E+00 0. -1.
         23    2    1    2    0    0  0.00000000000E+00  0.00000000000E+00  0.14141157642E+03  0.16522232858E+03  0.85446965502E+02 0.  0.
        -13    1    3    3    0    0 -0.86523681731E+01 -0.36737045753E+02  0.31993588007E+02  0.49477911023E+02  0.00000000000E+00 0.  1.
         13    1    3    3    0    0  0.86523681731E+01  0.36737045753E+02  0.10941798842E+03  0.11574441755E+03  0.00000000000E+00 0. -1.
<mgrwt>
<rscale>  0 0.85446966E+02</rscale>
<asrwt>0</asrwt>
<pdfrwt beam="2">  1        1 0.18315964E-02 0.85446966E+02</pdfrwt>
<pdfrwt beam="1">  1       -1 0.23587222E-01 0.85446966E+02</pdfrwt>
<totfact> 0.88023929E+04</totfact>
</mgrwt>
</event>
<event>
 4    1  0.1270889E+001  0.1742162E+03  0.7546771E-02  0.1173521E+00
         -1   -1    0    0    0  501 -0.00000000000E+00  0.00000000000E+00  0.91456712044E+02  0.91456712044E+02  0.00000000000E+00 0. -1.
          1   -1    0    0  501    0  0.00000000000E+00 -0.00000000000E+00 -0.82966213165E+02  0.82966213165E+02  0.00000000000E+00 0.  1.
        -13    1    1    2    0    0 -0.46024212632E+02 -0.12302245416E+02  0.77258092556E+02  0.90765556551E+02  0.00000000000E+00 0. -1.
         13    1    1    2    0    0  0.46024212632E+02  0.12302245416E+02 -0.68767593677E+02  0.83657368658E+02  0.00000000000E+00 0.  1.
<mgrwt>
<rscale>  0 0.17421615E+03</rscale>
<asrwt>0</asrwt>
<pdfrwt beam="2">  1        1 0.12764033E-01 0.17421615E+03</pdfrwt>
<pdfrwt beam="1">  1       -1 0.14070263E-01 0.17421615E+03</pdfrwt>
<totfact> 0.15651737E+04</totfact>
</mgrwt>
</event>
<event>
 5    1  0.1270889E+001  0.8831985E+02  0.7546771E-02  0.1306972E+00
          1   -1    0    0  501    0  0.00000000000E+00  0.00000000000E+00  0.19247651295E+03  0.19247651295E+03  0.00000000000E+00 0. -1.
         -1   -1    0    0    0  501 -0.00000000000E+00 -0.00000000000E+00 -0.10131620985E+02  0.10131620985E+02  0.00000000000E+00 0.  1.
         23    2    1    2    0    0  0.00000000000E+00  0.00000000000E+00  0.18234489197E+03  0.20260813394E+03  0.88319852306E+02 0.  0.
        -13    1    3    3    0    0  0.13770388999E+02 -0.41939135330E+02  0.88284893251E+02  0.98705304121E+02  0.00000000000E+00 0. -1.
         13    1    3    3    0    0 -0.13770388999E+02  0.41939135330E+02  0.94059998719E+02  0.10390282982E+03  0.00000000000E+00 0.  1.
<mgrwt>
<rscale>  0 0.88319852E+02</rscale>
<asrwt>0</asrwt>
<pdfrwt beam="1">  1        1 0.29611769E-01 0.88319852E+02</pdfrwt>
<pdfrwt beam="2">  1       -1 0.15587111E-02 0.88319852E+02</pdfrwt>
<totfact> 0.12798727E+05</totfact>
</mgrwt>
</event>
<event>
 5    1  0.1270889E+001  0.9453470E+02  0.7546771E-02  0.1292228E+00
         -3   -1    0    0    0  501 -0.00000000000E+00  0.00000000000E+00  0.44655595802E+02  0.44655595802E+02  0.00000000000E+00 0.  1.
          3   -1    0    0  501    0  0.00000000000E+00 -0.00000000000E+00 -0.50031852814E+02  0.50031852814E+02  0.00000000000E+00 0. -1.
         23    2    1    2    0    0  0.00000000000E+00  0.00000000000E+00 -0.53762570124E+01  0.94687448616E+02  0.94534696202E+02 0.  0.
        -13    1    3    3    0    0  0.23186920611E+02  0.20638508911E+02  0.33015238314E+02  0.45316523459E+02  0.00000000000E+00 0.  1.
         13    1    3    3    0    0 -0.23186920611E+02 -0.20638508911E+02 -0.38391495326E+02  0.49370925157E+02  0.00000000000E+00 0. -1.
<mgrwt>
<rscale>  0 0.94534696E+02</rscale>
<asrwt>0</asrwt>
<pdfrwt beam="2">  1        3 0.76972081E-02 0.94534696E+02</pdfrwt>
<pdfrwt beam="1">  1       -3 0.68700916E-02 0.94534696E+02</pdfrwt>
<totfact> 0.31769015E+04</totfact>
</mgrwt>
</event>
<event>
 5    1  0.1270889E+001  0.9135255E+02  0.7546771E-02  0.1299609E+00
          1   -1    0    0  501    0  0.00000000000E+00  0.00000000000E+00  0.19118553906E+02  0.19118553906E+02  0.00000000000E+00 0. -1.
         -1   -1    0    0    0  501 -0.00000000000E+00 -0.00000000000E+00 -0.10912552873E+03  0.10912552873E+03  0.00000000000E+00 0.  1.
         23    2    1    2    0    0  0.00000000000E+00  0.00000000000E+00 -0.90006974828E+02  0.12824408264E+03  0.91352554504E+02 0.  0.
        -13    1    3    3    0    0 -0.14686485596E+02  0.95926248602E+01 -0.10420831562E+03  0.10567442621E+03  0.00000000000E+00 0.  1.
         13    1    3    3    0    0  0.14686485596E+02 -0.95926248602E+01  0.14201340793E+02  0.22569656426E+02  0.00000000000E+00 0. -1.
<mgrwt>
<rscale>  0 0.91352555E+02</rscale>
<asrwt>0</asrwt>
<pdfrwt beam="1">  1        1 0.29413160E-02 0.91352555E+02</pdfrwt>
<pdfrwt beam="2">  1       -1 0.16788543E-01 0.91352555E+02</pdfrwt>
<totfact> 0.79634587E+04</totfact>
</mgrwt>
</event>
<event>
 5    1  0.1270889E+001  0.9128120E+02  0.7546771E-02  0.1299778E+00
          2   -1    0    0  501    0  0.00000000000E+00  0.00000000000E+00  0.98362027338E+02  0.98362027338E+02  0.00000000000E+00 0. -1.
         -2   -1    0    0    0  501 -0.00000000000E+00 -0.00000000000E+00 -0.21177527604E+02  0.21177527604E+02  0.00000000000E+00 0.  1.
         23    2    1    2    0    0  0.00000000000E+00  0.00000000000E+00  0.77184499734E+02  0.11953955494E+03  0.91281203960E+02 0.  0.
        -13    1    3    3    0    0  0.12637246702E+02  0.39741755690E+02  0.62879738111E+02  0.75451763495E+02  0.00000000000E+00 0. -1.
         13    1    3    3    0    0 -0.12637246702E+02 -0.39741755690E+02  0.14304761623E+02  0.44087791447E+02  0.00000000000E+00 0.  1.
<mgrwt>
<rscale>  0 0.91281204E+02</rscale>
<asrwt>0</asrwt>
<pdfrwt beam="1">  1        2 0.15132619E-01 0.91281204E+02</pdfrwt>
<pdfrwt beam="2">  1       -2 0.32580812E-02 0.91281204E+02</pdfrwt>
<totfact> 0.12167774E+05</totfact>
</mgrwt>
</event>
<event>
 5    1  0.1270889E+001  0.9222665E+02  0.7546771E-02  0.1297547E+00
          1   -1    0    0  501    0  0.00000000000E+00  0.00000000000E+00  0.71874158922E+02  0.71874158922E+02  0.00000000000E+00 0. -1.
         -1   -1    0    0    0  501 -0.00000000000E+00 -0.00000000000E+00 -0.29585578662E+02  0.29585578662E+02  0.00000000000E+00 0.  1.
         23    2    1    2    0    0  0.00000000000E+00  0.00000000000E+00  0.42288580260E+02  0.10145973758E+03  0.92226646530E+02 0.  0.
        -13    1    3    3    0    0 -0.28171167382E+01 -0.31478625846E+02 -0.15797213772E+02  0.35332591114E+02  0.00000000000E+00 0.  1.
         13    1    3    3    0    0  0.28171167382E+01  0.31478625846E+02  0.58085794033E+02  0.66127146470E+02  0.00000000000E+00 0. -1.
<mgrwt>
<rscale>  0 0.92226647E+02</rscale>
<asrwt>0</asrwt>
<pdfrwt beam="1">  1        1 0.11057563E-01 0.92226647E+02</pdfrwt>
<pdfrwt beam="2">  1       -1 0.45516275E-02 0.92226647E+02</pdfrwt>
<totfact> 0.95989368E+04</totfact>
</mgrwt>
</event>
<event>
 5    1  0.1270889E+001  0.8461849E+02  0.7546771E-02  0.1316433E+00
          3   -1    0    0  501    0  0.00000000000E+00  0.00000000000E+00  0.11115392905E+03  0.11115392905E+03  0.00000000000E+00 0. -1.
         -3   -1    0    0    0  501 -0.00000000000E+00 -0.00000000000E+00 -0.16104442650E+02  0.16104442650E+02  0.00000000000E+00 0.  1.
         23    2    1    2    0    0  0.00000000000E+00  0.00000000000E+00  0.95049486403E+02  0.12725837170E+03  0.84618486769E+02 0.  0.
        -11    1    3    3    0    0  0.32899220193E+02  0.21708085824E+02  0.70651318961E+02  0.80902463191E+02  0.00000000000E+00 0. -1.
         11    1    3    3    0    0 -0.32899220193E+02 -0.21708085824E+02  0.24398167442E+02  0.46355908512E+02  0.00000000000E+00 0.  1.
<mgrwt>
<rscale>  0 0.84618487E+02</rscale>
<asrwt>0</asrwt>
<pdfrwt beam="1">  1        3 0.17100604E-01 0.84618487E+02</pdfrwt>
<pdfrwt beam="2">  1       -3 0.24776066E-02 0.84618487E+02</pdfrwt>
<totfact> 0.40065533E+04</totfact>
</mgrwt>
</event>
<event>
 5    1  0.1270889E+001  0.9173989E+02  0.7546771E-02  0.1298692E+00
         -4   -1    0    0    0  501 -0.00000000000E+00  0.00000000000E+00  0.11831329441E+02  0.11831329441E+02  0.00000000000E+00 0.  1.
          4   -1    0    0  501    0  0.00000000000E+00 -0.00000000000E+00 -0.17783731862E+03  0.17783731862E+03  0.00000000000E+00 0. -1.
         23    2    1    2    0    0  0.00000000000E+00  0.00000000000E+00 -0.16600598918E+03  0.18966864806E+03  0.91739891071E+02 0.  0.
        -13    1    3    3    0    0 -0.22848225705E+02  0.15716920908E+02 -0.74631385178E+01  0.28718660436E+02  0.00000000000E+00 0.  1.
         13    1    3    3    0    0  0.22848225705E+02 -0.15716920908E+02 -0.15854285066E+03  0.16094998762E+03  0.00000000000E+00 0. -1.
<mgrwt>
<rscale>  0 0.91739891E+02</rscale>
<asrwt>0</asrwt>
<pdfrwt beam="2">  1        4 0.27359588E-01 0.91739891E+02</pdfrwt>
<pdfrwt beam="1">  1       -4 0.18202045E-02 0.91739891E+02</pdfrwt>
<totfact> 0.21467784E+04</totfact>
</mgrwt>
</event>
<event>
 5    1  0.1270889E+001  0.8980079E+02  0.7546771E-02  0.1303335E+00
          1   -1    0    0  501    0  0.00000000000E+00  0.00000000000E+00  0.25840821177E+03  0.25840821177E+03  0.00000000000E+00 0. -1.
         -1   -1    0    0    0  501 -0.00000000000E+00 -0.00000000000E+00 -0.78017850217E+01  0.78017850217E+01  0.00000000000E+00 0.  1.
         23    2    1    2    0    0  0.00000000000E+00  0.00000000000E+00  0.25060642675E+03  0.26620999679E+03  0.89800786547E+02 0.  0.
        -11    1    3    3    0    0 -0.30488222533E+01  0.42100058705E+02  0.79923384793E+02  0.90385052398E+02  0.00000000000E+00 0.  1.
         11    1    3    3    0    0  0.30488222533E+01 -0.42100058705E+02  0.17068304196E+03  0.17582494440E+03  0.00000000000E+00 0. -1.
<mgrwt>
<rscale>  0 0.89800787E+02</rscale>
<asrwt>0</asrwt>
<pdfrwt beam="1">  1        1 0.39755103E-01 0.89800787E+02</pdfrwt>
<pdfrwt beam="2">  1       -1 0.12002748E-02 0.89800787E+02</pdfrwt>
<totfact> 0.12962099E+05</totfact>
</mgrwt>
</event>
<event>
 5    1  0.1270889E+001  0.9150640E+02  0.7546771E-02  0.1299244E+00
          3   -1    0    0  501    0  0.00000000000E+00  0.00000000000E+00  0.37624974577E+02  0.37624974577E+02  0.00000000000E+00 0. -1.
         -3   -1    0    0    0  501 -0.00000000000E+00 -0.00000000000E+00 -0.55637393414E+02  0.55637393414E+02  0.00000000000E+00 0.  1.
         23    2    1    2    0    0  0.00000000000E+00  0.00000000000E+00 -0.18012418837E+02  0.93262367991E+02  0.91506404426E+02 0.  0.
        -13    1    3    3    0    0 -0.21810930221E+02  0.38354936262E+02  0.33313606643E+01  0.44248342078E+02  0.00000000000E+00 0. -1.
         13    1    3    3    0    0  0.21810930221E+02 -0.38354936262E+02 -0.21343779501E+02  0.49014025913E+02  0.00000000000E+00 0.  1.
<mgrwt>
<rscale>  0 0.91506404E+02</rscale>
<asrwt>0</asrwt>
<pdfrwt beam="1">  1        3 0.57884576E-02 0.91506404E+02</pdfrwt>
<pdfrwt beam="2">  1       -3 0.85595990E-02 0.91506404E+02</pdfrwt>
<totfact> 0.34834994E+04</totfact>
</mgrwt>
</event>
<event>
 5    1  0.1270889E+001  0.9079576E+02  0.7546771E-02  0.1300936E+00
         -3   -1    0    0    0  501 -0.00000000000E+00  0.00000000000E+00  0.60812688457E+02  0.60812688457E+02  0.00000000000E+00 0.  1.
          3   -1    0    0  501    0  0.00000000000E+00 -0.00000000000E+00 -0.33890422397E+02  0.33890422397E+02  0.00000000000E+00 0. -1.
         23    2    1    2    0    0  0.00000000000E+00  0.00000000000E+00  0.26922266060E+02  0.94703110854E+02  0.90795764194E+02 0.  0.
        -11    1    3    3    0    0  0.12068855704E+02  0.81029662780E+01 -0.31397260045E+02  0.34599180320E+02  0.00000000000E+00 0. -1.
         11    1    3    3    0    0 -0.12068855704E+02 -0.81029662780E+01  0.58319526105E+02  0.60103930534E+02  0.00000000000E+00 0.  1.
<mgrwt>
<rscale>  0 0.90795764E+02</rscale>
<asrwt>0</asrwt>
<pdfrwt beam="2">  1        3 0.52139112E-02 0.90795764E+02</pdfrwt>
<pdfrwt beam="1">  1       -3 0.93557982E-02 0.90795764E+02</pdfrwt>
<totfact> 0.35471846E+04</totfact>
</mgrwt>
</event>
<event>
 5    1  0.1270889E+001  0.8983962E+02  0.7546771E-02  0.1303241E+00
         -4   -1    0    0    0  501 -0.00000000000E+00  0.00000000000E+00  0.68807100273E+02  0.68807100273E+02  0.00000000000E+00 0.  1.
          4   -1    0    0  501    0  0.00000000000E+00 -0.00000000000E+00 -0.29325308654E+02  0.29325308654E+02  0.00000000000E+00 0. -1.
         23    2    1    2    0    0  0.00000000000E+00  0.00000000000E+00  0.39481791619E+02  0.98132408927E+02  0.89839622731E+02 0.  0.
        -13    1    3    3    0    0  0.44296086286E+01 -0.39617012427E+02 -0.28743439290E+01  0.39967373684E+02  0.00000000000E+00 0. -1.
         13    1    3    3    0    0 -0.44296086286E+01  0.39617012427E+02  0.42356135548E+02  0.58165035243E+02  0.00000000000E+00 0.  1.
<mgrwt>
<rscale>  0 0.89839623E+02</rscale>
<asrwt>0</asrwt>
<pdfrwt beam="2">  1        4 0.45115860E-02 0.89839623E+02</pdfrwt>
<pdfrwt beam="1">  1       -4 0.10585708E-01 0.89839623E+02</pdfrwt>
<totfact> 0.27657524E+04</totfact>
</mgrwt>
</event>
<event>
 5    1  0.1270889E+001  0.8809520E+02  0.7546771E-02  0.1307531E+00
          2   -1    0    0  501    0  0.00000000000E+00  0.00000000000E+00  0.17734162077E+03  0.17734162077E+03  0.00000000000E+00 0.  1.
         -2   -1    0    0    0  501 -0.00000000000E+00 -0.00000000000E+00 -0.10940416697E+02  0.10940416697E+02  0.00000000000E+00 0. -1.
         23    2    1    2    0    0  0.00000000000E+00  0.00000000000E+00  0.16640120407E+03  0.18828203747E+03  0.88095203704E+02 0.  0.
        -13    1    3    3    0    0  0.49775088400E+01  0.36525499902E+02  0.31670845453E+02  0.48599693302E+02  0.00000000000E+00 0. -1.
         13    1    3    3    0    0 -0.49775088400E+01 -0.36525499902E+02  0.13473035862E+03  0.13968234417E+03  0.00000000000E+00 0.  1.
<mgrwt>
<rscale>  0 0.88095204E+02</rscale>
<asrwt>0</asrwt>
<pdfrwt beam="1">  1        2 0.27283324E-01 0.88095204E+02</pdfrwt>
<pdfrwt beam="2">  1       -2 0.16831412E-02 0.88095204E+02</pdfrwt>
<totfact> 0.16253822E+05</totfact>
</mgrwt>
</event>
<event>
 5    1  0.1270889E+001  0.9199395E+02  0.7546771E-02  0.1298094E+00
         -4   -1    0    0    0  501 -0.00000000000E+00  0.00000000000E+00  0.20990622075E+02  0.20990622075E+02  0.00000000000E+00 0.  1.
          4   -1    0    0  501    0  0.00000000000E+00 -0.00000000000E+00 -0.10079365950E+03  0.10079365950E+03  0.00000000000E+00 0. -1.
         23    2    1    2    0    0  0.00000000000E+00  0.00000000000E+00 -0.79803037429E+02  0.12178428158E+03  0.91993947936E+02 0.  0.
        -11    1    3    3    0    0  0.17185477379E+02 -0.24755972421E+02  0.61007926598E+01  0.30747658030E+02  0.00000000000E+00 0.  1.
         11    1    3    3    0    0 -0.17185477379E+02  0.24755972421E+02 -0.85903830089E+02  0.91036623549E+02  0.00000000000E+00 0. -1.
<mgrwt>
<rscale>  0 0.91993948E+02</rscale>
<asrwt>0</asrwt>
<pdfrwt beam="2">  1        4 0.15506716E-01 0.91993948E+02</pdfrwt>
<pdfrwt beam="1">  1       -4 0.32293266E-02 0.91993948E+02</pdfrwt>
<totfact> 0.24571067E+04</totfact>
</mgrwt>
</event>
<event>
 5    1  0.1270889E+001  0.9191350E+02  0.7546771E-02  0.1298283E+00
         -2   -1    0    0    0  501 -0.00000000000E+00  0.00000000000E+00  0.30885280827E+02  0.30885280827E+02  0.00000000000E+00 0.  1.
          2   -1    0    0  501    0  0.00000000000E+00 -0.00000000000E+00 -0.68382826603E+02  0.68382826603E+02  0.00000000000E+00 0. -1.
         23    2    1    2    0    0  0.00000000000E+00  0.00000000000E+00 -0.37497545777E+02  0.99268107430E+02  0.91913498538E+02 0.  0.
        -11    1    3    3    0    0 -0.16265936068E+02 -0.13937631538E+01  0.27647961807E+02  0.32108146068E+02  0.00000000000E+00 0.  1.
         11    1    3    3    0    0  0.16265936068E+02  0.13937631538E+01 -0.65145507583E+02  0.67159961362E+02  0.00000000000E+00 0. -1.
<mgrwt>
<rscale>  0 0.91913499E+02</rscale>
<asrwt>0</asrwt>
<pdfrwt beam="2">  1        2 0.10520435E-01 0.91913499E+02</pdfrwt>
<pdfrwt beam="1">  1       -2 0.47515816E-02 0.91913499E+02</pdfrwt>
<totfact> 0.10745387E+05</totfact>
</mgrwt>
</event>
<event>
 5    1  0.1270889E+001  0.8528585E+02  0.7546771E-02  0.1314687E+00
         -3   -1    0    0    0  501 -0.00000000000E+00  0.00000000000E+00  0.15664925728E+03  0.15664925728E+03  0.00000000000E+00 0.  1.
          3   -1    0    0  501    0  0.00000000000E+00 -0.00000000000E+00 -0.11608219017E+02  0.11608219017E+02  0.00000000000E+00 0. -1.
         23    2    1    2    0    0  0.00000000000E+00  0.00000000000E+00  0.14504103826E+03  0.16825747629E+03  0.85285846126E+02 0.  0.
        -11    1    3    3    0    0  0.19734757685E+02 -0.37551411828E+02  0.63955080943E+02  0.76745172940E+02  0.00000000000E+00 0. -1.
         11    1    3    3    0    0 -0.19734757685E+02  0.37551411828E+02  0.81085957316E+02  0.91512303354E+02  0.00000000000E+00 0.  1.
<mgrwt>
<rscale>  0 0.85285846E+02</rscale>
<asrwt>0</asrwt>
<pdfrwt beam="2">  1        3 0.17858800E-02 0.85285846E+02</pdfrwt>
<pdfrwt beam="1">  1       -3 0.24099884E-01 0.85285846E+02</pdfrwt>
<totfact> 0.36175231E+04</totfact>
</mgrwt>
</event>
<event>
 5    1  0.1270889E+001  0.9026182E+02  0.7546771E-02  0.1302219E+00
         -2   -1    0    0    0  501 -0.00000000000E+00  0.00000000000E+00  0.15324009827E+03  0.15324009827E+03  0.00000000000E+00 0.  1.
          2   -1    0    0  501    0  0.00000000000E+00 -0.00000000000E+00 -0.13291554735E+02  0.13291554735E+02  0.00000000000E+00 0. -1.
         23    2    1    2    0    0  0.00000000000E+00  0.00000000000E+00  0.13994854353E+03  0.16653165300E+03  0.90261822577E+02 0.  0.
        -13    1    3    3    0    0 -0.20328379998E+02 -0.28702838533E+02  0.17799914714E+02  0.39419956076E+02  0.00000000000E+00 0. -1.
         13    1    3    3    0    0  0.20328379998E+02  0.28702838533E+02  0.12214862882E+03  0.12711169693E+03  0.00000000000E+00 0.  1.
<mgrwt>
<rscale>  0 0.90261823E+02</rscale>
<asrwt>0</asrwt>
<pdfrwt beam="2">  1        2 0.20448547E-02 0.90261823E+02</pdfrwt>
<pdfrwt beam="1">  1       -2 0.23575399E-01 0.90261823E+02</pdfrwt>
<totfact> 0.71104651E+04</totfact>
</mgrwt>
</event>
<event>
 5    1  0.1270889E+001  0.9195460E+02  0.7546771E-02  0.1298186E+00
         -1   -1    0    0    0  501 -0.00000000000E+00  0.00000000000E+00  0.47138143745E+02  0.47138143745E+02  0.00000000000E+00 0.  1.
          1   -1    0    0  501    0  0.00000000000E+00 -0.00000000000E+00 -0.44845040709E+02  0.44845040709E+02  0.00000000000E+00 0. -1.
         23    2    1    2    0    0  0.00000000000E+00  0.00000000000E+00  0.22931030353E+01  0.91983184454E+02  0.91954596953E+02 0.  0.
        -13    1    3    3    0    0 -0.40678266441E+02  0.19619747002E+02  0.97664308606E+01  0.46206482281E+02  0.00000000000E+00 0.  1.
         13    1    3    3    0    0  0.40678266441E+02 -0.19619747002E+02 -0.74733278254E+01  0.45776702173E+02  0.00000000000E+00 0. -1.
<mgrwt>
<rscale>  0 0.91954597E+02</rscale>
<asrwt>0</asrwt>
<pdfrwt beam="2">  1        1 0.68992370E-02 0.91954597E+02</pdfrwt>
<pdfrwt beam="1">  1       -1 0.72520221E-02 0.91954597E+02</pdfrwt>
<totfact> 0.90065325E+04</totfact>
</mgrwt>
</event>
<event>
 5    1  0.1270889E+001  0.9253691E+02  0.7546771E-02  0.1296822E+00
          2   -1    0    0  501    0  0.00000000000E+00  0.00000000000E+00  0.44684802028E+03  0.44684802028E+03  0.00000000000E+00 0. -1.
         -2   -1    0    0    0  501 -0.00000000000E+00 -0.00000000000E+00 -0.47908235339E+01  0.47908235339E+01  0.00000000000E+00 0.  1.
         23    2    1    2    0    0  0.00000000000E+00  0.00000000000E+00  0.44205719675E+03  0.45163884381E+03  0.92536911806E+02 0.  0.
        -11    1    3    3    0    0  0.30162046729E+02  0.33509959412E+02  0.27177395409E+03  0.27548820041E+03  0.00000000000E+00 0.  1.
         11    1    3    3    0    0 -0.30162046729E+02 -0.33509959412E+02  0.17028324266E+03  0.17615064341E+03  0.00000000000E+00 0. -1.
<mgrwt>
<rscale>  0 0.92536912E+02</rscale>
<asrwt>0</asrwt>
<pdfrwt beam="1">  1        2 0.68745816E-01 0.92536912E+02</pdfrwt>
<pdfrwt beam="2">  1       -2 0.73705013E-03 0.92536912E+02</pdfrwt>
<totfact> 0.19954137E+05</totfact>
</mgrwt>
</event>
<event>
 5    1  0.1270889E+001  0.8933545E+02  0.7546771E-02  0.1304469E+00
         -1   -1    0    0    0  501 -0.00000000000E+00  0.00000000000E+00  0.28545764014E+02  0.28545764014E+02  0.00000000000E+00 0.  1.
          1   -1    0    0  501    0  0.00000000000E+00 -0.00000000000E+00 -0.69894975395E+02  0.69894975395E+02  0.00000000000E+00 0. -1.
         23    2    1    2    0    0  0.00000000000E+00  0.00000000000E+00 -0.41349211381E+02  0.98440739410E+02  0.89335445897E+02 0.  0.
        -11    1    3    3    0    0 -0.87313376857E+01 -0.21389319114E+02  0.21450931490E+02  0.31525889230E+02  0.00000000000E+00 0.  1.
         11    1    3    3    0    0  0.87313376857E+01  0.21389319114E+02 -0.62800142871E+02  0.66914850180E+02  0.00000000000E+00 0. -1.
<mgrwt>
<rscale>  0 0.89335446E+02</rscale>
<asrwt>0</asrwt>
<pdfrwt beam="2">  1        1 0.10753073E-01 0.89335446E+02</pdfrwt>
<pdfrwt beam="1">  1       -1 0.43916560E-02 0.89335446E+02</pdfrwt>
<totfact> 0.10434065E+05</totfact>
</mgrwt>
</event>
<event>
 5    1  0.1270889E+001  0.9134197E+02  0.7546771E-02  0.1299634E+00
          2   -1    0    0  501    0  0.00000000000E+00  0.00000000000E+00  0.14457991549E+03  0.14457991549E+03  0.00000000000E+00 0. -1.
         -2   -1    0    0    0  501 -0.00000000000E+00 -0.00000000000E+00 -0.14426892448E+02  0.14426892448E+02  0.00000000000E+00 0.  1.
         23    2    1    2    0    0  0.00000000000E+00  0.00000000000E+00  0.13015302304E+03  0.15900680794E+03  0.91341970438E+02 0.  0.
        -13    1    3    3    0    0 -0.30058921340E+02  0.34353318246E+02  0.67628805302E+02  0.81592551947E+02  0.00000000000E+00 0. -1.
         13    1    3    3    0    0  0.30058921340E+02 -0.34353318246E+02  0.62524217743E+02  0.77414255993E+02  0.00000000000E+00 0.  1.
<mgrwt>
<rscale>  0 0.91341970E+02</rscale>
<asrwt>0</asrwt>
<pdfrwt beam="1">  1        2 0.22243063E-01 0.91341970E+02</pdfrwt>
<pdfrwt beam="2">  1       -2 0.22195220E-02 0.91341970E+02</pdfrwt>
<totfact> 0.13740005E+05</totfact>
</mgrwt>
</event>
<event>
 5    1  0.1270889E+001  0.9193894E+02  0.7546771E-02  0.1298223E+00
          3   -1    0    0  501    0  0.00000000000E+00  0.00000000000E+00  0.10975506686E+03  0.10975506686E+03  0.00000000000E+00 0. -1.
         -3   -1    0    0    0  501 -0.00000000000E+00 -0.00000000000E+00 -0.19253711325E+02  0.19253711325E+02  0.00000000000E+00 0.  1.
         23    2    1    2    0    0  0.00000000000E+00  0.00000000000E+00  0.90501355530E+02  0.12900877818E+03  0.91938944386E+02 0.  0.
        -13    1    3    3    0    0  0.23252100650E+01  0.43378968476E+02  0.24153574118E+02  0.49704493264E+02  0.00000000000E+00 0.  1.
         13    1    3    3    0    0 -0.23252100650E+01 -0.43378968476E+02  0.66347781411E+02  0.79304284917E+02  0.00000000000E+00 0. -1.
<mgrwt>
<rscale>  0 0.91938944E+02</rscale>
<asrwt>0</asrwt>
<pdfrwt beam="1">  1        3 0.16885395E-01 0.91938944E+02</pdfrwt>
<pdfrwt beam="2">  1       -3 0.29621095E-02 0.91938944E+02</pdfrwt>
<totfact> 0.31910702E+04</totfact>
</mgrwt>
</event>
<event>
 5    1  0.1270889E+001  0.9015795E+02  0.7546771E-02  0.1302470E+00
          2   -1    0    0  501    0  0.00000000000E+00  0.00000000000E+00  0.39117713169E+02  0.39117713169E+02  0.00000000000E+00 0.  1.
         -2   -1    0    0    0  501 -0.00000000000E+00 -0.00000000000E+00 -0.51948696270E+02  0.51948696270E+02  0.00000000000E+00 0. -1.
         23    2    1    2    0    0  0.00000000000E+00  0.00000000000E+00 -0.12830983101E+02  0.91066409440E+02  0.90157954729E+02 0.  0.
        -13    1    3    3    0    0 -0.56064686818E+01  0.40806866880E+02 -0.24916199060E+02  0.48139898745E+02  0.00000000000E+00 0.  1.
         13    1    3    3    0    0  0.56064686818E+01 -0.40806866880E+02  0.12085215959E+02  0.42926510694E+02  0.00000000000E+00 0. -1.
<mgrwt>
<rscale>  0 0.90157955E+02</rscale>
<asrwt>0</asrwt>
<pdfrwt beam="1">  1        2 0.60181098E-02 0.90157955E+02</pdfrwt>
<pdfrwt beam="2">  1       -2 0.79921071E-02 0.90157955E+02</pdfrwt>
<totfact> 0.97976389E+04</totfact>
</mgrwt>
</event>
<event>
 5    1  0.1270889E+001  0.9027692E+02  0.7546771E-02  0.1302182E+00
          3   -1    0    0  501    0  0.00000000000E+00  0.00000000000E+00  0.75161305596E+01  0.75161305596E+01  0.00000000000E+00 0. -1.
         -3   -1    0    0    0  501 -0.00000000000E+00 -0.00000000000E+00 -0.27108102980E+03  0.27108102980E+03  0.00000000000E+00 0.  1.
         23    2    1    2    0    0  0.00000000000E+00  0.00000000000E+00 -0.26356489924E+03  0.27859716036E+03  0.90276916478E+02 0.  0.
        -11    1    3    3    0    0  0.28896961791E+02  0.31213255076E+02 -0.17839872144E+03  0.18339957881E+03  0.00000000000E+00 0.  1.
         11    1    3    3    0    0 -0.28896961791E+02 -0.31213255076E+02 -0.85166177794E+02  0.95197581551E+02  0.00000000000E+00 0. -1.
<mgrwt>
<rscale>  0 0.90276916E+02</rscale>
<asrwt>0</asrwt>
<pdfrwt beam="1">  1        3 0.11563279E-02 0.90276916E+02</pdfrwt>
<pdfrwt beam="2">  1       -3 0.41704770E-01 0.90276916E+02</pdfrwt>
<totfact> 0.25548069E+04</totfact>
</mgrwt>
</event>
<event>
 5    1  0.1270889E+001  0.9110498E+02  0.7546771E-02  0.1300198E+00
         -3   -1    0    0    0  501 -0.00000000000E+00  0.00000000000E+00  0.27370709945E+02  0.27370709945E+02  0.00000000000E+00 0.  1.
          3   -1    0    0  501    0  0.00000000000E+00 -0.00000000000E+00 -0.75812043750E+02  0.75812043750E+02  0.00000000000E+00 0. -1.
         23    2    1    2    0    0  0.00000000000E+00  0.00000000000E+00 -0.48441333805E+02  0.10318275370E+03  0.91104982516E+02 0.  0.
        -13    1    3    3    0    0  0.28612070163E+02 -0.34974826977E+02 -0.30740608695E+02  0.54652301910E+02  0.00000000000E+00 0. -1.
         13    1    3    3    0    0 -0.28612070163E+02  0.34974826977E+02 -0.17700725110E+02  0.48530451786E+02  0.00000000000E+00 0.  1.
<mgrwt>
<rscale>  0 0.91104983E+02</rscale>
<asrwt>0</asrwt>
<pdfrwt beam="2">  1        3 0.11663391E-01 0.91104983E+02</pdfrwt>
<pdfrwt beam="1">  1       -3 0.42108786E-02 0.91104983E+02</pdfrwt>
<totfact> 0.34510942E+04</totfact>
</mgrwt>
</event>
<event>
 5    1  0.1270889E+001  0.9348592E+02  0.7546771E-02  0.1294623E+00
          1   -1    0    0  501    0  0.00000000000E+00  0.00000000000E+00  0.91940245132E+02  0.91940245132E+02  0.00000000000E+00 0. -1.
         -1   -1    0    0    0  501 -0.00000000000E+00 -0.00000000000E+00 -0.23764395478E+02  0.23764395478E+02  0.00000000000E+00 0.  1.
         23    2    1    2    0    0  0.00000000000E+00  0.00000000000E+00  0.68175849654E+02  0.11570464061E+03  0.93485920772E+02 0.  0.
        -13    1    3    3    0    0  0.29185903707E+02  0.30169398404E+02  0.59539855120E+02  0.72849186152E+02  0.00000000000E+00 0. -1.
         13    1    3    3    0    0 -0.29185903707E+02 -0.30169398404E+02  0.86359945341E+01  0.42855454458E+02  0.00000000000E+00 0.  1.
<mgrwt>
<rscale>  0 0.93485921E+02</rscale>
<asrwt>0</asrwt>
<pdfrwt beam="1">  1        1 0.14144653E-01 0.93485921E+02</pdfrwt>
<pdfrwt beam="2">  1       -1 0.36560609E-02 0.93485921E+02</pdfrwt>
<totfact> 0.96194457E+04</totfact>
</mgrwt>
</event>
<event>
 5    1  0.1270889E+001  0.8907060E+02  0.7546771E-02  0.1305118E+00
          3   -1    0    0  501    0  0.00000000000E+00  0.00000000000E+00  0.92901426361E+01  0.92901426361E+01  0.00000000000E+00 0. -1.
         -3   -1    0    0    0  501 -0.00000000000E+00 -0.00000000000E+00 -0.21349435599E+03  0.21349435599E+03  0.00000000000E+00 0.  1.
         23    2    1    2    0    0  0.00000000000E+00  0.00000000000E+00 -0.20420421336E+03  0.22278449863E+03  0.89070601641E+02 0.  0.
        -13    1    3    3    0    0 -0.35256507678E+02 -0.17370304815E+02 -0.49717127310E+02  0.63376190883E+02  0.00000000000E+00 0. -1.
         13    1    3    3    0    0  0.35256507678E+02  0.17370304815E+02 -0.15448708605E+03  0.15940830774E+03  0.00000000000E+00 0.  1.
<mgrwt>
<rscale>  0 0.89070602E+02</rscale>
<asrwt>0</asrwt>
<pdfrwt beam="1">  1        3 0.14292528E-02 0.89070602E+02</pdfrwt>
<pdfrwt beam="2">  1       -3 0.32845283E-01 0.89070602E+02</pdfrwt>
<totfact> 0.29132731E+04</totfact>
</mgrwt>
</event>
<event>
 5    1  0.1270889E+001  0.8939446E+02  0.7546771E-02  0.1304325E+00
         -1   -1    0    0    0  501 -0.00000000000E+00  0.00000000000E+00  0.12798356924E+03  0.12798356924E+03  0.00000000000E+00 0.  1.
          1   -1    0    0  501    0  0.00000000000E+00 -0.00000000000E+00 -0.15610148768E+02  0.15610148768E+02  0.00000000000E+00 0. -1.
         23    2    1    2    0    0  0.00000000000E+00  0.00000000000E+00  0.11237342047E+03  0.14359371801E+03  0.89394464162E+02 0.  0.
        -13    1    3    3    0    0  0.26839637739E+02  0.29540401637E+02  0.23867026772E+02  0.46504155188E+02  0.00000000000E+00 0. -1.
         13    1    3    3    0    0 -0.26839637739E+02 -0.29540401637E+02  0.88506393698E+02  0.97089562819E+02  0.00000000000E+00 0.  1.
<mgrwt>
<rscale>  0 0.89394464E+02</rscale>
<asrwt>0</asrwt>
<pdfrwt beam="2">  1        1 0.24015614E-02 0.89394464E+02</pdfrwt>
<pdfrwt beam="1">  1       -1 0.19689779E-01 0.89394464E+02</pdfrwt>
<totfact> 0.81540118E+04</totfact>
</mgrwt>
</event>
<event>
 5    1  0.1270889E+001  0.9627156E+02  0.7546771E-02  0.1288338E+00
          4   -1    0    0  501    0  0.00000000000E+00  0.00000000000E+00  0.22503943505E+03  0.22503943505E+03  0.00000000000E+00 0. -1.
         -4   -1    0    0    0  501 -0.00000000000E+00 -0.00000000000E+00 -0.10296210806E+02  0.10296210806E+02  0.00000000000E+00 0.  1.
         23    2    1    2    0    0  0.00000000000E+00  0.00000000000E+00  0.21474322425E+03  0.23533564586E+03  0.96271563048E+02 0.  0.
        -13    1    3    3    0    0  0.24823793937E+02  0.33586008497E+02  0.48866201838E+02  0.64281773422E+02  0.00000000000E+00 0.  1.
         13    1    3    3    0    0 -0.24823793937E+02 -0.33586008497E+02  0.16587702241E+03  0.17105387244E+03  0.00000000000E+00 0. -1.
<mgrwt>
<rscale>  0 0.96271563E+02</rscale>
<asrwt>0</asrwt>
<pdfrwt beam="1">  1        4 0.34621448E-01 0.96271563E+02</pdfrwt>
<pdfrwt beam="2">  1       -4 0.15840326E-02 0.96271563E+02</pdfrwt>
<totfact> 0.17280976E+04</totfact>
</mgrwt>
</event>
<event>
 5    1  0.1270889E+001  0.8838590E+02  0.7546771E-02  0.1306808E+00
         -2   -1    0    0    0  501 -0.00000000000E+00  0.00000000000E+00  0.10692985575E+02  0.10692985575E+02  0.00000000000E+00 0.  1.
          2   -1    0    0  501    0  0.00000000000E+00 -0.00000000000E+00 -0.18264466987E+03  0.18264466987E+03  0.00000000000E+00 0. -1.
         23    2    1    2    0    0  0.00000000000E+00  0.00000000000E+00 -0.17195168430E+03  0.19333765545E+03  0.88385899787E+02 0.  0.
        -11    1    3    3    0    0  0.26864240140E+02 -0.16252744825E+02 -0.17948015052E+02  0.36165872821E+02  0.00000000000E+00 0.  1.
         11    1    3    3    0    0 -0.26864240140E+02  0.16252744825E+02 -0.15400366925E+03  0.15717178263E+03  0.00000000000E+00 0. -1.
<mgrwt>
<rscale>  0 0.88385900E+02</rscale>
<asrwt>0</asrwt>
<pdfrwt beam="2">  1        2 0.28099180E-01 0.88385900E+02</pdfrwt>
<pdfrwt beam="1">  1       -2 0.16450747E-02 0.88385900E+02</pdfrwt>
<totfact> 0.16278902E+05</totfact>
</mgrwt>
</event>
<event>
 5    1  0.1270889E+001  0.9216732E+02  0.7546771E-02  0.1297687E+00
          4   -1    0    0  501    0  0.00000000000E+00  0.00000000000E+00  0.13270893153E+02  0.13270893153E+02  0.00000000000E+00 0. -1.
         -4   -1    0    0    0  501 -0.00000000000E+00 -0.00000000000E+00 -0.16002718387E+03  0.16002718387E+03  0.00000000000E+00 0.  1.
         23    2    1    2    0    0  0.00000000000E+00  0.00000000000E+00 -0.14675629071E+03  0.17329807702E+03  0.92167318689E+02 0.  0.
        -11    1    3    3    0    0  0.13393790427E+02 -0.42197284377E+02 -0.49321220828E+02  0.66276596584E+02  0.00000000000E+00 0. -1.
         11    1    3    3    0    0 -0.13393790427E+02  0.42197284377E+02 -0.97435069886E+02  0.10702148043E+03  0.00000000000E+00 0.  1.
<mgrwt>
<rscale>  0 0.92167319E+02</rscale>
<asrwt>0</asrwt>
<pdfrwt beam="1">  1        4 0.20416758E-02 0.92167319E+02</pdfrwt>
<pdfrwt beam="2">  1       -4 0.24619568E-01 0.92167319E+02</pdfrwt>
<totfact> 0.21908931E+04</totfact>
</mgrwt>
</event>
<event>
 5    1  0.1270889E+001  0.9078017E+02  0.7546771E-02  0.1300973E+00
         -2   -1    0    0    0  501 -0.00000000000E+00  0.00000000000E+00  0.24640461497E+03  0.24640461497E+03  0.00000000000E+00 0.  1.
          2   -1    0    0  501    0  0.00000000000E+00 -0.00000000000E+00 -0.83612871992E+01  0.83612871992E+01  0.00000000000E+00 0. -1.
         23    2    1    2    0    0  0.00000000000E+00  0.00000000000E+00  0.23804332777E+03  0.25476590217E+03  0.90780168605E+02 0.  0.
        -13    1    3    3    0    0 -0.24548177804E+02  0.37888353151E+02  0.10582278223E+03  0.11505043058E+03  0.00000000000E+00 0.  1.
         13    1    3    3    0    0  0.24548177804E+02 -0.37888353151E+02  0.13222054555E+03  0.13971547160E+03  0.00000000000E+00 0. -1.
<mgrwt>
<rscale>  0 0.90780169E+02</rscale>
<asrwt>0</asrwt>
<pdfrwt beam="2">  1        2 0.12863521E-02 0.90780169E+02</pdfrwt>
<pdfrwt beam="1">  1       -2 0.37908397E-01 0.90780169E+02</pdfrwt>
<totfact> 0.57219034E+04</totfact>
</mgrwt>
</event>
<event>
 5    1  0.1270889E+001  0.8110546E+02  0.7546771E-02  0.1325943E+00
         -1   -1    0    0    0  501 -0.00000000000E+00  0.00000000000E+00  0.84134964207E+01  0.84134964207E+01  0.00000000000E+00 0.  1.
          1   -1    0    0  501    0  0.00000000000E+00 -0.00000000000E+00 -0.19546258888E+03  0.19546258888E+03  0.00000000000E+00 0. -1.
         23    2    1    2    0    0  0.00000000000E+00  0.00000000000E+00 -0.18704909246E+03  0.20387608530E+03  0.81105457077E+02 0.  0.
        -11    1    3    3    0    0  0.67465212959E+00  0.40527190457E+02 -0.96719507987E+02  0.10486930698E+03  0.00000000000E+00 0.  1.
         11    1    3    3    0    0 -0.67465212959E+00 -0.40527190457E+02 -0.90329584469E+02  0.99006778314E+02  0.00000000000E+00 0. -1.
<mgrwt>
<rscale>  0 0.81105457E+02</rscale>
<asrwt>0</asrwt>
<pdfrwt beam="2">  1        1 0.30071166E-01 0.81105457E+02</pdfrwt>
<pdfrwt beam="1">  1       -1 0.12943841E-02 0.81105457E+02</pdfrwt>
<totfact> 0.16102230E+05</totfact>
</mgrwt>
</event>
<event>
 5    1  0.1270889E+001  0.9091263E+02  0.7546771E-02  0.1300657E+00
         -1   -1    0    0    0  501 -0.00000000000E+00  0.00000000000E+00  0.98387430025E+01  0.98387430025E+01  0.00000000000E+00 0.  1.
          1   -1    0    0  501    0  0.00000000000E+00 -0.00000000000E+00 -0.21001427497E+03  0.21001427497E+03  0.00000000000E+00 0. -1.
         23    2    1    2    0    0  0.00000000000E+00  0.00000000000E+00 -0.20017553197E+03  0.21985301798E+03  0.90912627909E+02 0.  0.
        -11    1    3    3    0    0 -0.27264319694E+02 -0.16447324416E+02 -0.17853949746E+03  0.18135658180E+03  0.00000000000E+00 0. -1.
         11    1    3    3    0    0  0.27264319694E+02  0.16447324416E+02 -0.21636034509E+02  0.38496436174E+02  0.00000000000E+00 0.  1.
<mgrwt>
<rscale>  0 0.90912628E+02</rscale>
<asrwt>0</asrwt>
<pdfrwt beam="2">  1        1 0.32309890E-01 0.90912628E+02</pdfrwt>
<pdfrwt beam="1">  1       -1 0.15136527E-02 0.90912628E+02</pdfrwt>
<totfact> 0.12046879E+05</totfact>
</mgrwt>
</event>
<event>
 5    1  0.1270889E+001  0.9285059E+02  0.7546771E-02  0.1296092E+00
          1   -1    0    0  501    0  0.00000000000E+00  0.00000000000E+00  0.34732030821E+02  0.34732030821E+02  0.00000000000E+00 0.  1.
         -1   -1    0    0    0  501 -0.00000000000E+00 -0.00000000000E+00 -0.62055347496E+02  0.62055347496E+02  0.00000000000E+00 0. -1.
         23    2    1    2    0    0  0.00000000000E+00  0.00000000000E+00 -0.27323316675E+02  0.96787378318E+02  0.92850594869E+02 0.  0.
        -13    1    3    3    0    0 -0.34781301671E+02  0.21942241417E+02 -0.36118219545E+02  0.54733232020E+02  0.00000000000E+00 0. -1.
         13    1    3    3    0    0  0.34781301671E+02 -0.21942241417E+02  0.87949028696E+01  0.42054146297E+02  0.00000000000E+00 0.  1.
<mgrwt>
<rscale>  0 0.92850595E+02</rscale>
<asrwt>0</asrwt>
<pdfrwt beam="1">  1        1 0.53433894E-02 0.92850595E+02</pdfrwt>
<pdfrwt beam="2">  1       -1 0.95469765E-02 0.92850595E+02</pdfrwt>
<totfact> 0.84229655E+04</totfact>
</mgrwt>
</event>
<event>
 5    1  0.1270889E+001  0.9375170E+02  0.7546771E-02  0.1294013E+00
         -2   -1    0    0    0  501 -0.00000000000E+00  0.00000000000E+00  0.27686710465E+02  0.27686710465E+02  0.00000000000E+00 0.  1.
          2   -1    0    0  501    0  0.00000000000E+00 -0.00000000000E+00 -0.79364623489E+02  0.79364623489E+02  0.00000000000E+00 0. -1.
         23    2    1    2    0    0  0.00000000000E+00  0.00000000000E+00 -0.51677913025E+02  0.10705133395E+03  0.93751700821E+02 0.  0.
        -11    1    3    3    0    0  0.13724309176E+02  0.44211635288E+02 -0.17423207273E+02  0.49463051957E+02  0.00000000000E+00 0.  1.
         11    1    3    3    0    0 -0.13724309176E+02 -0.44211635288E+02 -0.34254705752E+02  0.57588281997E+02  0.00000000000E+00 0. -1.
<mgrwt>
<rscale>  0 0.93751701E+02</rscale>
<asrwt>0</asrwt>
<pdfrwt beam="2">  1        2 0.12209942E-01 0.93751701E+02</pdfrwt>
<pdfrwt beam="1">  1       -2 0.42594939E-02 0.93751701E+02</pdfrwt>
<totfact> 0.10603045E+05</totfact>
</mgrwt>
</event>
<event>
 5    1  0.1270889E+001  0.9683575E+02  0.7546771E-02  0.1287094E+00
         -3   -1    0    0    0  501 -0.00000000000E+00  0.00000000000E+00  0.14536886156E+03  0.14536886156E+03  0.00000000000E+00 0.  1.
          3   -1    0    0  501    0  0.00000000000E+00 -0.00000000000E+00 -0.16126497440E+02  0.16126497440E+02  0.00000000000E+00 0. -1.
         23    2    1    2    0    0  0.00000000000E+00  0.00000000000E+00  0.12924236412E+03  0.16149535900E+03  0.96835749057E+02 0.  0.
        -11    1    3    3    0    0  0.11959683509E+02  0.44563416740E+02  0.40147164302E+02  0.61161482509E+02  0.00000000000E+00 0. -1.
         11    1    3    3    0    0 -0.11959683509E+02 -0.44563416740E+02  0.89095199818E+02  0.10033387649E+03  0.00000000000E+00 0.  1.
<mgrwt>
<rscale>  0 0.96835749E+02</rscale>
<asrwt>0</asrwt>
<pdfrwt beam="2">  1        3 0.24809997E-02 0.96835749E+02</pdfrwt>
<pdfrwt beam="1">  1       -3 0.22364439E-01 0.96835749E+02</pdfrwt>
<totfact> 0.25995115E+04</totfact>
</mgrwt>
</event>
<event>
 5    1  0.1270889E+001  0.9318140E+02  0.7546771E-02  0.1295325E+00
         -1   -1    0    0    0  501 -0.00000000000E+00  0.00000000000E+00  0.28918274904E+02  0.28918274904E+02  0.00000000000E+00 0.  1.
          1   -1    0    0  501    0  0.00000000000E+00 -0.00000000000E+00 -0.75063034751E+02  0.75063034751E+02  0.00000000000E+00 0. -1.
         23    2    1    2    0    0  0.00000000000E+00  0.00000000000E+00 -0.46144759847E+02  0.10398130965E+03  0.93181403167E+02 0.  0.
        -11    1    3    3    0    0 -0.38126828989E+02 -0.17513402123E+00 -0.52952886159E+02  0.65251006990E+02  0.00000000000E+00 0.  1.
         11    1    3    3    0    0  0.38126828989E+02  0.17513402123E+00  0.68081263112E+01  0.38730302665E+02  0.00000000000E+00 0. -1.
<mgrwt>
<rscale>  0 0.93181403E+02</rscale>
<asrwt>0</asrwt>
<pdfrwt beam="2">  1        1 0.11548159E-01 0.93181403E+02</pdfrwt>
<pdfrwt beam="1">  1       -1 0.44489654E-02 0.93181403E+02</pdfrwt>
<totfact> 0.93935995E+04</totfact>
</mgrwt>
</event>
<event>
 5    1  0.1270889E+001  0.9122131E+02  0.7546771E-02  0.1299921E+00
          2   -1    0    0  501    0  0.00000000000E+00  0.00000000000E+00  0.14700130113E+03  0.14700130113E+03  0.00000000000E+00 0. -1.
         -2   -1    0    0    0  501 -0.00000000000E+00 -0.00000000000E+00 -0.14151791938E+02  0.14151791938E+02  0.00000000000E+00 0.  1.
         23    2    1    2    0    0  0.00000000000E+00  0.00000000000E+00  0.13284950919E+03  0.16115309307E+03  0.91221309532E+02 0.  0.
        -11    1    3    3    0    0  0.17722651408E+02  0.20567944657E+02  0.16788146140E+01  0.27202042917E+02  0.00000000000E+00 0.  1.
         11    1    3    3    0    0 -0.17722651408E+02 -0.20567944657E+02  0.13117069458E+03  0.13395105015E+03  0.00000000000E+00 0. -1.
<mgrwt>
<rscale>  0 0.91221310E+02</rscale>
<asrwt>0</asrwt>
<pdfrwt beam="1">  1        2 0.22615584E-01 0.91221310E+02</pdfrwt>
<pdfrwt beam="2">  1       -2 0.21771989E-02 0.91221310E+02</pdfrwt>
<totfact> 0.13867096E+05</totfact>
</mgrwt>
</event>
<event>
 5    1  0.1270889E+001  0.9133656E+02  0.7546771E-02  0.1299647E+00
          1   -1    0    0  501    0  0.00000000000E+00  0.00000000000E+00  0.47611445175E+02  0.47611445175E+02  0.00000000000E+00 0. -1.
         -1   -1    0    0    0  501 -0.00000000000E+00 -0.00000000000E+00 -0.43804424933E+02  0.43804424933E+02  0.00000000000E+00 0.  1.
         23    2    1    2    0    0  0.00000000000E+00  0.00000000000E+00  0.38070202420E+01  0.91415870108E+02  0.91336563896E+02 0.  0.
        -13    1    3    3    0    0 -0.43925323590E+02  0.72603000843E+01 -0.82761600859E+01  0.45284001983E+02  0.00000000000E+00 0.  1.
         13    1    3    3    0    0  0.43925323590E+02 -0.72603000843E+01  0.12083180328E+02  0.46131868125E+02  0.00000000000E+00 0. -1.
<mgrwt>
<rscale>  0 0.91336564E+02</rscale>
<asrwt>0</asrwt>
<pdfrwt beam="1">  1        1 0.73248377E-02 0.91336564E+02</pdfrwt>
<pdfrwt beam="2">  1       -1 0.67391423E-02 0.91336564E+02</pdfrwt>
<totfact> 0.92621717E+04</totfact>
</mgrwt>
</event>
<event>
 5    1  0.1270889E+001  0.9078536E+02  0.7546771E-02  0.1300961E+00
         -4   -1    0    0    0  501 -0.00000000000E+00  0.00000000000E+00  0.15771196352E+03  0.15771196352E+03  0.00000000000E+00 0.  1.
          4   -1    0    0  501    0  0.00000000000E+00 -0.00000000000E+00 -0.13064926260E+02  0.13064926260E+02  0.00000000000E+00 0. -1.
         23    2    1    2    0    0  0.00000000000E+00  0.00000000000E+00  0.14464703726E+03  0.17077688978E+03  0.90785355071E+02 0.  0.
        -11    1    3    3    0    0 -0.24387806118E+02 -0.29161176730E+02  0.25660108548E+02  0.45864806619E+02  0.00000000000E+00 0. -1.
         11    1    3    3    0    0  0.24387806118E+02  0.29161176730E+02  0.11898692872E+03  0.12491208317E+03  0.00000000000E+00 0.  1.
<mgrwt>
<rscale>  0 0.90785355E+02</rscale>
<asrwt>0</asrwt>
<pdfrwt beam="2">  1        4 0.20099888E-02 0.90785355E+02</pdfrwt>
<pdfrwt beam="1">  1       -4 0.24263378E-01 0.90785355E+02</pdfrwt>
<totfact> 0.22934751E+04</totfact>
</mgrwt>
</event>
<event>
 5    1  0.1270889E+001  0.8878190E+02  0.7546771E-02  0.1305829E+00
          2   -1    0    0  501    0  0.00000000000E+00  0.00000000000E+00  0.12443951688E+03  0.12443951688E+03  0.00000000000E+00 0. -1.
         -2   -1    0    0    0  501 -0.00000000000E+00 -0.00000000000E+00 -0.15835455101E+02  0.15835455101E+02  0.00000000000E+00 0.  1.
         23    2    1    2    0    0  0.00000000000E+00  0.00000000000E+00  0.10860406177E+03  0.14027497198E+03  0.88781898658E+02 0.  0.
        -11    1    3    3    0    0  0.23515320705E+02 -0.33320940237E+02  0.81999351635E+02  0.91581379301E+02  0.00000000000E+00 0. -1.
         11    1    3    3    0    0 -0.23515320705E+02  0.33320940237E+02  0.26604710139E+02  0.48693592676E+02  0.00000000000E+00 0.  1.
<mgrwt>
<rscale>  0 0.88781899E+02</rscale>
<asrwt>0</asrwt>
<pdfrwt beam="1">  1        2 0.19144540E-01 0.88781899E+02</pdfrwt>
<pdfrwt beam="2">  1       -2 0.24362239E-02 0.88781899E+02</pdfrwt>
<totfact> 0.14127281E+05</totfact>
</mgrwt>
</event>
<event>
 5    1  0.1270889E+001  0.8747968E+02  0.7546771E-02  0.1309072E+00
         -3   -1    0    0    0  501 -0.00000000000E+00  0.00000000000E+00  0.33023808533E+02  0.33023808533E+02  0.00000000000E+00 0.  1.
          3   -1    0    0  501    0  0.00000000000E+00 -0.00000000000E+00 -0.57933163489E+02  0.57933163489E+02  0.00000000000E+00 0. -1.
         23    2    1    2    0    0  0.00000000000E+00  0.00000000000E+00 -0.24909354955E+02  0.90956972022E+02  0.87479682185E+02 0.  0.
        -13    1    3    3    0    0 -0.39287039902E+02 -0.19147567219E+02 -0.10632039236E+02  0.44979340735E+02  0.00000000000E+00 0. -1.
         13    1    3    3    0    0  0.39287039902E+02  0.19147567219E+02 -0.14277315720E+02  0.45977631287E+02  0.00000000000E+00 0.  1.
<mgrwt>
<rscale>  0 0.87479682E+02</rscale>
<asrwt>0</asrwt>
<pdfrwt beam="2">  1        3 0.89127943E-02 0.87479682E+02</pdfrwt>
<pdfrwt beam="1">  1       -3 0.50805860E-02 0.87479682E+02</pdfrwt>
<totfact> 0.39559199E+04</totfact>
</mgrwt>
</event>
<event>
 5    1  0.1270889E+001  0.9234917E+02  0.7546771E-02  0.1297261E+00
          1   -1    0    0  501    0  0.00000000000E+00  0.00000000000E+00  0.37811283847E+02  0.37811283847E+02  0.00000000000E+00 0. -1.
         -1   -1    0    0    0  501 -0.00000000000E+00 -0.00000000000E+00 -0.56387729093E+02  0.56387729093E+02  0.00000000000E+00 0.  1.
         23    2    1    2    0    0  0.00000000000E+00  0.00000000000E+00 -0.18576445246E+02  0.94199012941E+02  0.92349172823E+02 0.  0.
        -13    1    3    3    0    0 -0.22223476894E+02 -0.15260032560E+02 -0.47527016640E+02  0.54640358982E+02  0.00000000000E+00 0.  1.
         13    1    3    3    0    0  0.22223476894E+02  0.15260032560E+02  0.28950571394E+02  0.39558653959E+02  0.00000000000E+00 0. -1.
<mgrwt>
<rscale>  0 0.92349173E+02</rscale>
<asrwt>0</asrwt>
<pdfrwt beam="1">  1        1 0.58171206E-02 0.92349173E+02</pdfrwt>
<pdfrwt beam="2">  1       -1 0.86750352E-02 0.92349173E+02</pdfrwt>
<totfact> 0.86686866E+04</totfact>
</mgrwt>
</event>
<event>
 5    1  0.1270889E+001  0.8933338E+02  0.7546771E-02  0.1304474E+00
          2   -1    0    0  501    0  0.00000000000E+00  0.00000000000E+00  0.23649088273E+02  0.23649088273E+02  0.00000000000E+00 0.  1.
         -2   -1    0    0    0  501 -0.00000000000E+00 -0.00000000000E+00 -0.84363214136E+02  0.84363214136E+02  0.00000000000E+00 0. -1.
         23    2    1    2    0    0  0.00000000000E+00  0.00000000000E+00 -0.60714125863E+02  0.10801230241E+03  0.89333377818E+02 0.  0.
        -13    1    3    3    0    0 -0.22148920551E+02  0.20258913386E+02  0.96365761814E+01  0.31525574597E+02  0.00000000000E+00 0.  1.
         13    1    3    3    0    0  0.22148920551E+02 -0.20258913386E+02 -0.70350702044E+02  0.76486727811E+02  0.00000000000E+00 0. -1.
<mgrwt>
<rscale>  0 0.89333378E+02</rscale>
<asrwt>0</asrwt>
<pdfrwt beam="1">  1        2 0.36383213E-02 0.89333378E+02</pdfrwt>
<pdfrwt beam="2">  1       -2 0.12978956E-01 0.89333378E+02</pdfrwt>
<totfact> 0.88156549E+04</totfact>
</mgrwt>
</event>
<event>
 5    1  0.1270889E+001  0.9086044E+02  0.7546771E-02  0.1300781E+00
         -1   -1    0    0    0  501 -0.00000000000E+00  0.00000000000E+00  0.14993412289E+02  0.14993412289E+02  0.00000000000E+00 0.  1.
          1   -1    0    0  501    0  0.00000000000E+00 -0.00000000000E+00 -0.13765409921E+03  0.13765409921E+03  0.00000000000E+00 0. -1.
         23    2    1    2    0    0  0.00000000000E+00  0.00000000000E+00 -0.12266068692E+03  0.15264751150E+03  0.90860435012E+02 0.  0.
        -13    1    3    3    0    0 -0.34896176256E+02  0.28157656096E+02 -0.49064119163E+02  0.66467168613E+02  0.00000000000E+00 0. -1.
         13    1    3    3    0    0  0.34896176256E+02 -0.28157656096E+02 -0.73596567755E+02  0.86180342883E+02  0.00000000000E+00 0.  1.
<mgrwt>
<rscale>  0 0.90860435E+02</rscale>
<asrwt>0</asrwt>
<pdfrwt beam="2">  1        1 0.21177554E-01 0.90860435E+02</pdfrwt>
<pdfrwt beam="1">  1       -1 0.23066788E-02 0.90860435E+02</pdfrwt>
<totfact> 0.11143436E+05</totfact>
</mgrwt>
</event>
<event>
 5    1  0.1270889E+001  0.9100464E+02  0.7546771E-02  0.1300437E+00
          3   -1    0    0  501    0  0.00000000000E+00  0.00000000000E+00  0.10490466406E+03  0.10490466406E+03  0.00000000000E+00 0. -1.
         -3   -1    0    0    0  501 -0.00000000000E+00 -0.00000000000E+00 -0.19736596825E+02  0.19736596825E+02  0.00000000000E+00 0.  1.
         23    2    1    2    0    0  0.00000000000E+00  0.00000000000E+00  0.85168067233E+02  0.12464126088E+03  0.91004638555E+02 0.  0.
        -13    1    3    3    0    0  0.36579641372E+01  0.45355046964E+02  0.42595725078E+02  0.62328619283E+02  0.00000000000E+00 0.  1.
         13    1    3    3    0    0 -0.36579641372E+01 -0.45355046964E+02  0.42572342155E+02  0.62312641601E+02  0.00000000000E+00 0. -1.
<mgrwt>
<rscale>  0 0.91004639E+02</rscale>
<asrwt>0</asrwt>
<pdfrwt beam="1">  1        3 0.16139179E-01 0.91004639E+02</pdfrwt>
<pdfrwt beam="2">  1       -3 0.30363996E-02 0.91004639E+02</pdfrwt>
<totfact> 0.33101452E+04</totfact>
</mgrwt>
</event>
<event>
 5    1  0.1270889E+001  0.9093687E+02  0.7546771E-02  0.1300599E+00
         -2   -1    0    0    0  501 -0.00000000000E+00  0.00000000000E+00  0.13729692058E+02  0.13729692058E+02  0.00000000000E+00 0. -1.
          2   -1    0    0  501    0  0.00000000000E+00 -0.00000000000E+00 -0.15057720265E+03  0.15057720265E+03  0.00000000000E+00 0.  1.
         23    2    1    2    0    0  0.00000000000E+00  0.00000000000E+00 -0.13684751059E+03  0.16430689471E+03  0.90936870924E+02 0.  0.
        -13    1    3    3    0    0 -0.41961594220E+02  0.14794474285E+02 -0.85346929994E+02  0.96248378263E+02  0.00000000000E+00 0.  1.
         13    1    3    3    0    0  0.41961594220E+02 -0.14794474285E+02 -0.51500580600E+02  0.68058516447E+02  0.00000000000E+00 0. -1.
<mgrwt>
<rscale>  0 0.90936871E+02</rscale>
<asrwt>0</asrwt>
<pdfrwt beam="2">  1        2 0.23165723E-01 0.90936871E+02</pdfrwt>
<pdfrwt beam="1">  1       -2 0.21122604E-02 0.90936871E+02</pdfrwt>
<totfact> 0.14099735E+05</totfact>
</mgrwt>
</event>
<event>
 5    1  0.1270889E+001  0.9152862E+02  0.7546771E-02  0.1299192E+00
          2   -1    0    0  501    0  0.00000000000E+00  0.00000000000E+00  0.44442276514E+03  0.44442276514E+03  0.00000000000E+00 0. -1.
         -2   -1    0    0    0  501 -0.00000000000E+00 -0.00000000000E+00 -0.47125671039E+01  0.47125671039E+01  0.00000000000E+00 0.  1.
         23    2    1    2    0    0  0.00000000000E+00  0.00000000000E+00  0.43971019804E+03  0.44913533225E+03  0.91528620731E+02 0.  0.
        -11    1    3    3    0    0  0.45153270568E+02  0.13647693941E+01  0.25581129495E+03  0.25976931894E+03  0.00000000000E+00 0.  1.
         11    1    3    3    0    0 -0.45153270568E+02 -0.13647693941E+01  0.18389890309E+03  0.18936601331E+03  0.00000000000E+00 0. -1.
<mgrwt>
<rscale>  0 0.91528621E+02</rscale>
<asrwt>0</asrwt>
<pdfrwt beam="1">  1        2 0.68372700E-01 0.91528621E+02</pdfrwt>
<pdfrwt beam="2">  1       -2 0.72501067E-03 0.91528621E+02</pdfrwt>
<totfact> 0.20504505E+05</totfact>
</mgrwt>
</event>
<event>
 5    1  0.1270889E+001  0.9191462E+02  0.7546771E-02  0.1298280E+00
          1   -1    0    0  501    0  0.00000000000E+00  0.00000000000E+00  0.15277258473E+03  0.15277258473E+03  0.00000000000E+00 0. -1.
         -1   -1    0    0    0  501 -0.00000000000E+00 -0.00000000000E+00 -0.13824955351E+02  0.13824955351E+02  0.00000000000E+00 0.  1.
         23    2    1    2    0    0  0.00000000000E+00  0.00000000000E+00  0.13894762938E+03  0.16659754008E+03  0.91914616090E+02 0.  0.
        -13    1    3    3    0    0  0.36088997317E+01  0.39345678464E+02  0.26928961052E+02  0.47815013484E+02  0.00000000000E+00 0.  1.
         13    1    3    3    0    0 -0.36088997317E+01 -0.39345678464E+02  0.11201866833E+03  0.11878252660E+03  0.00000000000E+00 0. -1.
<mgrwt>
<rscale>  0 0.91914616E+02</rscale>
<asrwt>0</asrwt>
<pdfrwt beam="1">  1        1 0.23503473E-01 0.91914616E+02</pdfrwt>
<pdfrwt beam="2">  1       -1 0.21269163E-02 0.91914616E+02</pdfrwt>
<totfact> 0.11008963E+05</totfact>
</mgrwt>
</event>
<event>
 5    1  0.1270889E+001  0.9057085E+02  0.7546771E-02  0.1301475E+00
          1   -1    0    0  501    0  0.00000000000E+00  0.00000000000E+00  0.16943514893E+03  0.16943514893E+03  0.00000000000E+00 0. -1.
         -1   -1    0    0    0  501 -0.00000000000E+00 -0.00000000000E+00 -0.12103567557E+02  0.12103567557E+02  0.00000000000E+00 0.  1.
         23    2    1    2    0    0  0.00000000000E+00  0.00000000000E+00  0.15733158137E+03  0.18153871649E+03  0.90570851197E+02 0.  0.
        -13    1    3    3    0    0 -0.34407869735E+02  0.14398669009E+02  0.27189937320E+02  0.46157511419E+02  0.00000000000E+00 0.  1.
         13    1    3    3    0    0  0.34407869735E+02 -0.14398669009E+02  0.13014164405E+03  0.13538120507E+03  0.00000000000E+00 0. -1.
<mgrwt>
<rscale>  0 0.90570851E+02</rscale>
<asrwt>0</asrwt>
<pdfrwt beam="1">  1        1 0.26066944E-01 0.90570851E+02</pdfrwt>
<pdfrwt beam="2">  1       -1 0.18620874E-02 0.90570851E+02</pdfrwt>
<totfact> 0.11677836E+05</totfact>
</mgrwt>
</event>
<event>
 5    1  0.1270889E+001  0.8404810E+02  0.7546771E-02  0.1317941E+00
          3   -1    0    0  501    0  0.00000000000E+00  0.00000000000E+00  0.41112423414E+03  0.41112423414E+03  0.00000000000E+00 0. -1.
         -3   -1    0    0    0  501 -0.00000000000E+00 -0.00000000000E+00 -0.42955886256E+01  0.42955886256E+01  0.00000000000E+00 0.  1.
         23    2    1    2    0    0  0.00000000000E+00  0.00000000000E+00  0.40682864552E+03  0.41541982277E+03  0.84048095372E+02 0.  0.
        -13    1    3    3    0    0  0.37929264798E+02  0.18073458027E+02  0.20767065607E+03  0.21187822070E+03  0.00000000000E+00 0. -1.
         13    1    3    3    0    0 -0.37929264798E+02 -0.18073458027E+02  0.19915798945E+03  0.20354160207E+03  0.00000000000E+00 0.  1.
<mgrwt>
<rscale>  0 0.84048095E+02</rscale>
<asrwt>0</asrwt>
<pdfrwt beam="1">  1        3 0.63249851E-01 0.84048095E+02</pdfrwt>
<pdfrwt beam="2">  1       -3 0.66086011E-03 0.84048095E+02</pdfrwt>
<totfact> 0.25028569E+04</totfact>
</mgrwt>
</event>
<event>
 5    1  0.1270889E+001  0.9059755E+02  0.7546771E-02  0.1301411E+00
         -2   -1    0    0    0  501 -0.00000000000E+00  0.00000000000E+00  0.52390601653E+02  0.52390601653E+02  0.00000000000E+00 0.  1.
          2   -1    0    0  501    0  0.00000000000E+00 -0.00000000000E+00 -0.39166931665E+02  0.39166931665E+02  0.00000000000E+00 0. -1.
         23    2    1    2    0    0  0.00000000000E+00  0.00000000000E+00  0.13223669988E+02  0.91557533318E+02  0.90597552171E+02 0.  0.
        -11    1    3    3    0    0  0.12342245443E+02  0.39053109530E+02  0.26168964556E+02  0.48603406182E+02  0.00000000000E+00 0.  1.
         11    1    3    3    0    0 -0.12342245443E+02 -0.39053109530E+02 -0.12945294569E+02  0.42954127136E+02  0.00000000000E+00 0. -1.
<mgrwt>
<rscale>  0 0.90597552E+02</rscale>
<asrwt>0</asrwt>
<pdfrwt beam="2">  1        2 0.60256818E-02 0.90597552E+02</pdfrwt>
<pdfrwt beam="1">  1       -2 0.80600925E-02 0.90597552E+02</pdfrwt>
<totfact> 0.96638584E+04</totfact>
</mgrwt>
</event>
<event>
 5    1  0.1270889E+001  0.8950912E+02  0.7546771E-02  0.1304045E+00
         -2   -1    0    0    0  501 -0.00000000000E+00  0.00000000000E+00  0.20569574617E+03  0.20569574617E+03  0.00000000000E+00 0.  1.
          2   -1    0    0  501    0  0.00000000000E+00 -0.00000000000E+00 -0.97375403069E+01  0.97375403069E+01  0.00000000000E+00 0. -1.
         23    2    1    2    0    0  0.00000000000E+00  0.00000000000E+00  0.19595820586E+03  0.21543328648E+03  0.89509119520E+02 0.  0.
        -13    1    3    3    0    0  0.21662174454E+02  0.38146229394E+02  0.76642851811E+02  0.88309180456E+02  0.00000000000E+00 0. -1.
         13    1    3    3    0    0 -0.21662174454E+02 -0.38146229394E+02  0.11931535405E+03  0.12712410602E+03  0.00000000000E+00 0.  1.
<mgrwt>
<rscale>  0 0.89509120E+02</rscale>
<asrwt>0</asrwt>
<pdfrwt beam="2">  1        2 0.14980833E-02 0.89509120E+02</pdfrwt>
<pdfrwt beam="1">  1       -2 0.31645496E-01 0.89509120E+02</pdfrwt>
<totfact> 0.64530118E+04</totfact>
</mgrwt>
</event>
<event>
 5    1  0.1270889E+001  0.9113449E+02  0.7546771E-02  0.1300127E+00
         -2   -1    0    0    0  501 -0.00000000000E+00  0.00000000000E+00  0.19564574756E+03  0.19564574756E+03  0.00000000000E+00 0.  1.
          2   -1    0    0  501    0  0.00000000000E+00 -0.00000000000E+00 -0.10612926228E+02  0.10612926228E+02  0.00000000000E+00 0. -1.
         23    2    1    2    0    0  0.00000000000E+00  0.00000000000E+00  0.18503282133E+03  0.20625867379E+03  0.91134491510E+02 0.  0.
        -11    1    3    3    0    0 -0.42710422639E+02  0.51385225593E+01  0.58508410382E+02  0.72621062382E+02  0.00000000000E+00 0. -1.
         11    1    3    3    0    0  0.42710422639E+02 -0.51385225593E+01  0.12652441095E+03  0.13363761140E+03  0.00000000000E+00 0.  1.
<mgrwt>
<rscale>  0 0.91134492E+02</rscale>
<asrwt>0</asrwt>
<pdfrwt beam="2">  1        2 0.16327580E-02 0.91134492E+02</pdfrwt>
<pdfrwt beam="1">  1       -2 0.30099343E-01 0.91134492E+02</pdfrwt>
<totfact> 0.62986648E+04</totfact>
</mgrwt>
</event>
<event>
 5    1  0.1270889E+001  0.1179561E+03  0.7546771E-02  0.1246507E+00
          3   -1    0    0  501    0  0.00000000000E+00  0.00000000000E+00  0.12387804672E+03  0.12387804672E+03  0.00000000000E+00 0. -1.
         -3   -1    0    0    0  501 -0.00000000000E+00 -0.00000000000E+00 -0.28079330880E+02  0.28079330880E+02  0.00000000000E+00 0.  1.
         23    2    1    2    0    0  0.00000000000E+00  0.00000000000E+00  0.95798715841E+02  0.15195737760E+03  0.11795613867E+03 0.  0.
        -11    1    3    3    0    0  0.53353146568E+02  0.97751076443E+00  0.15541398707E+02  0.55579212389E+02  0.00000000000E+00 0.  1.
         11    1    3    3    0    0 -0.53353146568E+02 -0.97751076443E+00  0.80257317134E+02  0.96378165212E+02  0.00000000000E+00 0. -1.
<mgrwt>
<rscale>  0 0.11795614E+03</rscale>
<asrwt>0</asrwt>
<pdfrwt beam="1">  1        3 0.19058161E-01 0.11795614E+03</pdfrwt>
<pdfrwt beam="2">  1       -3 0.43198971E-02 0.11795614E+03</pdfrwt>
<totfact> 0.15353478E+04</totfact>
</mgrwt>
</event>
<event>
 5    1  0.1270889E+001  0.9134152E+02  0.7546771E-02  0.1299635E+00
          4   -1    0    0  501    0  0.00000000000E+00  0.00000000000E+00  0.13174535251E+02  0.13174535251E+02  0.00000000000E+00 0. -1.
         -4   -1    0    0    0  501 -0.00000000000E+00 -0.00000000000E+00 -0.15832197807E+03  0.15832197807E+03  0.00000000000E+00 0.  1.
         23    2    1    2    0    0  0.00000000000E+00  0.00000000000E+00 -0.14514744282E+03  0.17149651332E+03  0.91341523552E+02 0.  0.
        -13    1    3    3    0    0  0.28904178911E+02  0.35237110246E+02 -0.67031670556E+02  0.81057697688E+02  0.00000000000E+00 0. -1.
         13    1    3    3    0    0 -0.28904178911E+02 -0.35237110246E+02 -0.78115772264E+02  0.90438815635E+02  0.00000000000E+00 0.  1.
<mgrwt>
<rscale>  0 0.91341524E+02</rscale>
<asrwt>0</asrwt>
<pdfrwt beam="1">  1        4 0.20268515E-02 0.91341524E+02</pdfrwt>
<pdfrwt beam="2">  1       -4 0.24357228E-01 0.91341524E+02</pdfrwt>
<totfact> 0.22528629E+04</totfact>
</mgrwt>
</event>
<event>
 5    1  0.1270889E+001  0.9307245E+02  0.7546771E-02  0.1295577E+00
          3   -1    0    0  501    0  0.00000000000E+00  0.00000000000E+00  0.29087804877E+02  0.29087804877E+02  0.00000000000E+00 0. -1.
         -3   -1    0    0    0  501 -0.00000000000E+00 -0.00000000000E+00 -0.74451133111E+02  0.74451133111E+02  0.00000000000E+00 0.  1.
         23    2    1    2    0    0  0.00000000000E+00  0.00000000000E+00 -0.45363328233E+02  0.10353893799E+03  0.93072445607E+02 0.  0.
        -13    1    3    3    0    0 -0.15791281980E+02 -0.27220869905E+02  0.15455921489E+02  0.35060317370E+02  0.00000000000E+00 0. -1.
         13    1    3    3    0    0  0.15791281980E+02  0.27220869905E+02 -0.60819249723E+02  0.68478620618E+02  0.00000000000E+00 0.  1.
<mgrwt>
<rscale>  0 0.93072446E+02</rscale>
<asrwt>0</asrwt>
<pdfrwt beam="1">  1        3 0.44750469E-02 0.93072446E+02</pdfrwt>
<pdfrwt beam="2">  1       -3 0.11454020E-01 0.93072446E+02</pdfrwt>
<totfact> 0.32533270E+04</totfact>
</mgrwt>
</event>
<event>
 5    1  0.1270889E+001  0.9102425E+02  0.7546771E-02  0.1300390E+00
         -2   -1    0    0    0  501 -0.00000000000E+00  0.00000000000E+00  0.48891703229E+01  0.48891703229E+01  0.00000000000E+00 0.  1.
          2   -1    0    0  501    0  0.00000000000E+00 -0.00000000000E+00 -0.42366155305E+03  0.42366155305E+03  0.00000000000E+00 0. -1.
         23    2    1    2    0    0  0.00000000000E+00  0.00000000000E+00 -0.41877238273E+03  0.42855072338E+03  0.91024249344E+02 0.  0.
        -11    1    3    3    0    0 -0.16037315792E+01  0.45471266149E+02 -0.20434722857E+03  0.20935137407E+03  0.00000000000E+00 0.  1.
         11    1    3    3    0    0  0.16037315792E+01 -0.45471266149E+02 -0.21442515416E+03  0.21919934931E+03  0.00000000000E+00 0. -1.
<mgrwt>
<rscale>  0 0.91024249E+02</rscale>
<asrwt>0</asrwt>
<pdfrwt beam="2">  1        2 0.65178699E-01 0.91024249E+02</pdfrwt>
<pdfrwt beam="1">  1       -2 0.75218007E-03 0.91024249E+02</pdfrwt>
<totfact> 0.20463925E+05</totfact>
</mgrwt>
</event>
<event>
 5    1  0.1270889E+001  0.9042259E+02  0.7546771E-02  0.1301832E+00
          3   -1    0    0  501    0  0.00000000000E+00  0.00000000000E+00  0.35706970353E+03  0.35706970353E+03  0.00000000000E+00 0. -1.
         -3   -1    0    0    0  501 -0.00000000000E+00 -0.00000000000E+00 -0.57245436000E+01  0.57245436000E+01  0.00000000000E+00 0.  1.
         23    2    1    2    0    0  0.00000000000E+00  0.00000000000E+00  0.35134515993E+03  0.36279424713E+03  0.90422587579E+02 0.  0.
        -11    1    3    3    0    0 -0.41233662417E+02 -0.11267057975E+02  0.23476241953E+03  0.23862220168E+03  0.00000000000E+00 0.  1.
         11    1    3    3    0    0  0.41233662417E+02  0.11267057975E+02  0.11658274040E+03  0.12417204545E+03  0.00000000000E+00 0. -1.
<mgrwt>
<rscale>  0 0.90422588E+02</rscale>
<asrwt>0</asrwt>
<pdfrwt beam="1">  1        3 0.54933783E-01 0.90422588E+02</pdfrwt>
<pdfrwt beam="2">  1       -3 0.88069929E-03 0.90422588E+02</pdfrwt>
<totfact> 0.22278035E+04</totfact>
</mgrwt>
</event>
<event>
 5    1  0.1270889E+001  0.9124679E+02  0.7546771E-02  0.1299860E+00
          2   -1    0    0  501    0  0.00000000000E+00  0.00000000000E+00  0.59546704594E+02  0.59546704594E+02  0.00000000000E+00 0. -1.
         -2   -1    0    0    0  501 -0.00000000000E+00 -0.00000000000E+00 -0.34955659495E+02  0.34955659495E+02  0.00000000000E+00 0.  1.
         23    2    1    2    0    0  0.00000000000E+00  0.00000000000E+00  0.24591045099E+02  0.94502364089E+02  0.91246793474E+02 0.  0.
        -11    1    3    3    0    0 -0.99402926617E+01  0.33322366914E+02 -0.18293048278E+02  0.39291540696E+02  0.00000000000E+00 0.  1.
         11    1    3    3    0    0  0.99402926617E+01 -0.33322366914E+02  0.42884093377E+02  0.55210823393E+02  0.00000000000E+00 0. -1.
<mgrwt>
<rscale>  0 0.91246793E+02</rscale>
<asrwt>0</asrwt>
<pdfrwt beam="1">  1        2 0.91610315E-02 0.91246793E+02</pdfrwt>
<pdfrwt beam="2">  1       -2 0.53777938E-02 0.91246793E+02</pdfrwt>
<totfact> 0.10562478E+05</totfact>
</mgrwt>
</event>
<event>
 5    1  0.1270889E+001  0.9080422E+02  0.7546771E-02  0.1300916E+00
          1   -1    0    0  501    0  0.00000000000E+00  0.00000000000E+00  0.16296727461E+03  0.16296727461E+03  0.00000000000E+00 0. -1.
         -1   -1    0    0    0  501 -0.00000000000E+00 -0.00000000000E+00 -0.12648869554E+02  0.12648869554E+02  0.00000000000E+00 0.  1.
         23    2    1    2    0    0  0.00000000000E+00  0.00000000000E+00  0.15031840505E+03  0.17561614416E+03  0.90804224529E+02 0.  0.
        -13    1    3    3    0    0  0.16025050453E+02  0.36349491384E+02  0.32643376601E+02  0.51416707419E+02  0.00000000000E+00 0.  1.
         13    1    3    3    0    0 -0.16025050453E+02 -0.36349491384E+02  0.11767502845E+03  0.12419943674E+03  0.00000000000E+00 0. -1.
<mgrwt>
<rscale>  0 0.90804225E+02</rscale>
<asrwt>0</asrwt>
<pdfrwt beam="1">  1        1 0.25071887E-01 0.90804225E+02</pdfrwt>
<pdfrwt beam="2">  1       -1 0.19459801E-02 0.90804225E+02</pdfrwt>
<totfact> 0.11513159E+05</totfact>
</mgrwt>
</event>
<event>
 5    1  0.1270889E+001  0.9229227E+02  0.7546771E-02  0.1297394E+00
         -2   -1    0    0    0  501 -0.00000000000E+00  0.00000000000E+00  0.91268383904E+01  0.91268383904E+01  0.00000000000E+00 0. -1.
          2   -1    0    0  501    0  0.00000000000E+00 -0.00000000000E+00 -0.23331912842E+03  0.23331912842E+03  0.00000000000E+00 0.  1.
         23    2    1    2    0    0  0.00000000000E+00  0.00000000000E+00 -0.22419229003E+03  0.24244596681E+03  0.92292274400E+02 0.  0.
        -11    1    3    3    0    0  0.40451675636E+02 -0.14017425820E+00 -0.17043001071E+03  0.17516491161E+03  0.00000000000E+00 0.  1.
         11    1    3    3    0    0 -0.40451675636E+02  0.14017425820E+00 -0.53762279322E+02  0.67281055197E+02  0.00000000000E+00 0. -1.
<mgrwt>
<rscale>  0 0.92292274E+02</rscale>
<asrwt>0</asrwt>
<pdfrwt beam="2">  1        2 0.35895248E-01 0.92292274E+02</pdfrwt>
<pdfrwt beam="1">  1       -2 0.14041291E-02 0.92292274E+02</pdfrwt>
<totfact> 0.15837666E+05</totfact>
</mgrwt>
</event>
<event>
 5    1  0.1270889E+001  0.8963282E+02  0.7546771E-02  0.1303743E+00
          2   -1    0    0  501    0  0.00000000000E+00  0.00000000000E+00  0.14749405016E+02  0.14749405016E+02  0.00000000000E+00 0. -1.
         -2   -1    0    0    0  501 -0.00000000000E+00 -0.00000000000E+00 -0.13617571013E+03  0.13617571013E+03  0.00000000000E+00 0.  1.
         23    2    1    2    0    0  0.00000000000E+00  0.00000000000E+00 -0.12142630511E+03  0.15092511515E+03  0.89632822158E+02 0.  0.
        -13    1    3    3    0    0  0.10316983984E+02 -0.30375739391E+02 -0.80179389634E+01  0.33066796750E+02  0.00000000000E+00 0. -1.
         13    1    3    3    0    0 -0.10316983984E+02  0.30375739391E+02 -0.11340836615E+03  0.11785831840E+03  0.00000000000E+00 0.  1.
<mgrwt>
<rscale>  0 0.89632822E+02</rscale>
<asrwt>0</asrwt>
<pdfrwt beam="1">  1        2 0.22691392E-02 0.89632822E+02</pdfrwt>
<pdfrwt beam="2">  1       -2 0.20950110E-01 0.89632822E+02</pdfrwt>
<totfact> 0.75473409E+04</totfact>
</mgrwt>
</event>
<event>
 5    1  0.1270889E+001  0.8962852E+02  0.7546771E-02  0.1303754E+00
         -2   -1    0    0    0  501 -0.00000000000E+00  0.00000000000E+00  0.49568334252E+02  0.49568334252E+02  0.00000000000E+00 0.  1.
          2   -1    0    0  501    0  0.00000000000E+00 -0.00000000000E+00 -0.40516143264E+02  0.40516143264E+02  0.00000000000E+00 0. -1.
         23    2    1    2    0    0  0.00000000000E+00  0.00000000000E+00  0.90521909883E+01  0.90084477516E+02  0.89628516264E+02 0.  0.
        -13    1    3    3    0    0 -0.39307533188E+02  0.52430592877E+00 -0.17099884945E+02  0.42869139567E+02  0.00000000000E+00 0. -1.
         13    1    3    3    0    0  0.39307533188E+02 -0.52430592877E+00  0.26152075933E+02  0.47215337949E+02  0.00000000000E+00 0.  1.
<mgrwt>
<rscale>  0 0.89628516E+02</rscale>
<asrwt>0</asrwt>
<pdfrwt beam="2">  1        2 0.62332528E-02 0.89628516E+02</pdfrwt>
<pdfrwt beam="1">  1       -2 0.76258976E-02 0.89628516E+02</pdfrwt>
<totfact> 0.10055560E+05</totfact>
</mgrwt>
</event>
<event>
 5    1  0.1270889E+001  0.9044778E+02  0.7546771E-02  0.1301771E+00
         -3   -1    0    0    0  501 -0.00000000000E+00  0.00000000000E+00  0.36641656131E+02  0.36641656131E+02  0.00000000000E+00 0.  1.
          3   -1    0    0  501    0  0.00000000000E+00 -0.00000000000E+00 -0.55816258286E+02  0.55816258286E+02  0.00000000000E+00 0. -1.
         23    2    1    2    0    0  0.00000000000E+00  0.00000000000E+00 -0.19174602155E+02  0.92457914417E+02  0.90447778141E+02 0.  0.
        -11    1    3    3    0    0 -0.27916466393E+02 -0.28196283250E+01  0.26668109631E+02  0.38710043542E+02  0.00000000000E+00 0.  1.
         11    1    3    3    0    0  0.27916466393E+02  0.28196283250E+01 -0.45842711786E+02  0.53747870875E+02  0.00000000000E+00 0. -1.
<mgrwt>
<rscale>  0 0.90447778E+02</rscale>
<asrwt>0</asrwt>
<pdfrwt beam="2">  1        3 0.85871167E-02 0.90447778E+02</pdfrwt>
<pdfrwt beam="1">  1       -3 0.56371778E-02 0.90447778E+02</pdfrwt>
<totfact> 0.36018388E+04</totfact>
</mgrwt>
</event>
<event>
 5    1  0.1270889E+001  0.9402110E+02  0.7546771E-02  0.1293396E+00
          2   -1    0    0  501    0  0.00000000000E+00  0.00000000000E+00  0.20676365883E+03  0.20676365883E+03  0.00000000000E+00 0. -1.
         -2   -1    0    0    0  501 -0.00000000000E+00 -0.00000000000E+00 -0.10688492460E+02  0.10688492460E+02  0.00000000000E+00 0.  1.
         23    2    1    2    0    0  0.00000000000E+00  0.00000000000E+00  0.19607516637E+03  0.21745215129E+03  0.94021099936E+02 0.  0.
        -13    1    3    3    0    0 -0.36363687333E+02  0.17519818198E+02  0.42302902130E+02  0.58470482423E+02  0.00000000000E+00 0.  1.
         13    1    3    3    0    0  0.36363687333E+02 -0.17519818198E+02  0.15377226424E+03  0.15898166886E+03  0.00000000000E+00 0. -1.
<mgrwt>
<rscale>  0 0.94021100E+02</rscale>
<asrwt>0</asrwt>
<pdfrwt beam="1">  1        2 0.31809791E-01 0.94021100E+02</pdfrwt>
<pdfrwt beam="2">  1       -2 0.16443836E-02 0.94021100E+02</pdfrwt>
<totfact> 0.14410836E+05</totfact>
</mgrwt>
</event>
<event>
 5    1  0.1270889E+001  0.9181347E+02  0.7546771E-02  0.1298519E+00
          2   -1    0    0  501    0  0.00000000000E+00  0.00000000000E+00  0.43627278429E+02  0.43627278429E+02  0.00000000000E+00 0. -1.
         -2   -1    0    0    0  501 -0.00000000000E+00 -0.00000000000E+00 -0.48305288759E+02  0.48305288759E+02  0.00000000000E+00 0.  1.
         23    2    1    2    0    0  0.00000000000E+00  0.00000000000E+00 -0.46780103307E+01  0.91932567188E+02  0.91813469214E+02 0.  0.
        -13    1    3    3    0    0 -0.16072001809E+02  0.36751701035E+02  0.20015534729E+02  0.44828767567E+02  0.00000000000E+00 0. -1.
         13    1    3    3    0    0  0.16072001809E+02 -0.36751701035E+02 -0.24693545060E+02  0.47103799621E+02  0.00000000000E+00 0.  1.
<mgrwt>
<rscale>  0 0.91813469E+02</rscale>
<asrwt>0</asrwt>
<pdfrwt beam="1">  1        2 0.67118890E-02 0.91813469E+02</pdfrwt>
<pdfrwt beam="2">  1       -2 0.74315829E-02 0.91813469E+02</pdfrwt>
<totfact> 0.95618252E+04</totfact>
</mgrwt>
</event>
<event>
 5    1  0.1270889E+001  0.9206814E+02  0.7546771E-02  0.1297919E+00
         -2   -1    0    0    0  501 -0.00000000000E+00  0.00000000000E+00  0.13983848851E+02  0.13983848851E+02  0.00000000000E+00 0.  1.
          2   -1    0    0  501    0  0.00000000000E+00 -0.00000000000E+00 -0.15154165804E+03  0.15154165804E+03  0.00000000000E+00 0. -1.
         23    2    1    2    0    0  0.00000000000E+00  0.00000000000E+00 -0.13755780919E+03  0.16552550689E+03  0.92068140865E+02 0.  0.
        -11    1    3    3    0    0  0.63879392809E+01 -0.30334080867E+02 -0.12996353599E+03  0.13360944172E+03  0.00000000000E+00 0. -1.
         11    1    3    3    0    0 -0.63879392809E+01  0.30334080867E+02 -0.75942731965E+01  0.31916065166E+02  0.00000000000E+00 0.  1.
<mgrwt>
<rscale>  0 0.92068141E+02</rscale>
<asrwt>0</asrwt>
<pdfrwt beam="2">  1        2 0.23314101E-01 0.92068141E+02</pdfrwt>
<pdfrwt beam="1">  1       -2 0.21513614E-02 0.92068141E+02</pdfrwt>
<totfact> 0.13663728E+05</totfact>
</mgrwt>
</event>
<event>
 5    1  0.1270889E+001  0.9097488E+02  0.7546771E-02  0.1300508E+00
         -2   -1    0    0    0  501 -0.00000000000E+00  0.00000000000E+00  0.14946544494E+03  0.14946544494E+03  0.00000000000E+00 0. -1.
          2   -1    0    0  501    0  0.00000000000E+00 -0.00000000000E+00 -0.13843380908E+02  0.13843380908E+02  0.00000000000E+00 0.  1.
         23    2    1    2    0    0  0.00000000000E+00  0.00000000000E+00  0.13562206404E+03  0.16330882585E+03  0.90974877562E+02 0.  0.
        -11    1    3    3    0    0  0.33953019185E+02 -0.29876283882E+02  0.59070685674E+02  0.74395871905E+02  0.00000000000E+00 0.  1.
         11    1    3    3    0    0 -0.33953019185E+02  0.29876283882E+02  0.76551378361E+02  0.88912953946E+02  0.00000000000E+00 0. -1.
<mgrwt>
<rscale>  0 0.90974878E+02</rscale>
<asrwt>0</asrwt>
<pdfrwt beam="2">  1        2 0.21297510E-02 0.90974878E+02</pdfrwt>
<pdfrwt beam="1">  1       -2 0.22994683E-01 0.90974878E+02</pdfrwt>
<totfact> 0.70341251E+04</totfact>
</mgrwt>
</event>
<event>
 5    1  0.1270889E+001  0.9129769E+02  0.7546771E-02  0.1299739E+00
         -1   -1    0    0    0  501 -0.00000000000E+00  0.00000000000E+00  0.45614981861E+02  0.45614981861E+02  0.00000000000E+00 0.  1.
          1   -1    0    0  501    0  0.00000000000E+00 -0.00000000000E+00 -0.45682730720E+02  0.45682730720E+02  0.00000000000E+00 0. -1.
         23    2    1    2    0    0  0.00000000000E+00  0.00000000000E+00 -0.67748858481E-01  0.91297712581E+02  0.91297687444E+02 0.  0.
        -13    1    3    3    0    0  0.29754086835E+02  0.21049754745E+02  0.27451021258E+02  0.45628460705E+02  0.00000000000E+00 0.  1.
         13    1    3    3    0    0 -0.29754086835E+02 -0.21049754745E+02 -0.27518770117E+02  0.45669251876E+02  0.00000000000E+00 0. -1.
<mgrwt>
<rscale>  0 0.91297687E+02</rscale>
<asrwt>0</asrwt>
<pdfrwt beam="2">  1        1 0.70281124E-02 0.91297687E+02</pdfrwt>
<pdfrwt beam="1">  1       -1 0.70176895E-02 0.91297687E+02</pdfrwt>
<totfact> 0.92157403E+04</totfact>
</mgrwt>
</event>
<event>
 5    1  0.1270889E+001  0.8897452E+02  0.7546771E-02  0.1305354E+00
          1   -1    0    0  501    0  0.00000000000E+00  0.00000000000E+00  0.27500588961E+03  0.27500588961E+03  0.00000000000E+00 0. -1.
         -1   -1    0    0    0  501 -0.00000000000E+00 -0.00000000000E+00 -0.71966317316E+01  0.71966317316E+01  0.00000000000E+00 0.  1.
         23    2    1    2    0    0  0.00000000000E+00  0.00000000000E+00  0.26780925787E+03  0.28220252134E+03  0.88974515711E+02 0.  0.
        -11    1    3    3    0    0 -0.29429711579E+01  0.44196640803E+02  0.12078428220E+03  0.12865009508E+03  0.00000000000E+00 0. -1.
         11    1    3    3    0    0  0.29429711579E+01 -0.44196640803E+02  0.14702497567E+03  0.15355242625E+03  0.00000000000E+00 0.  1.
<mgrwt>
<rscale>  0 0.88974516E+02</rscale>
<asrwt>0</asrwt>
<pdfrwt beam="1">  1        1 0.42308590E-01 0.88974516E+02</pdfrwt>
<pdfrwt beam="2">  1       -1 0.11071743E-02 0.88974516E+02</pdfrwt>
<totfact> 0.13446831E+05</totfact>
</mgrwt>
</event>
<event>
 5    1  0.1270889E+001  0.8929493E+02  0.7546771E-02  0.1304568E+00
          3   -1    0    0  501    0  0.00000000000E+00  0.00000000000E+00  0.45439151548E+02  0.45439151548E+02  0.00000000000E+00 0. -1.
         -3   -1    0    0    0  501 -0.00000000000E+00 -0.00000000000E+00 -0.43869570423E+02  0.43869570423E+02  0.00000000000E+00 0.  1.
         23    2    1    2    0    0  0.00000000000E+00  0.00000000000E+00  0.15695811245E+01  0.89308721971E+02  0.89294928384E+02 0.  0.
        -13    1    3    3    0    0  0.34423848415E+01 -0.10599406015E+02 -0.42456117854E+02  0.43894411541E+02  0.00000000000E+00 0.  1.
         13    1    3    3    0    0 -0.34423848415E+01  0.10599406015E+02  0.44025698979E+02  0.45414310430E+02  0.00000000000E+00 0. -1.
<mgrwt>
<rscale>  0 0.89294928E+02</rscale>
<asrwt>0</asrwt>
<pdfrwt beam="1">  1        3 0.69906387E-02 0.89294928E+02</pdfrwt>
<pdfrwt beam="2">  1       -3 0.67491647E-02 0.89294928E+02</pdfrwt>
<totfact> 0.37552542E+04</totfact>
</mgrwt>
</event>
<event>
 5    1  0.1270889E+001  0.9191480E+02  0.7546771E-02  0.1298280E+00
         -3   -1    0    0    0  501 -0.00000000000E+00  0.00000000000E+00  0.11166255795E+03  0.11166255795E+03  0.00000000000E+00 0.  1.
          3   -1    0    0  501    0  0.00000000000E+00 -0.00000000000E+00 -0.18914870515E+02  0.18914870515E+02  0.00000000000E+00 0. -1.
         23    2    1    2    0    0  0.00000000000E+00  0.00000000000E+00  0.92747687435E+02  0.13057742847E+03  0.91914804575E+02 0.  0.
        -13    1    3    3    0    0 -0.38936809495E+02 -0.22655076471E+02  0.33450339364E+02  0.56109293590E+02  0.00000000000E+00 0.  1.
         13    1    3    3    0    0  0.38936809495E+02  0.22655076471E+02  0.59297348071E+02  0.74468134875E+02  0.00000000000E+00 0. -1.
<mgrwt>
<rscale>  0 0.91914805E+02</rscale>
<asrwt>0</asrwt>
<pdfrwt beam="2">  1        3 0.29099801E-02 0.91914805E+02</pdfrwt>
<pdfrwt beam="1">  1       -3 0.17178855E-01 0.91914805E+02</pdfrwt>
<totfact> 0.31834228E+04</totfact>
</mgrwt>
</event>
<event>
 5    1  0.1270889E+001  0.9019506E+02  0.7546771E-02  0.1302380E+00
         -2   -1    0    0    0  501 -0.00000000000E+00  0.00000000000E+00  0.16521734250E+03  0.16521734250E+03  0.00000000000E+00 0.  1.
          2   -1    0    0  501    0  0.00000000000E+00 -0.00000000000E+00 -0.12309768896E+02  0.12309768896E+02  0.00000000000E+00 0. -1.
         23    2    1    2    0    0  0.00000000000E+00  0.00000000000E+00  0.15290757360E+03  0.17752711140E+03  0.90195062033E+02 0.  0.
        -11    1    3    3    0    0 -0.30735968125E+02 -0.30109856791E+02  0.49865250536E+02  0.65862329321E+02  0.00000000000E+00 0. -1.
         11    1    3    3    0    0  0.30735968125E+02  0.30109856791E+02  0.10304232307E+03  0.11166478207E+03  0.00000000000E+00 0.  1.
<mgrwt>
<rscale>  0 0.90195062E+02</rscale>
<asrwt>0</asrwt>
<pdfrwt beam="2">  1        2 0.18938107E-02 0.90195062E+02</pdfrwt>
<pdfrwt beam="1">  1       -2 0.25418051E-01 0.90195062E+02</pdfrwt>
<totfact> 0.69252182E+04</totfact>
</mgrwt>
</event>
<event>
 5    1  0.1270889E+001  0.9027613E+02  0.7546771E-02  0.1302184E+00
          1   -1    0    0  501    0  0.00000000000E+00  0.00000000000E+00  0.30786461441E+02  0.30786461441E+02  0.00000000000E+00 0. -1.
         -1   -1    0    0    0  501 -0.00000000000E+00 -0.00000000000E+00 -0.66179893709E+02  0.66179893709E+02  0.00000000000E+00 0.  1.
         23    2    1    2    0    0  0.00000000000E+00  0.00000000000E+00 -0.35393432267E+02  0.96966355150E+02  0.90276126320E+02 0.  0.
        -11    1    3    3    0    0 -0.35716348020E+02 -0.45402576227E+01  0.11545348721E+02  0.37809608993E+02  0.00000000000E+00 0.  1.
         11    1    3    3    0    0  0.35716348020E+02  0.45402576227E+01 -0.46938780988E+02  0.59156746156E+02  0.00000000000E+00 0. -1.
<mgrwt>
<rscale>  0 0.90276126E+02</rscale>
<asrwt>0</asrwt>
<pdfrwt beam="1">  1        1 0.47363788E-02 0.90276126E+02</pdfrwt>
<pdfrwt beam="2">  1       -1 0.10181522E-01 0.90276126E+02</pdfrwt>
<totfact> 0.89554388E+04</totfact>
</mgrwt>
</event>
<event>
 5    1  0.1270889E+001  0.8918516E+02  0.7546771E-02  0.1304837E+00
          2   -1    0    0  501    0  0.00000000000E+00  0.00000000000E+00  0.14473664618E+02  0.14473664618E+02  0.00000000000E+00 0. -1.
         -2   -1    0    0    0  501 -0.00000000000E+00 -0.00000000000E+00 -0.13738733388E+03  0.13738733388E+03  0.00000000000E+00 0.  1.
         23    2    1    2    0    0  0.00000000000E+00  0.00000000000E+00 -0.12291366926E+03  0.15186099850E+03  0.89185160051E+02 0.  0.
        -11    1    3    3    0    0 -0.10445157507E+02  0.41684423425E+02 -0.81733686677E+02  0.92342233076E+02  0.00000000000E+00 0.  1.
         11    1    3    3    0    0  0.10445157507E+02 -0.41684423425E+02 -0.41179982585E+02  0.59518765422E+02  0.00000000000E+00 0. -1.
<mgrwt>
<rscale>  0 0.89185160E+02</rscale>
<asrwt>0</asrwt>
<pdfrwt beam="1">  1        2 0.22267177E-02 0.89185160E+02</pdfrwt>
<pdfrwt beam="2">  1       -2 0.21136512E-01 0.89185160E+02</pdfrwt>
<totfact> 0.76199052E+04</totfact>
</mgrwt>
</event>
<event>
 5    1  0.1270889E+001  0.9091422E+02  0.7546771E-02  0.1300653E+00
          1   -1    0    0  501    0  0.00000000000E+00  0.00000000000E+00  0.89284078910E+02  0.89284078910E+02  0.00000000000E+00 0. -1.
         -1   -1    0    0    0  501 -0.00000000000E+00 -0.00000000000E+00 -0.23143530306E+02  0.23143530306E+02  0.00000000000E+00 0.  1.
         23    2    1    2    0    0  0.00000000000E+00  0.00000000000E+00  0.66140548604E+02  0.11242760922E+03  0.90914218604E+02 0.  0.
        -11    1    3    3    0    0  0.24230751148E+02  0.37826684903E+02  0.41670118258E+02  0.61273045849E+02  0.00000000000E+00 0. -1.
         11    1    3    3    0    0 -0.24230751148E+02 -0.37826684903E+02  0.24470430346E+02  0.51154563367E+02  0.00000000000E+00 0.  1.
<mgrwt>
<rscale>  0 0.90914219E+02</rscale>
<asrwt>0</asrwt>
<pdfrwt beam="1">  1        1 0.13736012E-01 0.90914219E+02</pdfrwt>
<pdfrwt beam="2">  1       -1 0.35605432E-02 0.90914219E+02</pdfrwt>
<totfact> 0.10333968E+05</totfact>
</mgrwt>
</event>
<event>
 5    1  0.1270889E+001  0.9189522E+02  0.7546771E-02  0.1298326E+00
          1   -1    0    0  501    0  0.00000000000E+00  0.00000000000E+00  0.14693532331E+02  0.14693532331E+02  0.00000000000E+00 0. -1.
         -1   -1    0    0    0  501 -0.00000000000E+00 -0.00000000000E+00 -0.14368110136E+03  0.14368110136E+03  0.00000000000E+00 0.  1.
         23    2    1    2    0    0  0.00000000000E+00  0.00000000000E+00 -0.12898756903E+03  0.15837463369E+03  0.91895220946E+02 0.  0.
        -13    1    3    3    0    0  0.69817177445E+01  0.43540393027E+02 -0.86743524147E+02  0.97308525778E+02  0.00000000000E+00 0.  1.
         13    1    3    3    0    0 -0.69817177445E+01 -0.43540393027E+02 -0.42244044883E+02  0.61066107914E+02  0.00000000000E+00 0. -1.
<mgrwt>
<rscale>  0 0.91895221E+02</rscale>
<asrwt>0</asrwt>
<pdfrwt beam="1">  1        1 0.22605435E-02 0.91895221E+02</pdfrwt>
<pdfrwt beam="2">  1       -1 0.22104785E-01 0.91895221E+02</pdfrwt>
<totfact> 0.74011921E+04</totfact>
</mgrwt>
</event>
<event>
 5    1  0.1270889E+001  0.9113440E+02  0.7546771E-02  0.1300128E+00
          4   -1    0    0  501    0  0.00000000000E+00  0.00000000000E+00  0.53163424223E+02  0.53163424223E+02  0.00000000000E+00 0. -1.
         -4   -1    0    0    0  501 -0.00000000000E+00 -0.00000000000E+00 -0.39056358701E+02  0.39056358701E+02  0.00000000000E+00 0.  1.
         23    2    1    2    0    0  0.00000000000E+00  0.00000000000E+00  0.14107065521E+02  0.92219782924E+02  0.91134401106E+02 0.  0.
        -13    1    3    3    0    0  0.37571554059E+02 -0.24517435848E+02 -0.10191622451E+01  0.44874993333E+02  0.00000000000E+00 0. -1.
         13    1    3    3    0    0 -0.37571554059E+02  0.24517435848E+02  0.15126227767E+02  0.47344789591E+02  0.00000000000E+00 0.  1.
<mgrwt>
<rscale>  0 0.91134401E+02</rscale>
<asrwt>0</asrwt>
<pdfrwt beam="1">  1        4 0.81789883E-02 0.91134401E+02</pdfrwt>
<pdfrwt beam="2">  1       -4 0.60086706E-02 0.91134401E+02</pdfrwt>
<totfact> 0.26983629E+04</totfact>
</mgrwt>
</event>
<event>
 5    1  0.1270889E+001  0.8993201E+02  0.7546771E-02  0.1303016E+00
         -2   -1    0    0    0  501 -0.00000000000E+00  0.00000000000E+00  0.11255574625E+03  0.11255574625E+03  0.00000000000E+00 0.  1.
          2   -1    0    0  501    0  0.00000000000E+00 -0.00000000000E+00 -0.17963912014E+02  0.17963912014E+02  0.00000000000E+00 0. -1.
         23    2    1    2    0    0  0.00000000000E+00  0.00000000000E+00  0.94591834235E+02  0.13051965826E+03  0.89932008147E+02 0.  0.
        -13    1    3    3    0    0 -0.56045984558E+01 -0.31727712113E+02  0.17726726534E+01  0.32267655758E+02  0.00000000000E+00 0. -1.
         13    1    3    3    0    0  0.56045984558E+01  0.31727712113E+02  0.92819161582E+02  0.98252002507E+02  0.00000000000E+00 0.  1.
<mgrwt>
<rscale>  0 0.89932008E+02</rscale>
<asrwt>0</asrwt>
<pdfrwt beam="2">  1        2 0.27636788E-02 0.89932008E+02</pdfrwt>
<pdfrwt beam="1">  1       -2 0.17316268E-01 0.89932008E+02</pdfrwt>
<totfact> 0.79662797E+04</totfact>
</mgrwt>
</event>
<event>
 5    1  0.1270889E+001  0.9111881E+02  0.7546771E-02  0.1300165E+00
          1   -1    0    0  501    0  0.00000000000E+00  0.00000000000E+00  0.19187346847E+02  0.19187346847E+02  0.00000000000E+00 0. -1.
         -1   -1    0    0    0  501 -0.00000000000E+00 -0.00000000000E+00 -0.10817856224E+03  0.10817856224E+03  0.00000000000E+00 0.  1.
         23    2    1    2    0    0  0.00000000000E+00  0.00000000000E+00 -0.88991215390E+02  0.12736590908E+03  0.91118814633E+02 0.  0.
        -13    1    3    3    0    0  0.43035137995E+02  0.58607976531E+01 -0.63726797586E+02  0.77119885774E+02  0.00000000000E+00 0.  1.
         13    1    3    3    0    0 -0.43035137995E+02 -0.58607976531E+01 -0.25264417804E+02  0.50246023309E+02  0.00000000000E+00 0. -1.
<mgrwt>
<rscale>  0 0.91118815E+02</rscale>
<asrwt>0</asrwt>
<pdfrwt beam="1">  1        1 0.29518996E-02 0.91118815E+02</pdfrwt>
<pdfrwt beam="2">  1       -1 0.16642855E-01 0.91118815E+02</pdfrwt>
<totfact> 0.80298789E+04</totfact>
</mgrwt>
</event>
<event>
 5    1  0.1270889E+001  0.9059604E+02  0.7546771E-02  0.1301415E+00
          1   -1    0    0  501    0  0.00000000000E+00  0.00000000000E+00  0.31437004652E+02  0.31437004652E+02  0.00000000000E+00 0. -1.
         -1   -1    0    0    0  501 -0.00000000000E+00 -0.00000000000E+00 -0.65270551490E+02  0.65270551490E+02  0.00000000000E+00 0.  1.
         23    2    1    2    0    0  0.00000000000E+00  0.00000000000E+00 -0.33833546837E+02  0.96707556142E+02  0.90596040330E+02 0.  0.
        -13    1    3    3    0    0 -0.37605170809E+02 -0.24991556071E+02 -0.13040870540E+02  0.46997777084E+02  0.00000000000E+00 0.  1.
         13    1    3    3    0    0  0.37605170809E+02  0.24991556071E+02 -0.20792676298E+02  0.49709779058E+02  0.00000000000E+00 0. -1.
<mgrwt>
<rscale>  0 0.90596040E+02</rscale>
<asrwt>0</asrwt>
<pdfrwt beam="1">  1        1 0.48364623E-02 0.90596040E+02</pdfrwt>
<pdfrwt beam="2">  1       -1 0.10041623E-01 0.90596040E+02</pdfrwt>
<totfact> 0.88947667E+04</totfact>
</mgrwt>
</event>
<event>
 5    1  0.1270889E+001  0.8593989E+02  0.7546771E-02  0.1312993E+00
         -2   -1    0    0    0  501 -0.00000000000E+00  0.00000000000E+00  0.34350058776E+02  0.34350058776E+02  0.00000000000E+00 0.  1.
          2   -1    0    0  501    0  0.00000000000E+00 -0.00000000000E+00 -0.53752924261E+02  0.53752924261E+02  0.00000000000E+00 0. -1.
         23    2    1    2    0    0  0.00000000000E+00  0.00000000000E+00 -0.19402865485E+02  0.88102983037E+02  0.85939888475E+02 0.  0.
        -13    1    3    3    0    0  0.41123179322E+02 -0.78978462674E+01 -0.19583785910E+02  0.46227876047E+02  0.00000000000E+00 0. -1.
         13    1    3    3    0    0 -0.41123179322E+02  0.78978462674E+01  0.18092042526E+00  0.41875106990E+02  0.00000000000E+00 0.  1.
<mgrwt>
<rscale>  0 0.85939888E+02</rscale>
<asrwt>0</asrwt>
<pdfrwt beam="2">  1        2 0.82696806E-02 0.85939888E+02</pdfrwt>
<pdfrwt beam="1">  1       -2 0.52846245E-02 0.85939888E+02</pdfrwt>
<totfact> 0.12172254E+05</totfact>
</mgrwt>
</event>
<event>
 5    1  0.1270889E+001  0.9005284E+02  0.7546771E-02  0.1302724E+00
         -1   -1    0    0    0  501 -0.00000000000E+00  0.00000000000E+00  0.55209287005E+01  0.55209287005E+01  0.00000000000E+00 0.  1.
          1   -1    0    0  501    0  0.00000000000E+00 -0.00000000000E+00 -0.36721690868E+03  0.36721690868E+03  0.00000000000E+00 0. -1.
         23    2    1    2    0    0  0.00000000000E+00  0.00000000000E+00 -0.36169597998E+03  0.37273783738E+03  0.90052837166E+02 0.  0.
        -13    1    3    3    0    0 -0.25056700543E+02 -0.35491169239E+02 -0.13188799365E+03  0.13885929643E+03  0.00000000000E+00 0.  1.
         13    1    3    3    0    0  0.25056700543E+02  0.35491169239E+02 -0.22980798633E+03  0.23387854095E+03  0.00000000000E+00 0. -1.
<mgrwt>
<rscale>  0 0.90052837E+02</rscale>
<asrwt>0</asrwt>
<pdfrwt beam="2">  1        1 0.56494923E-01 0.90052837E+02</pdfrwt>
<pdfrwt beam="1">  1       -1 0.84937344E-03 0.90052837E+02</pdfrwt>
<totfact> 0.13740294E+05</totfact>
</mgrwt>
</event>
<event>
 5    1  0.1270889E+001  0.8849959E+02  0.7546771E-02  0.1306526E+00
         -2   -1    0    0    0  501 -0.00000000000E+00  0.00000000000E+00  0.12573627278E+02  0.12573627278E+02  0.00000000000E+00 0.  1.
          2   -1    0    0  501    0  0.00000000000E+00 -0.00000000000E+00 -0.15572630383E+03  0.15572630383E+03  0.00000000000E+00 0. -1.
         23    2    1    2    0    0  0.00000000000E+00  0.00000000000E+00 -0.14315267655E+03  0.16829993110E+03  0.88499593256E+02 0.  0.
        -11    1    3    3    0    0  0.41974195607E+02  0.93422454189E+01 -0.91424674157E+02  0.10103257737E+03  0.00000000000E+00 0.  1.
         11    1    3    3    0    0 -0.41974195607E+02 -0.93422454189E+01 -0.51728002391E+02  0.67267353729E+02  0.00000000000E+00 0. -1.
<mgrwt>
<rscale>  0 0.88499593E+02</rscale>
<asrwt>0</asrwt>
<pdfrwt beam="2">  1        2 0.23957892E-01 0.88499593E+02</pdfrwt>
<pdfrwt beam="1">  1       -2 0.19344042E-02 0.88499593E+02</pdfrwt>
<totfact> 0.15349431E+05</totfact>
</mgrwt>
</event>
<event>
 5    1  0.1270889E+001  0.9059718E+02  0.7546771E-02  0.1301412E+00
          3   -1    0    0  501    0  0.00000000000E+00  0.00000000000E+00  0.73264470204E+02  0.73264470204E+02  0.00000000000E+00 0. -1.
         -3   -1    0    0    0  501 -0.00000000000E+00 -0.00000000000E+00 -0.28007601246E+02  0.28007601246E+02  0.00000000000E+00 0.  1.
         23    2    1    2    0    0  0.00000000000E+00  0.00000000000E+00  0.45256868958E+02  0.10127207145E+03  0.90597175827E+02 0.  0.
        -13    1    3    3    0    0 -0.16393043509E+02 -0.42227072955E+02  0.22989790644E+02  0.50797520016E+02  0.00000000000E+00 0.  1.
         13    1    3    3    0    0  0.16393043509E+02  0.42227072955E+02  0.22267078314E+02  0.50474551434E+02  0.00000000000E+00 0. -1.
<mgrwt>
<rscale>  0 0.90597176E+02</rscale>
<asrwt>0</asrwt>
<pdfrwt beam="1">  1        3 0.11271457E-01 0.90597176E+02</pdfrwt>
<pdfrwt beam="2">  1       -3 0.43088618E-02 0.90597176E+02</pdfrwt>
<totfact> 0.35181700E+04</totfact>
</mgrwt>
</event>
<event>
 5    1  0.1270889E+001  0.9050592E+02  0.7546771E-02  0.1301631E+00
         -4   -1    0    0    0  501 -0.00000000000E+00  0.00000000000E+00  0.29716906822E+02  0.29716906822E+02  0.00000000000E+00 0.  1.
          4   -1    0    0  501    0  0.00000000000E+00 -0.00000000000E+00 -0.68911282569E+02  0.68911282569E+02  0.00000000000E+00 0. -1.
         23    2    1    2    0    0  0.00000000000E+00  0.00000000000E+00 -0.39194375747E+02  0.98628189391E+02  0.90505915014E+02 0.  0.
        -13    1    3    3    0    0 -0.74441118440E+01  0.32718578091E+02 -0.52685023698E+02  0.62463044078E+02  0.00000000000E+00 0. -1.
         13    1    3    3    0    0  0.74441118440E+01 -0.32718578091E+02  0.13490647951E+02  0.36165145314E+02  0.00000000000E+00 0.  1.
<mgrwt>
<rscale>  0 0.90505915E+02</rscale>
<asrwt>0</asrwt>
<pdfrwt beam="2">  1        4 0.10601736E-01 0.90505915E+02</pdfrwt>
<pdfrwt beam="1">  1       -4 0.45718319E-02 0.90505915E+02</pdfrwt>
<totfact> 0.27079299E+04</totfact>
</mgrwt>
</event>
<event>
 5    1  0.1270889E+001  0.5871382E+02  0.7546771E-02  0.1403310E+00
         -1   -1    0    0    0  501 -0.00000000000E+00  0.00000000000E+00  0.26172077860E+02  0.26172077860E+02  0.00000000000E+00 0.  1.
          1   -1    0    0  501    0  0.00000000000E+00 -0.00000000000E+00 -0.32929298023E+02  0.32929298023E+02  0.00000000000E+00 0. -1.
         23    2    1    2    0    0  0.00000000000E+00  0.00000000000E+00 -0.67572201630E+01  0.59101375883E+02  0.58713819556E+02 0.  0.
        -13    1    3    3    0    0  0.84489167006E+00  0.23017726288E+02 -0.21700364133E+02  0.31645463639E+02  0.00000000000E+00 0. -1.
         13    1    3    3    0    0 -0.84489167006E+00 -0.23017726288E+02  0.14943143970E+02  0.27455912244E+02  0.00000000000E+00 0.  1.
<mgrwt>
<rscale>  0 0.58713820E+02</rscale>
<asrwt>0</asrwt>
<pdfrwt beam="2">  1        1 0.50660459E-02 0.58713820E+02</pdfrwt>
<pdfrwt beam="1">  1       -1 0.40264735E-02 0.58713820E+02</pdfrwt>
<totfact> 0.29462262E+05</totfact>
</mgrwt>
</event>
<event>
 5    1  0.1270889E+001  0.9010176E+02  0.7546771E-02  0.1302605E+00
         -1   -1    0    0    0  501 -0.00000000000E+00  0.00000000000E+00  0.31065287785E+02  0.31065287785E+02  0.00000000000E+00 0.  1.
          1   -1    0    0  501    0  0.00000000000E+00 -0.00000000000E+00 -0.65332779264E+02  0.65332779264E+02  0.00000000000E+00 0. -1.
         23    2    1    2    0    0  0.00000000000E+00  0.00000000000E+00 -0.34267491479E+02  0.96398067049E+02  0.90101755580E+02 0.  0.
        -13    1    3    3    0    0  0.31644370355E+02 -0.21862007965E+02  0.79632773517E+01  0.39277568072E+02  0.00000000000E+00 0.  1.
         13    1    3    3    0    0 -0.31644370355E+02  0.21862007965E+02 -0.42230768831E+02  0.57120498978E+02  0.00000000000E+00 0. -1.
<mgrwt>
<rscale>  0 0.90101756E+02</rscale>
<asrwt>0</asrwt>
<pdfrwt beam="2">  1        1 0.10051197E-01 0.90101756E+02</pdfrwt>
<pdfrwt beam="1">  1       -1 0.47792751E-02 0.90101756E+02</pdfrwt>
<totfact> 0.10087641E+05</totfact>
</mgrwt>
</event>
<event>
 5    1  0.1270889E+001  0.9485439E+02  0.7546771E-02  0.1291504E+00
         -2   -1    0    0    0  501 -0.00000000000E+00  0.00000000000E+00  0.19886341797E+02  0.19886341797E+02  0.00000000000E+00 0.  1.
          2   -1    0    0  501    0  0.00000000000E+00 -0.00000000000E+00 -0.11310973996E+03  0.11310973996E+03  0.00000000000E+00 0. -1.
         23    2    1    2    0    0  0.00000000000E+00  0.00000000000E+00 -0.93223398167E+02  0.13299608176E+03  0.94854392613E+02 0.  0.
        -13    1    3    3    0    0 -0.76308037179E+01 -0.33798866392E+02 -0.92018054412E+02  0.98325555542E+02  0.00000000000E+00 0. -1.
         13    1    3    3    0    0  0.76308037179E+01  0.33798866392E+02 -0.12053437551E+01  0.34670526220E+02  0.00000000000E+00 0.  1.
<mgrwt>
<rscale>  0 0.94854393E+02</rscale>
<asrwt>0</asrwt>
<pdfrwt beam="2">  1        2 0.17401498E-01 0.94854393E+02</pdfrwt>
<pdfrwt beam="1">  1       -2 0.30594372E-02 0.94854393E+02</pdfrwt>
<totfact> 0.11431653E+05</totfact>
</mgrwt>
</event>
<event>
 5    1  0.1270889E+001  0.9993452E+02  0.7546771E-02  0.1280434E+00
          2   -1    0    0  501    0  0.00000000000E+00  0.00000000000E+00  0.24178596400E+03  0.24178596400E+03  0.00000000000E+00 0. -1.
         -2   -1    0    0    0  501 -0.00000000000E+00 -0.00000000000E+00 -0.10326186801E+02  0.10326186801E+02  0.00000000000E+00 0.  1.
         23    2    1    2    0    0  0.00000000000E+00  0.00000000000E+00  0.23145977720E+03  0.25211215081E+03  0.99934519165E+02 0.  0.
        -11    1    3    3    0    0  0.29809153553E+02  0.26011360763E+02  0.38731532486E+02  0.55365224943E+02  0.00000000000E+00 0.  1.
         11    1    3    3    0    0 -0.29809153553E+02 -0.26011360763E+02  0.19272824472E+03  0.19674692586E+03  0.00000000000E+00 0. -1.
<mgrwt>
<rscale>  0 0.99934519E+02</rscale>
<asrwt>0</asrwt>
<pdfrwt beam="1">  1        2 0.37197836E-01 0.99934519E+02</pdfrwt>
<pdfrwt beam="2">  1       -2 0.15886443E-02 0.99934519E+02</pdfrwt>
<totfact> 0.12948063E+05</totfact>
</mgrwt>
</event>
<event>
 5    1  0.1270889E+001  0.9020841E+02  0.7546771E-02  0.1302348E+00
         -2   -1    0    0    0  501 -0.00000000000E+00  0.00000000000E+00  0.13049550678E+02  0.13049550678E+02  0.00000000000E+00 0.  1.
          2   -1    0    0  501    0  0.00000000000E+00 -0.00000000000E+00 -0.15589726872E+03  0.15589726872E+03  0.00000000000E+00 0. -1.
         23    2    1    2    0    0  0.00000000000E+00  0.00000000000E+00 -0.14284771805E+03  0.16894681940E+03  0.90208410001E+02 0.  0.
        -13    1    3    3    0    0  0.87638496578E+01  0.44243661043E+02 -0.70885254611E+02  0.84018009526E+02  0.00000000000E+00 0. -1.
         13    1    3    3    0    0 -0.87638496578E+01 -0.44243661043E+02 -0.71962463435E+02  0.84928809876E+02  0.00000000000E+00 0.  1.
<mgrwt>
<rscale>  0 0.90208410E+02</rscale>
<asrwt>0</asrwt>
<pdfrwt beam="2">  1        2 0.23984195E-01 0.90208410E+02</pdfrwt>
<pdfrwt beam="1">  1       -2 0.20076232E-02 0.90208410E+02</pdfrwt>
<totfact> 0.14581959E+05</totfact>
</mgrwt>
</event>
<event>
 5    1  0.1270889E+001  0.1154512E+03  0.7546771E-02  0.1250796E+00
          2   -1    0    0  501    0  0.00000000000E+00  0.00000000000E+00  0.23022982320E+03  0.23022982320E+03  0.00000000000E+00 0. -1.
         -2   -1    0    0    0  501 -0.00000000000E+00 -0.00000000000E+00 -0.14473557468E+02  0.14473557468E+02  0.00000000000E+00 0.  1.
         23    2    1    2    0    0  0.00000000000E+00  0.00000000000E+00  0.21575626573E+03  0.24470338067E+03  0.11545119448E+03 0.  0.
        -11    1    3    3    0    0  0.43300810724E+02 -0.34818645831E+02  0.74705728246E+02  0.93103405628E+02  0.00000000000E+00 0.  1.
         11    1    3    3    0    0 -0.43300810724E+02  0.34818645831E+02  0.14105053749E+03  0.15159997504E+03  0.00000000000E+00 0. -1.
<mgrwt>
<rscale>  0 0.11545119E+03</rscale>
<asrwt>0</asrwt>
<pdfrwt beam="1">  1        2 0.35419970E-01 0.11545119E+03</pdfrwt>
<pdfrwt beam="2">  1       -2 0.22267013E-02 0.11545119E+03</pdfrwt>
<totfact> 0.85635610E+04</totfact>
</mgrwt>
</event>
<event>
 5    1  0.1270889E+001  0.9037903E+02  0.7546771E-02  0.1301936E+00
          3   -1    0    0  501    0  0.00000000000E+00  0.00000000000E+00  0.58120708357E+02  0.58120708357E+02  0.00000000000E+00 0. -1.
         -3   -1    0    0    0  501 -0.00000000000E+00 -0.00000000000E+00 -0.35135367980E+02  0.35135367980E+02  0.00000000000E+00 0.  1.
         23    2    1    2    0    0  0.00000000000E+00  0.00000000000E+00  0.22985340377E+02  0.93256076336E+02  0.90379034634E+02 0.  0.
        -13    1    3    3    0    0 -0.23335072092E+02  0.30076555589E+02  0.36618762767E+02  0.52821005028E+02  0.00000000000E+00 0.  1.
         13    1    3    3    0    0  0.23335072092E+02 -0.30076555589E+02 -0.13633422390E+02  0.40435071308E+02  0.00000000000E+00 0. -1.
<mgrwt>
<rscale>  0 0.90379035E+02</rscale>
<asrwt>0</asrwt>
<pdfrwt beam="1">  1        3 0.89416474E-02 0.90379035E+02</pdfrwt>
<pdfrwt beam="2">  1       -3 0.54054412E-02 0.90379035E+02</pdfrwt>
<totfact> 0.36030309E+04</totfact>
</mgrwt>
</event>
<event>
 5    1  0.1270889E+001  0.9198387E+02  0.7546771E-02  0.1298117E+00
         -3   -1    0    0    0  501 -0.00000000000E+00  0.00000000000E+00  0.19511395462E+02  0.19511395462E+02  0.00000000000E+00 0.  1.
          3   -1    0    0  501    0  0.00000000000E+00 -0.00000000000E+00 -0.10841142945E+03  0.10841142945E+03  0.00000000000E+00 0. -1.
         23    2    1    2    0    0  0.00000000000E+00  0.00000000000E+00 -0.88900033988E+02  0.12792282491E+03  0.91983874078E+02 0.  0.
        -11    1    3    3    0    0 -0.19090383600E+02 -0.37355063644E+02 -0.18231744898E+02  0.45741010569E+02  0.00000000000E+00 0.  1.
         11    1    3    3    0    0  0.19090383600E+02  0.37355063644E+02 -0.70668289089E+02  0.82181814342E+02  0.00000000000E+00 0. -1.
<mgrwt>
<rscale>  0 0.91983874E+02</rscale>
<asrwt>0</asrwt>
<pdfrwt beam="2">  1        3 0.16678681E-01 0.91983874E+02</pdfrwt>
<pdfrwt beam="1">  1       -3 0.30017532E-02 0.91983874E+02</pdfrwt>
<totfact> 0.31938322E+04</totfact>
</mgrwt>
</event>
<event>
 5    1  0.1270889E+001  0.9114950E+02  0.7546771E-02  0.1300092E+00
         -1   -1    0    0    0  501 -0.00000000000E+00  0.00000000000E+00  0.30577344921E+02  0.30577344921E+02  0.00000000000E+00 0.  1.
          1   -1    0    0  501    0  0.00000000000E+00 -0.00000000000E+00 -0.67927999037E+02  0.67927999037E+02  0.00000000000E+00 0. -1.
         23    2    1    2    0    0  0.00000000000E+00  0.00000000000E+00 -0.37350654116E+02  0.98505343959E+02  0.91149500413E+02 0.  0.
        -11    1    3    3    0    0  0.72617029024E+01  0.30820073848E+02  0.16748731437E+02  0.35820794042E+02  0.00000000000E+00 0.  1.
         11    1    3    3    0    0 -0.72617029024E+01 -0.30820073848E+02 -0.54099385553E+02  0.62684549917E+02  0.00000000000E+00 0. -1.
<mgrwt>
<rscale>  0 0.91149500E+02</rscale>
<asrwt>0</asrwt>
<pdfrwt beam="2">  1        1 0.10450461E-01 0.91149500E+02</pdfrwt>
<pdfrwt beam="1">  1       -1 0.47042069E-02 0.91149500E+02</pdfrwt>
<totfact> 0.98292921E+04</totfact>
</mgrwt>
</event>
<event>
 5    1  0.1270889E+001  0.9055076E+02  0.7546771E-02  0.1301523E+00
         -3   -1    0    0    0  501 -0.00000000000E+00  0.00000000000E+00  0.11986843894E+02  0.11986843894E+02  0.00000000000E+00 0.  1.
          3   -1    0    0  501    0  0.00000000000E+00 -0.00000000000E+00 -0.17100916923E+03  0.17100916923E+03  0.00000000000E+00 0. -1.
         23    2    1    2    0    0  0.00000000000E+00  0.00000000000E+00 -0.15902232533E+03  0.18299601312E+03  0.90550764014E+02 0.  0.
        -11    1    3    3    0    0  0.31118856394E+01  0.30285545036E+02 -0.11788805275E+02  0.32647725804E+02  0.00000000000E+00 0.  1.
         11    1    3    3    0    0 -0.31118856394E+01 -0.30285545036E+02 -0.14723352006E+03  0.15034828732E+03  0.00000000000E+00 0. -1.
<mgrwt>
<rscale>  0 0.90550764E+02</rscale>
<asrwt>0</asrwt>
<pdfrwt beam="2">  1        3 0.26309101E-01 0.90550764E+02</pdfrwt>
<pdfrwt beam="1">  1       -3 0.18441299E-02 0.90550764E+02</pdfrwt>
<totfact> 0.29953383E+04</totfact>
</mgrwt>
</event>
<event>
 5    1  0.1270889E+001  0.9163430E+02  0.7546771E-02  0.1298942E+00
         -1   -1    0    0    0  501 -0.00000000000E+00  0.00000000000E+00  0.81298253769E+02  0.81298253769E+02  0.00000000000E+00 0.  1.
          1   -1    0    0  501    0  0.00000000000E+00 -0.00000000000E+00 -0.25821108700E+02  0.25821108700E+02  0.00000000000E+00 0. -1.
         23    2    1    2    0    0  0.00000000000E+00  0.00000000000E+00  0.55477145069E+02  0.10711936247E+03  0.91634295930E+02 0.  0.
        -11    1    3    3    0    0 -0.25309265817E+02 -0.19699392165E+02  0.65987628791E+02  0.73368877198E+02  0.00000000000E+00 0.  1.
         11    1    3    3    0    0  0.25309265817E+02  0.19699392165E+02 -0.10510483722E+02  0.33750485270E+02  0.00000000000E+00 0. -1.
<mgrwt>
<rscale>  0 0.91634296E+02</rscale>
<asrwt>0</asrwt>
<pdfrwt beam="2">  1        1 0.39724783E-02 0.91634296E+02</pdfrwt>
<pdfrwt beam="1">  1       -1 0.12507424E-01 0.91634296E+02</pdfrwt>
<totfact> 0.83343522E+04</totfact>
</mgrwt>
</event>
<event>
 5    1  0.1270889E+001  0.6888294E+02  0.7546771E-02  0.1363933E+00
         -1   -1    0    0    0  501 -0.00000000000E+00  0.00000000000E+00  0.17546141082E+03  0.17546141082E+03  0.00000000000E+00 0.  1.
          1   -1    0    0  501    0  0.00000000000E+00 -0.00000000000E+00 -0.67605457589E+01  0.67605457589E+01  0.00000000000E+00 0. -1.
         23    2    1    2    0    0  0.00000000000E+00  0.00000000000E+00  0.16870086506E+03  0.18222195658E+03  0.68882941191E+02 0.  0.
        -13    1    3    3    0    0 -0.99245042595E+01 -0.31957216199E+02  0.10591567312E+03  0.11107605171E+03  0.00000000000E+00 0. -1.
         13    1    3    3    0    0  0.99245042595E+01  0.31957216199E+02  0.62785191944E+02  0.71145904867E+02  0.00000000000E+00 0.  1.
<mgrwt>
<rscale>  0 0.68882941E+02</rscale>
<asrwt>0</asrwt>
<pdfrwt beam="2">  1        1 0.10400841E-02 0.68882941E+02</pdfrwt>
<pdfrwt beam="1">  1       -1 0.26994060E-01 0.68882941E+02</pdfrwt>
<totfact> 0.14820077E+05</totfact>
</mgrwt>
</event>
<event>
 5    1  0.1270889E+001  0.8893262E+02  0.7546771E-02  0.1305457E+00
          3   -1    0    0  501    0  0.00000000000E+00  0.00000000000E+00  0.22654896882E+02  0.22654896882E+02  0.00000000000E+00 0. -1.
         -3   -1    0    0    0  501 -0.00000000000E+00 -0.00000000000E+00 -0.87277051806E+02  0.87277051806E+02  0.00000000000E+00 0.  1.
         23    2    1    2    0    0  0.00000000000E+00  0.00000000000E+00 -0.64622154925E+02  0.10993194869E+03  0.88932617387E+02 0.  0.
        -13    1    3    3    0    0 -0.65947793542E+01 -0.14530831692E+02 -0.83615776471E+02  0.85124815766E+02  0.00000000000E+00 0.  1.
         13    1    3    3    0    0  0.65947793542E+01  0.14530831692E+02  0.18993621546E+02  0.24807132922E+02  0.00000000000E+00 0. -1.
<mgrwt>
<rscale>  0 0.88932617E+02</rscale>
<asrwt>0</asrwt>
<pdfrwt beam="1">  1        3 0.34853687E-02 0.88932617E+02</pdfrwt>
<pdfrwt beam="2">  1       -3 0.13427239E-01 0.88932617E+02</pdfrwt>
<totfact> 0.36323894E+04</totfact>
</mgrwt>
</event>
<event>
 5    1  0.1270889E+001  0.9389619E+02  0.7546771E-02  0.1293682E+00
          2   -1    0    0  501    0  0.00000000000E+00  0.00000000000E+00  0.17094413619E+02  0.17094413619E+02  0.00000000000E+00 0. -1.
         -2   -1    0    0    0  501 -0.00000000000E+00 -0.00000000000E+00 -0.12893823651E+03  0.12893823651E+03  0.00000000000E+00 0.  1.
         23    2    1    2    0    0  0.00000000000E+00  0.00000000000E+00 -0.11184382289E+03  0.14603265013E+03  0.93896188341E+02 0.  0.
        -11    1    3    3    0    0 -0.44177511195E+01 -0.46315909184E+02 -0.46154259979E+02  0.65535453631E+02  0.00000000000E+00 0. -1.
         11    1    3    3    0    0  0.44177511195E+01  0.46315909184E+02 -0.65689562911E+02  0.80497196497E+02  0.00000000000E+00 0.  1.
<mgrwt>
<rscale>  0 0.93896188E+02</rscale>
<asrwt>0</asrwt>
<pdfrwt beam="1">  1        2 0.26299097E-02 0.93896188E+02</pdfrwt>
<pdfrwt beam="2">  1       -2 0.19836652E-01 0.93896188E+02</pdfrwt>
<totfact> 0.68394649E+04</totfact>
</mgrwt>
</event>
<event>
 5    1  0.1270889E+001  0.9457568E+02  0.7546771E-02  0.1292135E+00
         -1   -1    0    0    0  501 -0.00000000000E+00  0.00000000000E+00  0.56655095940E+02  0.56655095940E+02  0.00000000000E+00 0.  1.
          1   -1    0    0  501    0  0.00000000000E+00 -0.00000000000E+00 -0.39469353782E+02  0.39469353782E+02  0.00000000000E+00 0. -1.
         23    2    1    2    0    0  0.00000000000E+00  0.00000000000E+00  0.17185742158E+02  0.96124449723E+02  0.94575684512E+02 0.  0.
        -11    1    3    3    0    0 -0.36471744094E+02  0.28688217589E+01 -0.21859790193E+02  0.42617703866E+02  0.00000000000E+00 0. -1.
         11    1    3    3    0    0  0.36471744094E+02 -0.28688217589E+01  0.39045532351E+02  0.53506745856E+02  0.00000000000E+00 0.  1.
<mgrwt>
<rscale>  0 0.94575685E+02</rscale>
<asrwt>0</asrwt>
<pdfrwt beam="2">  1        1 0.60722083E-02 0.94575685E+02</pdfrwt>
<pdfrwt beam="1">  1       -1 0.87161686E-02 0.94575685E+02</pdfrwt>
<totfact> 0.81552613E+04</totfact>
</mgrwt>
</event>
<event>
 5    1  0.1270889E+001  0.8738632E+02  0.7546771E-02  0.1309307E+00
         -4   -1    0    0    0  501 -0.00000000000E+00  0.00000000000E+00  0.67985455336E+01  0.67985455336E+01  0.00000000000E+00 0.  1.
          4   -1    0    0  501    0  0.00000000000E+00 -0.00000000000E+00 -0.28080891520E+03  0.28080891520E+03  0.00000000000E+00 0. -1.
         23    2    1    2    0    0  0.00000000000E+00  0.00000000000E+00 -0.27401036966E+03  0.28760746073E+03  0.87386319209E+02 0.  0.
        -13    1    3    3    0    0 -0.22468382059E+02  0.30162010824E+02 -0.21019444562E+03  0.21353285475E+03  0.00000000000E+00 0. -1.
         13    1    3    3    0    0  0.22468382059E+02 -0.30162010824E+02 -0.63815924045E+02  0.74074605980E+02  0.00000000000E+00 0.  1.
<mgrwt>
<rscale>  0 0.87386319E+02</rscale>
<asrwt>0</asrwt>
<pdfrwt beam="2">  1        4 0.43201368E-01 0.87386319E+02</pdfrwt>
<pdfrwt beam="1">  1       -4 0.10459302E-02 0.87386319E+02</pdfrwt>
<totfact> 0.20371736E+04</totfact>
</mgrwt>
</event>
<event>
 5    1  0.1270889E+001  0.9119379E+02  0.7546771E-02  0.1299986E+00
          1   -1    0    0  501    0  0.00000000000E+00  0.00000000000E+00  0.27147098104E+02  0.27147098104E+02  0.00000000000E+00 0. -1.
         -1   -1    0    0    0  501 -0.00000000000E+00 -0.00000000000E+00 -0.76585604537E+02  0.76585604537E+02  0.00000000000E+00 0.  1.
         23    2    1    2    0    0  0.00000000000E+00  0.00000000000E+00 -0.49438506433E+02  0.10373270264E+03  0.91193791888E+02 0.  0.
        -11    1    3    3    0    0 -0.32437720369E+02  0.26866173685E+02 -0.44587394370E+02  0.61335411696E+02  0.00000000000E+00 0.  1.
         11    1    3    3    0    0  0.32437720369E+02 -0.26866173685E+02 -0.48511120633E+01  0.42397290945E+02  0.00000000000E+00 0. -1.
<mgrwt>
<rscale>  0 0.91193792E+02</rscale>
<asrwt>0</asrwt>
<pdfrwt beam="1">  1        1 0.41764768E-02 0.91193792E+02</pdfrwt>
<pdfrwt beam="2">  1       -1 0.11782400E-01 0.91193792E+02</pdfrwt>
<totfact> 0.85231826E+04</totfact>
</mgrwt>
</event>
<event>
 5    1  0.1270889E+001  0.9742450E+02  0.7546771E-02  0.1285807E+00
         -1   -1    0    0    0  501 -0.00000000000E+00  0.00000000000E+00  0.15924232304E+03  0.15924232304E+03  0.00000000000E+00 0.  1.
          1   -1    0    0  501    0  0.00000000000E+00 -0.00000000000E+00 -0.14901084822E+02  0.14901084822E+02  0.00000000000E+00 0. -1.
         23    2    1    2    0    0  0.00000000000E+00  0.00000000000E+00  0.14434123822E+03  0.17414340786E+03  0.97424501290E+02 0.  0.
        -11    1    3    3    0    0 -0.40570530061E+02  0.48031896371E+01  0.24748898452E+02  0.47765536893E+02  0.00000000000E+00 0. -1.
         11    1    3    3    0    0  0.40570530061E+02 -0.48031896371E+01  0.11959233976E+03  0.12637787097E+03  0.00000000000E+00 0.  1.
<mgrwt>
<rscale>  0 0.97424501E+02</rscale>
<asrwt>0</asrwt>
<pdfrwt beam="2">  1        1 0.22924747E-02 0.97424501E+02</pdfrwt>
<pdfrwt beam="1">  1       -1 0.24498818E-01 0.97424501E+02</pdfrwt>
<totfact> 0.62041759E+04</totfact>
</mgrwt>
</event>
<event>
 5    1  0.1270889E+001  0.9235453E+02  0.7546771E-02  0.1297248E+00
          1   -1    0    0  501    0  0.00000000000E+00  0.00000000000E+00  0.94634864799E+01  0.94634864799E+01  0.00000000000E+00 0. -1.
         -1   -1    0    0    0  501 -0.00000000000E+00 -0.00000000000E+00 -0.22532285268E+03  0.22532285268E+03  0.00000000000E+00 0.  1.
         23    2    1    2    0    0  0.00000000000E+00  0.00000000000E+00 -0.21585936620E+03  0.23478633916E+03  0.92354529287E+02 0.  0.
        -13    1    3    3    0    0  0.18739497399E+02  0.26744449422E+02 -0.19092889390E+03  0.19370151487E+03  0.00000000000E+00 0.  1.
         13    1    3    3    0    0 -0.18739497399E+02 -0.26744449422E+02 -0.24930472299E+02  0.41084824287E+02  0.00000000000E+00 0. -1.
<mgrwt>
<rscale>  0 0.92354529E+02</rscale>
<asrwt>0</asrwt>
<pdfrwt beam="1">  1        1 0.14559212E-02 0.92354529E+02</pdfrwt>
<pdfrwt beam="2">  1       -1 0.34665051E-01 0.92354529E+02</pdfrwt>
<totfact> 0.64784804E+04</totfact>
</mgrwt>
</event>
<event>
 5    1  0.1270889E+001  0.9361702E+02  0.7546771E-02  0.1294322E+00
          2   -1    0    0  501    0  0.00000000000E+00  0.00000000000E+00  0.62107813447E+01  0.62107813447E+01  0.00000000000E+00 0. -1.
         -2   -1    0    0    0  501 -0.00000000000E+00 -0.00000000000E+00 -0.35277952533E+03  0.35277952533E+03  0.00000000000E+00 0.  1.
         23    2    1    2    0    0  0.00000000000E+00  0.00000000000E+00 -0.34656874398E+03  0.35899030667E+03  0.93617017571E+02 0.  0.
        -11    1    3    3    0    0 -0.43753419974E+02  0.69378047176E+01 -0.23125534014E+03  0.23546024555E+03  0.00000000000E+00 0.  1.
         11    1    3    3    0    0  0.43753419974E+02 -0.69378047176E+01 -0.11531340384E+03  0.12353006112E+03  0.00000000000E+00 0. -1.
<mgrwt>
<rscale>  0 0.93617018E+02</rscale>
<asrwt>0</asrwt>
<pdfrwt beam="1">  1        2 0.95550467E-03 0.93617018E+02</pdfrwt>
<pdfrwt beam="2">  1       -2 0.54273782E-01 0.93617018E+02</pdfrwt>
<totfact> 0.43270258E+04</totfact>
</mgrwt>
</event>
<event>
 5    1  0.1270889E+001  0.9277160E+02  0.7546771E-02  0.1296275E+00
         -1   -1    0    0    0  501 -0.00000000000E+00  0.00000000000E+00  0.84102798943E+02  0.84102798943E+02  0.00000000000E+00 0.  1.
          1   -1    0    0  501    0  0.00000000000E+00 -0.00000000000E+00 -0.25583483073E+02  0.25583483073E+02  0.00000000000E+00 0. -1.
         23    2    1    2    0    0  0.00000000000E+00  0.00000000000E+00  0.58519315870E+02  0.10968628202E+03  0.92771601973E+02 0.  0.
        -11    1    3    3    0    0 -0.32859086191E+02  0.29488500412E+02  0.46078275394E+02  0.63816131700E+02  0.00000000000E+00 0.  1.
         11    1    3    3    0    0  0.32859086191E+02 -0.29488500412E+02  0.12441040476E+02  0.45870150316E+02  0.00000000000E+00 0. -1.
<mgrwt>
<rscale>  0 0.92771602E+02</rscale>
<asrwt>0</asrwt>
<pdfrwt beam="2">  1        1 0.39359205E-02 0.92771602E+02</pdfrwt>
<pdfrwt beam="1">  1       -1 0.12938892E-01 0.92771602E+02</pdfrwt>
<totfact> 0.80277691E+04</totfact>
</mgrwt>
</event>
<event>
 5    1  0.1270889E+001  0.9167820E+02  0.7546771E-02  0.1298838E+00
         -1   -1    0    0    0  501 -0.00000000000E+00  0.00000000000E+00  0.18987843225E+02  0.18987843225E+02  0.00000000000E+00 0.  1.
          1   -1    0    0  501    0  0.00000000000E+00 -0.00000000000E+00 -0.11066149702E+03  0.11066149702E+03  0.00000000000E+00 0. -1.
         23    2    1    2    0    0  0.00000000000E+00  0.00000000000E+00 -0.91673653794E+02  0.12964934024E+03  0.91678201474E+02 0.  0.
        -13    1    3    3    0    0 -0.35256237123E+02  0.19546754072E+02 -0.14978386007E+02  0.43004998525E+02  0.00000000000E+00 0.  1.
         13    1    3    3    0    0  0.35256237123E+02 -0.19546754072E+02 -0.76695267787E+02  0.86644341718E+02  0.00000000000E+00 0. -1.
<mgrwt>
<rscale>  0 0.91678201E+02</rscale>
<asrwt>0</asrwt>
<pdfrwt beam="2">  1        1 0.17024846E-01 0.91678201E+02</pdfrwt>
<pdfrwt beam="1">  1       -1 0.29212066E-02 0.91678201E+02</pdfrwt>
<totfact> 0.10467424E+05</totfact>
</mgrwt>
</event>
<event>
 5    1  0.1270889E+001  0.9163613E+02  0.7546771E-02  0.1298937E+00
         -1   -1    0    0    0  501 -0.00000000000E+00  0.00000000000E+00  0.18746603542E+02  0.18746603542E+02  0.00000000000E+00 0.  1.
          1   -1    0    0  501    0  0.00000000000E+00 -0.00000000000E+00 -0.11198269687E+03  0.11198269687E+03  0.00000000000E+00 0. -1.
         23    2    1    2    0    0  0.00000000000E+00  0.00000000000E+00 -0.93236093329E+02  0.13072930041E+03  0.91636133089E+02 0.  0.
        -13    1    3    3    0    0 -0.24061647077E+02  0.19035485381E+02  0.19283735195E+01  0.30741359570E+02  0.00000000000E+00 0.  1.
         13    1    3    3    0    0  0.24061647077E+02 -0.19035485381E+02 -0.95164466849E+02  0.99987940845E+02  0.00000000000E+00 0. -1.
<mgrwt>
<rscale>  0 0.91636133E+02</rscale>
<asrwt>0</asrwt>
<pdfrwt beam="2">  1        1 0.17228107E-01 0.91636133E+02</pdfrwt>
<pdfrwt beam="1">  1       -1 0.28840929E-02 0.91636133E+02</pdfrwt>
<totfact> 0.10501788E+05</totfact>
</mgrwt>
</event>
<event>
 5    1  0.1270889E+001  0.9194454E+02  0.7546771E-02  0.1298210E+00
          1   -1    0    0  501    0  0.00000000000E+00  0.00000000000E+00  0.26019218129E+02  0.26019218129E+02  0.00000000000E+00 0. -1.
         -1   -1    0    0    0  501 -0.00000000000E+00 -0.00000000000E+00 -0.81226489799E+02  0.81226489799E+02  0.00000000000E+00 0.  1.
         23    2    1    2    0    0  0.00000000000E+00  0.00000000000E+00 -0.55207271670E+02  0.10724570793E+03  0.91944543197E+02 0.  0.
        -13    1    3    3    0    0 -0.13407902983E+02 -0.23143586984E+02  0.16009334512E+02  0.31172043122E+02  0.00000000000E+00 0. -1.
         13    1    3    3    0    0  0.13407902983E+02  0.23143586984E+02 -0.71216606182E+02  0.76073664806E+02  0.00000000000E+00 0.  1.
<mgrwt>
<rscale>  0 0.91944543E+02</rscale>
<asrwt>0</asrwt>
<pdfrwt beam="1">  1        1 0.40029567E-02 0.91944543E+02</pdfrwt>
<pdfrwt beam="2">  1       -1 0.12496383E-01 0.91944543E+02</pdfrwt>
<totfact> 0.82636806E+04</totfact>
</mgrwt>
</event>
<event>
 5    1  0.1270889E+001  0.9056480E+02  0.7546771E-02  0.1301490E+00
          1   -1    0    0  501    0  0.00000000000E+00  0.00000000000E+00  0.47916739389E+02  0.47916739389E+02  0.00000000000E+00 0.  1.
         -1   -1    0    0    0  501 -0.00000000000E+00 -0.00000000000E+00 -0.42792892469E+02  0.42792892469E+02  0.00000000000E+00 0. -1.
         23    2    1    2    0    0  0.00000000000E+00  0.00000000000E+00  0.51238469209E+01  0.90709631858E+02  0.90564802791E+02 0.  0.
        -13    1    3    3    0    0 -0.11154903918E+02 -0.41386603524E+02 -0.12063243859E+02  0.44528695075E+02  0.00000000000E+00 0. -1.
         13    1    3    3    0    0  0.11154903918E+02  0.41386603524E+02  0.17187090779E+02  0.46180936783E+02  0.00000000000E+00 0.  1.
<mgrwt>
<rscale>  0 0.90564803E+02</rscale>
<asrwt>0</asrwt>
<pdfrwt beam="1">  1        1 0.73718061E-02 0.90564803E+02</pdfrwt>
<pdfrwt beam="2">  1       -1 0.65835219E-02 0.90564803E+02</pdfrwt>
<totfact> 0.94938929E+04</totfact>
</mgrwt>
</event>
<event>
 5    1  0.1270889E+001  0.9087177E+02  0.7546771E-02  0.1300754E+00
         -3   -1    0    0    0  501 -0.00000000000E+00  0.00000000000E+00  0.70969492348E+02  0.70969492348E+02  0.00000000000E+00 0.  1.
          3   -1    0    0  501    0  0.00000000000E+00 -0.00000000000E+00 -0.29088834849E+02  0.29088834849E+02  0.00000000000E+00 0. -1.
         23    2    1    2    0    0  0.00000000000E+00  0.00000000000E+00  0.41880657499E+02  0.10005832720E+03  0.90871774325E+02 0.  0.
        -11    1    3    3    0    0  0.23222964633E+02 -0.12841710674E+02  0.61549702239E+02  0.67026722023E+02  0.00000000000E+00 0.  1.
         11    1    3    3    0    0 -0.23222964633E+02  0.12841710674E+02 -0.19669044740E+02  0.33031605174E+02  0.00000000000E+00 0. -1.
<mgrwt>
<rscale>  0 0.90871774E+02</rscale>
<asrwt>0</asrwt>
<pdfrwt beam="2">  1        3 0.44752054E-02 0.90871774E+02</pdfrwt>
<pdfrwt beam="1">  1       -3 0.10918383E-01 0.90871774E+02</pdfrwt>
<totfact> 0.34985677E+04</totfact>
</mgrwt>
</event>
<event>
 5    1  0.1270889E+001  0.9257863E+02  0.7546771E-02  0.1296725E+00
          2   -1    0    0  501    0  0.00000000000E+00  0.00000000000E+00  0.42147871077E+02  0.42147871077E+02  0.00000000000E+00 0. -1.
         -2   -1    0    0    0  501 -0.00000000000E+00 -0.00000000000E+00 -0.50837696635E+02  0.50837696635E+02  0.00000000000E+00 0.  1.
         23    2    1    2    0    0  0.00000000000E+00  0.00000000000E+00 -0.86898255574E+01  0.92985567712E+02  0.92578630010E+02 0.  0.
        -11    1    3    3    0    0  0.20655807252E+02 -0.31732788739E+02  0.22400473319E+02  0.43993334260E+02  0.00000000000E+00 0. -1.
         11    1    3    3    0    0 -0.20655807252E+02  0.31732788739E+02 -0.31090298877E+02  0.48992233452E+02  0.00000000000E+00 0.  1.
<mgrwt>
<rscale>  0 0.92578630E+02</rscale>
<asrwt>0</asrwt>
<pdfrwt beam="1">  1        2 0.64842879E-02 0.92578630E+02</pdfrwt>
<pdfrwt beam="2">  1       -2 0.78211841E-02 0.92578630E+02</pdfrwt>
<totfact> 0.92513519E+04</totfact>
</mgrwt>
</event>
<event>
 5    1  0.1270889E+001  0.9165165E+02  0.7546771E-02  0.1298901E+00
         -3   -1    0    0    0  501 -0.00000000000E+00  0.00000000000E+00  0.25151249677E+03  0.25151249677E+03  0.00000000000E+00 0.  1.
          3   -1    0    0  501    0  0.00000000000E+00 -0.00000000000E+00 -0.83495102921E+01  0.83495102921E+01  0.00000000000E+00 0. -1.
         23    2    1    2    0    0  0.00000000000E+00  0.00000000000E+00  0.24316298647E+03  0.25986200706E+03  0.91651648765E+02 0.  0.
        -11    1    3    3    0    0  0.33985022672E+02 -0.16045760421E+02  0.19592741870E+03  0.19949937743E+03  0.00000000000E+00 0.  1.
         11    1    3    3    0    0 -0.33985022672E+02  0.16045760421E+02  0.47235567770E+02  0.60362629632E+02  0.00000000000E+00 0. -1.
<mgrwt>
<rscale>  0 0.91651649E+02</rscale>
<asrwt>0</asrwt>
<pdfrwt beam="2">  1        3 0.12845402E-02 0.91651649E+02</pdfrwt>
<pdfrwt beam="1">  1       -3 0.38694225E-01 0.91651649E+02</pdfrwt>
<totfact> 0.25310425E+04</totfact>
</mgrwt>
</event>
<event>
 5    1  0.1270889E+001  0.9182774E+02  0.7546771E-02  0.1298485E+00
          1   -1    0    0  501    0  0.00000000000E+00  0.00000000000E+00  0.13144731555E+03  0.13144731555E+03  0.00000000000E+00 0. -1.
         -1   -1    0    0    0  501 -0.00000000000E+00 -0.00000000000E+00 -0.16037479264E+02  0.16037479264E+02  0.00000000000E+00 0.  1.
         23    2    1    2    0    0  0.00000000000E+00  0.00000000000E+00  0.11540983629E+03  0.14748479482E+03  0.91827743028E+02 0.  0.
        -11    1    3    3    0    0  0.19360724964E+02 -0.40045282489E+02  0.75990613727E+02  0.88051324211E+02  0.00000000000E+00 0.  1.
         11    1    3    3    0    0 -0.19360724964E+02  0.40045282489E+02  0.39419222563E+02  0.59433470605E+02  0.00000000000E+00 0. -1.
<mgrwt>
<rscale>  0 0.91827743E+02</rscale>
<asrwt>0</asrwt>
<pdfrwt beam="1">  1        1 0.20222663E-01 0.91827743E+02</pdfrwt>
<pdfrwt beam="2">  1       -1 0.24673046E-02 0.91827743E+02</pdfrwt>
<totfact> 0.10739276E+05</totfact>
</mgrwt>
</event>
<event>
 5    1  0.1270889E+001  0.9089666E+02  0.7546771E-02  0.1300695E+00
          2   -1    0    0  501    0  0.00000000000E+00  0.00000000000E+00  0.15515242730E+02  0.15515242730E+02  0.00000000000E+00 0. -1.
         -2   -1    0    0    0  501 -0.00000000000E+00 -0.00000000000E+00 -0.13313042558E+03  0.13313042558E+03  0.00000000000E+00 0.  1.
         23    2    1    2    0    0  0.00000000000E+00  0.00000000000E+00 -0.11761518285E+03  0.14864566831E+03  0.90896663694E+02 0.  0.
        -13    1    3    3    0    0  0.19664562690E+02 -0.21880411867E+02 -0.11545938334E+03  0.11914829689E+03  0.00000000000E+00 0.  1.
         13    1    3    3    0    0 -0.19664562690E+02  0.21880411867E+02 -0.21557995049E+01  0.29497371421E+02  0.00000000000E+00 0. -1.
<mgrwt>
<rscale>  0 0.90896664E+02</rscale>
<asrwt>0</asrwt>
<pdfrwt beam="1">  1        2 0.23869604E-02 0.90896664E+02</pdfrwt>
<pdfrwt beam="2">  1       -2 0.20481604E-01 0.90896664E+02</pdfrwt>
<totfact> 0.73424501E+04</totfact>
</mgrwt>
</event>
<event>
 5    1  0.1270889E+001  0.9198632E+02  0.7546771E-02  0.1298112E+00
         -2   -1    0    0    0  501 -0.00000000000E+00  0.00000000000E+00  0.16131679797E+03  0.16131679797E+03  0.00000000000E+00 0.  1.
          2   -1    0    0  501    0  0.00000000000E+00 -0.00000000000E+00 -0.13113146206E+02  0.13113146206E+02  0.00000000000E+00 0. -1.
         23    2    1    2    0    0  0.00000000000E+00  0.00000000000E+00  0.14820365177E+03  0.17442994418E+03  0.91986319795E+02 0.  0.
        -11    1    3    3    0    0 -0.32545251273E+02  0.32423280736E+02  0.78302904765E+02  0.90784400690E+02  0.00000000000E+00 0. -1.
         11    1    3    3    0    0  0.32545251273E+02 -0.32423280736E+02  0.69900747002E+02  0.83645543489E+02  0.00000000000E+00 0.  1.
<mgrwt>
<rscale>  0 0.91986320E+02</rscale>
<asrwt>0</asrwt>
<pdfrwt beam="2">  1        2 0.20174072E-02 0.91986320E+02</pdfrwt>
<pdfrwt beam="1">  1       -2 0.24817967E-01 0.91986320E+02</pdfrwt>
<totfact> 0.66483976E+04</totfact>
</mgrwt>
</event>
<event>
 5    1  0.1270889E+001  0.9284919E+02  0.7546771E-02  0.1296095E+00
         -2   -1    0    0    0  501 -0.00000000000E+00  0.00000000000E+00  0.21894267892E+03  0.21894267892E+03  0.00000000000E+00 0.  1.
          2   -1    0    0  501    0  0.00000000000E+00 -0.00000000000E+00 -0.98438679509E+01  0.98438679509E+01  0.00000000000E+00 0. -1.
         23    2    1    2    0    0  0.00000000000E+00  0.00000000000E+00  0.20909881097E+03  0.22878654687E+03  0.92849185675E+02 0.  0.
        -13    1    3    3    0    0  0.30135349849E+02 -0.13900999000E+02  0.18454112393E+03  0.18750147600E+03  0.00000000000E+00 0.  1.
         13    1    3    3    0    0 -0.30135349849E+02  0.13900999000E+02  0.24557687045E+02  0.41285070870E+02  0.00000000000E+00 0. -1.
<mgrwt>
<rscale>  0 0.92849186E+02</rscale>
<asrwt>0</asrwt>
<pdfrwt beam="2">  1        2 0.15144414E-02 0.92849186E+02</pdfrwt>
<pdfrwt beam="1">  1       -2 0.33683485E-01 0.92849186E+02</pdfrwt>
<totfact> 0.57133325E+04</totfact>
</mgrwt>
</event>
<event>
 5    1  0.1270889E+001  0.9084195E+02  0.7546771E-02  0.1300826E+00
          2   -1    0    0  501    0  0.00000000000E+00  0.00000000000E+00  0.41315085348E+02  0.41315085348E+02  0.00000000000E+00 0. -1.
         -2   -1    0    0    0  501 -0.00000000000E+00 -0.00000000000E+00 -0.49934902945E+02  0.49934902945E+02  0.00000000000E+00 0.  1.
         23    2    1    2    0    0  0.00000000000E+00  0.00000000000E+00 -0.86198175973E+01  0.91249988292E+02  0.90841945752E+02 0.  0.
        -11    1    3    3    0    0  0.15297235253E+02 -0.39413166165E+02  0.12367731676E+02  0.44049561409E+02  0.00000000000E+00 0.  1.
         11    1    3    3    0    0 -0.15297235253E+02  0.39413166165E+02 -0.20987549273E+02  0.47200426884E+02  0.00000000000E+00 0. -1.
<mgrwt>
<rscale>  0 0.90841946E+02</rscale>
<asrwt>0</asrwt>
<pdfrwt beam="1">  1        2 0.63561670E-02 0.90841946E+02</pdfrwt>
<pdfrwt beam="2">  1       -2 0.76822928E-02 0.90841946E+02</pdfrwt>
<totfact> 0.97218116E+04</totfact>
</mgrwt>
</event>
<event>
 5    1  0.1270889E+001  0.9021017E+02  0.7546771E-02  0.1302344E+00
         -1   -1    0    0    0  501 -0.00000000000E+00  0.00000000000E+00  0.79077697927E+01  0.79077697927E+01  0.00000000000E+00 0.  1.
          1   -1    0    0  501    0  0.00000000000E+00 -0.00000000000E+00 -0.25727465676E+03  0.25727465676E+03  0.00000000000E+00 0. -1.
         23    2    1    2    0    0  0.00000000000E+00  0.00000000000E+00 -0.24936688697E+03  0.26518242656E+03  0.90210171470E+02 0.  0.
        -11    1    3    3    0    0 -0.23237078206E+02  0.32070275763E+02 -0.61225758305E+02  0.72918158720E+02  0.00000000000E+00 0.  1.
         11    1    3    3    0    0  0.23237078206E+02 -0.32070275763E+02 -0.18814112866E+03  0.19226426784E+03  0.00000000000E+00 0. -1.
<mgrwt>
<rscale>  0 0.90210171E+02</rscale>
<asrwt>0</asrwt>
<pdfrwt beam="2">  1        1 0.39580712E-01 0.90210171E+02</pdfrwt>
<pdfrwt beam="1">  1       -1 0.12165801E-02 0.90210171E+02</pdfrwt>
<totfact> 0.12794936E+05</totfact>
</mgrwt>
</event>
<event>
 5    1  0.1270889E+001  0.8809041E+02  0.7546771E-02  0.1307543E+00
          2   -1    0    0  501    0  0.00000000000E+00  0.00000000000E+00  0.30228426801E+03  0.30228426801E+03  0.00000000000E+00 0. -1.
         -2   -1    0    0    0  501 -0.00000000000E+00 -0.00000000000E+00 -0.64177343506E+01  0.64177343506E+01  0.00000000000E+00 0.  1.
         23    2    1    2    0    0  0.00000000000E+00  0.00000000000E+00  0.29586653366E+03  0.30870200236E+03  0.88090411067E+02 0.  0.
        -11    1    3    3    0    0  0.33805628014E+02 -0.19408837626E+02  0.21979065565E+03  0.22322064370E+03  0.00000000000E+00 0. -1.
         11    1    3    3    0    0 -0.33805628014E+02  0.19408837626E+02  0.76075878017E+02  0.85481358667E+02  0.00000000000E+00 0.  1.
<mgrwt>
<rscale>  0 0.88090411E+02</rscale>
<asrwt>0</asrwt>
<pdfrwt beam="1">  1        2 0.46505261E-01 0.88090411E+02</pdfrwt>
<pdfrwt beam="2">  1       -2 0.98734398E-03 0.88090411E+02</pdfrwt>
<totfact> 0.19746038E+05</totfact>
</mgrwt>
</event>
<event>
 5    1  0.1270889E+001  0.9129800E+02  0.7546771E-02  0.1299739E+00
         -2   -1    0    0    0  501 -0.00000000000E+00  0.00000000000E+00  0.14503141780E+03  0.14503141780E+03  0.00000000000E+00 0.  1.
          2   -1    0    0  501    0  0.00000000000E+00 -0.00000000000E+00 -0.14368135768E+02  0.14368135768E+02  0.00000000000E+00 0. -1.
         23    2    1    2    0    0  0.00000000000E+00  0.00000000000E+00  0.13066328203E+03  0.15939955356E+03  0.91297997822E+02 0.  0.
        -11    1    3    3    0    0 -0.50173492248E+01 -0.38613353341E+02  0.23733647272E+02  0.45600996287E+02  0.00000000000E+00 0. -1.
         11    1    3    3    0    0  0.50173492248E+01  0.38613353341E+02  0.10692963476E+03  0.11379855728E+03  0.00000000000E+00 0.  1.
<mgrwt>
<rscale>  0 0.91297998E+02</rscale>
<asrwt>0</asrwt>
<pdfrwt beam="2">  1        2 0.22104825E-02 0.91297998E+02</pdfrwt>
<pdfrwt beam="1">  1       -2 0.22312525E-01 0.91297998E+02</pdfrwt>
<totfact> 0.70473217E+04</totfact>
</mgrwt>
</event>
<event>
 5    1  0.1270889E+001  0.8322920E+02  0.7546771E-02  0.1320129E+00
         -1   -1    0    0    0  501 -0.00000000000E+00  0.00000000000E+00  0.82261804296E+02  0.82261804296E+02  0.00000000000E+00 0.  1.
          1   -1    0    0  501    0  0.00000000000E+00 -0.00000000000E+00 -0.21051994580E+02  0.21051994580E+02  0.00000000000E+00 0. -1.
         23    2    1    2    0    0  0.00000000000E+00  0.00000000000E+00  0.61209809717E+02  0.10331379888E+03  0.83229203004E+02 0.  0.
        -11    1    3    3    0    0  0.29107662257E+01 -0.26482615432E+02  0.70287715894E+02  0.75167576026E+02  0.00000000000E+00 0.  1.
         11    1    3    3    0    0 -0.29107662257E+01  0.26482615432E+02 -0.90779061771E+01  0.28146222849E+02  0.00000000000E+00 0. -1.
<mgrwt>
<rscale>  0 0.83229203E+02</rscale>
<asrwt>0</asrwt>
<pdfrwt beam="2">  1        1 0.32387684E-02 0.83229203E+02</pdfrwt>
<pdfrwt beam="1">  1       -1 0.12655662E-01 0.83229203E+02</pdfrwt>
<totfact> 0.10637785E+05</totfact>
</mgrwt>
</event>
<event>
 5    1  0.1270889E+001  0.9159020E+02  0.7546771E-02  0.1299046E+00
          3   -1    0    0  501    0  0.00000000000E+00  0.00000000000E+00  0.96753227334E+02  0.96753227334E+02  0.00000000000E+00 0. -1.
         -3   -1    0    0    0  501 -0.00000000000E+00 -0.00000000000E+00 -0.21675671877E+02  0.21675671877E+02  0.00000000000E+00 0.  1.
         23    2    1    2    0    0  0.00000000000E+00  0.00000000000E+00  0.75077555458E+02  0.11842889921E+03  0.91590200539E+02 0.  0.
        -13    1    3    3    0    0  0.22958566729E+02  0.36474211805E+00  0.88772192879E+02  0.91693680544E+02  0.00000000000E+00 0. -1.
         13    1    3    3    0    0 -0.22958566729E+02 -0.36474211805E+00 -0.13694637422E+02  0.26735218667E+02  0.00000000000E+00 0.  1.
<mgrwt>
<rscale>  0 0.91590201E+02</rscale>
<asrwt>0</asrwt>
<pdfrwt beam="1">  1        3 0.14885112E-01 0.91590201E+02</pdfrwt>
<pdfrwt beam="2">  1       -3 0.33347188E-02 0.91590201E+02</pdfrwt>
<totfact> 0.32945996E+04</totfact>
</mgrwt>
</event>
<event>
 5    1  0.1270889E+001  0.9131418E+02  0.7546771E-02  0.1299700E+00
          2   -1    0    0  501    0  0.00000000000E+00  0.00000000000E+00  0.95687158335E+02  0.95687158335E+02  0.00000000000E+00 0. -1.
         -2   -1    0    0    0  501 -0.00000000000E+00 -0.00000000000E+00 -0.21785262146E+02  0.21785262146E+02  0.00000000000E+00 0.  1.
         23    2    1    2    0    0  0.00000000000E+00  0.00000000000E+00  0.73901896188E+02  0.11747242048E+03  0.91314179147E+02 0.  0.
        -13    1    3    3    0    0  0.10827771511E+02  0.21382196118E+02 -0.13041567678E+02  0.27285920073E+02  0.00000000000E+00 0.  1.
         13    1    3    3    0    0 -0.10827771511E+02 -0.21382196118E+02  0.86943463867E+02  0.90186500408E+02  0.00000000000E+00 0. -1.
<mgrwt>
<rscale>  0 0.91314179E+02</rscale>
<asrwt>0</asrwt>
<pdfrwt beam="1">  1        2 0.14721101E-01 0.91314179E+02</pdfrwt>
<pdfrwt beam="2">  1       -2 0.33515788E-02 0.91314179E+02</pdfrwt>
<totfact> 0.12054833E+05</totfact>
</mgrwt>
</event>
<event>
 5    1  0.1270889E+001  0.9271019E+02  0.7546771E-02  0.1296418E+00
          2   -1    0    0  501    0  0.00000000000E+00  0.00000000000E+00  0.37223919058E+03  0.37223919058E+03  0.00000000000E+00 0. -1.
         -2   -1    0    0    0  501 -0.00000000000E+00 -0.00000000000E+00 -0.57726185443E+01  0.57726185443E+01  0.00000000000E+00 0.  1.
         23    2    1    2    0    0  0.00000000000E+00  0.00000000000E+00  0.36646657204E+03  0.37801180912E+03  0.92710190475E+02 0.  0.
        -11    1    3    3    0    0  0.43584833827E+02 -0.14195027577E+02  0.15508530831E+03  0.16171762242E+03  0.00000000000E+00 0.  1.
         11    1    3    3    0    0 -0.43584833827E+02  0.14195027577E+02  0.21138126373E+03  0.21629418670E+03  0.00000000000E+00 0. -1.
<mgrwt>
<rscale>  0 0.92710190E+02</rscale>
<asrwt>0</asrwt>
<pdfrwt beam="1">  1        2 0.57267549E-01 0.92710190E+02</pdfrwt>
<pdfrwt beam="2">  1       -2 0.88809545E-03 0.92710190E+02</pdfrwt>
<totfact> 0.18606435E+05</totfact>
</mgrwt>
</event>
<event>
 5    1  0.1270889E+001  0.8990795E+02  0.7546771E-02  0.1303075E+00
         -1   -1    0    0    0  501 -0.00000000000E+00  0.00000000000E+00  0.33775569549E+02  0.33775569549E+02  0.00000000000E+00 0.  1.
          1   -1    0    0  501    0  0.00000000000E+00 -0.00000000000E+00 -0.59832001297E+02  0.59832001297E+02  0.00000000000E+00 0. -1.
         23    2    1    2    0    0  0.00000000000E+00  0.00000000000E+00 -0.26056431749E+02  0.93607570846E+02  0.89907951173E+02 0.  0.
        -13    1    3    3    0    0 -0.22596305842E+02 -0.69414539191E+01  0.26782400616E+02  0.35722175227E+02  0.00000000000E+00 0.  1.
         13    1    3    3    0    0  0.22596305842E+02  0.69414539191E+01 -0.52838832365E+02  0.57885395619E+02  0.00000000000E+00 0. -1.
<mgrwt>
<rscale>  0 0.89907951E+02</rscale>
<asrwt>0</asrwt>
<pdfrwt beam="2">  1        1 0.92049232E-02 0.89907951E+02</pdfrwt>
<pdfrwt beam="1">  1       -1 0.51962415E-02 0.89907951E+02</pdfrwt>
<totfact> 0.10014213E+05</totfact>
</mgrwt>
</event>
<event>
 5    1  0.1270889E+001  0.9144667E+02  0.7546771E-02  0.1299386E+00
          2   -1    0    0  501    0  0.00000000000E+00  0.00000000000E+00  0.30027849250E+02  0.30027849250E+02  0.00000000000E+00 0. -1.
         -2   -1    0    0    0  501 -0.00000000000E+00 -0.00000000000E+00 -0.69622812438E+02  0.69622812438E+02  0.00000000000E+00 0.  1.
         23    2    1    2    0    0  0.00000000000E+00  0.00000000000E+00 -0.39594963187E+02  0.99650661688E+02  0.91446668967E+02 0.  0.
        -13    1    3    3    0    0  0.28520247081E+02  0.14769555991E+02 -0.55260564107E+02  0.63916149940E+02  0.00000000000E+00 0.  1.
         13    1    3    3    0    0 -0.28520247081E+02 -0.14769555991E+02  0.15665600919E+02  0.35734511748E+02  0.00000000000E+00 0. -1.
<mgrwt>
<rscale>  0 0.91446669E+02</rscale>
<asrwt>0</asrwt>
<pdfrwt beam="1">  1        2 0.46196691E-02 0.91446669E+02</pdfrwt>
<pdfrwt beam="2">  1       -2 0.10711202E-01 0.91446669E+02</pdfrwt>
<totfact> 0.87714371E+04</totfact>
</mgrwt>
</event>
<event>
 5    1  0.1270889E+001  0.7598368E+02  0.7546771E-02  0.1340852E+00
          2   -1    0    0  501    0  0.00000000000E+00  0.00000000000E+00  0.24925464824E+02  0.24925464824E+02  0.00000000000E+00 0. -1.
         -2   -1    0    0    0  501 -0.00000000000E+00 -0.00000000000E+00 -0.57907850429E+02  0.57907850429E+02  0.00000000000E+00 0.  1.
         23    2    1    2    0    0  0.00000000000E+00  0.00000000000E+00 -0.32982385605E+02  0.82833315253E+02  0.75983684798E+02 0.  0.
        -13    1    3    3    0    0 -0.12773906788E+02  0.29391063005E+02 -0.38735857992E+02  0.50273989036E+02  0.00000000000E+00 0.  1.
         13    1    3    3    0    0  0.12773906788E+02 -0.29391063005E+02  0.57534723869E+01  0.32559326217E+02  0.00000000000E+00 0. -1.
<mgrwt>
<rscale>  0 0.75983685E+02</rscale>
<asrwt>0</asrwt>
<pdfrwt beam="1">  1        2 0.38346869E-02 0.75983685E+02</pdfrwt>
<pdfrwt beam="2">  1       -2 0.89089000E-02 0.75983685E+02</pdfrwt>
<totfact> 0.14400420E+05</totfact>
</mgrwt>
</event>
<event>
 5    1  0.1270889E+001  0.8596453E+02  0.7546771E-02  0.1312929E+00
          2   -1    0    0  501    0  0.00000000000E+00  0.00000000000E+00  0.11559659098E+02  0.11559659098E+02  0.00000000000E+00 0. -1.
         -2   -1    0    0    0  501 -0.00000000000E+00 -0.00000000000E+00 -0.15982090808E+03  0.15982090808E+03  0.00000000000E+00 0.  1.
         23    2    1    2    0    0  0.00000000000E+00  0.00000000000E+00 -0.14826124898E+03  0.17138056718E+03  0.85964532550E+02 0.  0.
        -11    1    3    3    0    0 -0.22020563914E+02  0.28404659519E+02 -0.12112871007E+03  0.12634830557E+03  0.00000000000E+00 0.  1.
         11    1    3    3    0    0  0.22020563914E+02 -0.28404659519E+02 -0.27132538908E+02  0.45032261603E+02  0.00000000000E+00 0. -1.
<mgrwt>
<rscale>  0 0.85964533E+02</rscale>
<asrwt>0</asrwt>
<pdfrwt beam="1">  1        2 0.17784092E-02 0.85964533E+02</pdfrwt>
<pdfrwt beam="2">  1       -2 0.24587830E-01 0.85964533E+02</pdfrwt>
<totfact> 0.79208199E+04</totfact>
</mgrwt>
</event>
<event>
 5    1  0.1270889E+001  0.9605826E+02  0.7546771E-02  0.1288810E+00
         -2   -1    0    0    0  501 -0.00000000000E+00  0.00000000000E+00  0.66738039034E+02  0.66738039034E+02  0.00000000000E+00 0.  1.
          2   -1    0    0  501    0  0.00000000000E+00 -0.00000000000E+00 -0.34564956366E+02  0.34564956366E+02  0.00000000000E+00 0. -1.
         23    2    1    2    0    0  0.00000000000E+00  0.00000000000E+00  0.32173082669E+02  0.10130299540E+03  0.96058261637E+02 0.  0.
        -11    1    3    3    0    0  0.17968773331E+02 -0.21629258271E+02  0.57149561031E+02  0.63692809283E+02  0.00000000000E+00 0.  1.
         11    1    3    3    0    0 -0.17968773331E+02  0.21629258271E+02 -0.24976478362E+02  0.37610186117E+02  0.00000000000E+00 0. -1.
<mgrwt>
<rscale>  0 0.96058262E+02</rscale>
<asrwt>0</asrwt>
<pdfrwt beam="2">  1        2 0.53176856E-02 0.96058262E+02</pdfrwt>
<pdfrwt beam="1">  1       -2 0.10267391E-01 0.96058262E+02</pdfrwt>
<totfact> 0.78733510E+04</totfact>
</mgrwt>
</event>
<event>
 5    1  0.1270889E+001  0.9070474E+02  0.7546771E-02  0.1301154E+00
         -2   -1    0    0    0  501 -0.00000000000E+00  0.00000000000E+00  0.50622083140E+01  0.50622083140E+01  0.00000000000E+00 0. -1.
          2   -1    0    0  501    0  0.00000000000E+00 -0.00000000000E+00 -0.40631228890E+03  0.40631228890E+03  0.00000000000E+00 0.  1.
         23    2    1    2    0    0  0.00000000000E+00  0.00000000000E+00 -0.40125008059E+03  0.41137449721E+03  0.90704739610E+02 0.  0.
        -13    1    3    3    0    0 -0.39104723429E+02  0.21512082194E+02 -0.23715850181E+03  0.24132157809E+03  0.00000000000E+00 0.  1.
         13    1    3    3    0    0  0.39104723429E+02 -0.21512082194E+02 -0.16409157878E+03  0.17005291912E+03  0.00000000000E+00 0. -1.
<mgrwt>
<rscale>  0 0.90704740E+02</rscale>
<asrwt>0</asrwt>
<pdfrwt beam="2">  1        2 0.62509566E-01 0.90704740E+02</pdfrwt>
<pdfrwt beam="1">  1       -2 0.77880148E-03 0.90704740E+02</pdfrwt>
<totfact> 0.20352665E+05</totfact>
</mgrwt>
</event>
<event>
 5    1  0.1270889E+001  0.9094201E+02  0.7546771E-02  0.1300586E+00
          2   -1    0    0  501    0  0.00000000000E+00  0.00000000000E+00  0.17060666608E+03  0.17060666608E+03  0.00000000000E+00 0.  1.
         -2   -1    0    0    0  501 -0.00000000000E+00 -0.00000000000E+00 -0.12119177657E+02  0.12119177657E+02  0.00000000000E+00 0. -1.
         23    2    1    2    0    0  0.00000000000E+00  0.00000000000E+00  0.15848748843E+03  0.18272584374E+03  0.90942014400E+02 0.  0.
        -11    1    3    3    0    0 -0.10248113922E+01  0.42547677567E+02  0.47079481086E+02  0.63465208139E+02  0.00000000000E+00 0. -1.
         11    1    3    3    0    0  0.10248113922E+01 -0.42547677567E+02  0.11140800734E+03  0.11926063560E+03  0.00000000000E+00 0.  1.
<mgrwt>
<rscale>  0 0.90942014E+02</rscale>
<asrwt>0</asrwt>
<pdfrwt beam="1">  1        2 0.26247178E-01 0.90942014E+02</pdfrwt>
<pdfrwt beam="2">  1       -2 0.18644890E-02 0.90942014E+02</pdfrwt>
<totfact> 0.14718316E+05</totfact>
</mgrwt>
</event>
<event>
 5    1  0.1270889E+001  0.9084266E+02  0.7546771E-02  0.1300824E+00
          3   -1    0    0  501    0  0.00000000000E+00  0.00000000000E+00  0.19464262847E+03  0.19464262847E+03  0.00000000000E+00 0. -1.
         -3   -1    0    0    0  501 -0.00000000000E+00 -0.00000000000E+00 -0.10599409915E+02  0.10599409915E+02  0.00000000000E+00 0.  1.
         23    2    1    2    0    0  0.00000000000E+00  0.00000000000E+00  0.18404321855E+03  0.20524203838E+03  0.90842655311E+02 0.  0.
        -13    1    3    3    0    0  0.44972583541E+02 -0.59339905269E+01  0.97248145222E+02  0.10730772229E+03  0.00000000000E+00 0. -1.
         13    1    3    3    0    0 -0.44972583541E+02  0.59339905269E+01  0.86795073331E+02  0.97934316092E+02  0.00000000000E+00 0.  1.
<mgrwt>
<rscale>  0 0.90842655E+02</rscale>
<asrwt>0</asrwt>
<pdfrwt beam="1">  1        3 0.29945017E-01 0.90842655E+02</pdfrwt>
<pdfrwt beam="2">  1       -3 0.16306786E-02 0.90842655E+02</pdfrwt>
<totfact> 0.28510617E+04</totfact>
</mgrwt>
</event>
<event>
 5    1  0.1270889E+001  0.9179090E+02  0.7546771E-02  0.1298572E+00
          1   -1    0    0  501    0  0.00000000000E+00  0.00000000000E+00  0.16041991897E+02  0.16041991897E+02  0.00000000000E+00 0. -1.
         -1   -1    0    0    0  501 -0.00000000000E+00 -0.00000000000E+00 -0.13130490749E+03  0.13130490749E+03  0.00000000000E+00 0.  1.
         23    2    1    2    0    0  0.00000000000E+00  0.00000000000E+00 -0.11526291559E+03  0.14734689939E+03  0.91790898505E+02 0.  0.
        -13    1    3    3    0    0  0.22452239006E+02 -0.29713376287E+02 -0.10068689009E+03  0.10735379641E+03  0.00000000000E+00 0.  1.
         13    1    3    3    0    0 -0.22452239006E+02  0.29713376287E+02 -0.14576025504E+02  0.39993102983E+02  0.00000000000E+00 0. -1.
<mgrwt>
<rscale>  0 0.91790899E+02</rscale>
<asrwt>0</asrwt>
<pdfrwt beam="1">  1        1 0.24679987E-02 0.91790899E+02</pdfrwt>
<pdfrwt beam="2">  1       -1 0.20200755E-01 0.91790899E+02</pdfrwt>
<totfact> 0.75729726E+04</totfact>
</mgrwt>
</event>
<event>
 5    1  0.1270889E+001  0.8977613E+02  0.7546771E-02  0.1303395E+00
          2   -1    0    0  501    0  0.00000000000E+00  0.00000000000E+00  0.69297860473E+02  0.69297860473E+02  0.00000000000E+00 0.  1.
         -2   -1    0    0    0  501 -0.00000000000E+00 -0.00000000000E+00 -0.29076485269E+02  0.29076485269E+02  0.00000000000E+00 0. -1.
         23    2    1    2    0    0  0.00000000000E+00  0.00000000000E+00  0.40221375204E+02  0.98374345742E+02  0.89776126430E+02 0.  0.
        -11    1    3    3    0    0  0.16376924410E+02 -0.65852410822E+01  0.65335355336E+02  0.67677749003E+02  0.00000000000E+00 0.  1.
         11    1    3    3    0    0 -0.16376924410E+02  0.65852410822E+01 -0.25113980132E+02  0.30696596738E+02  0.00000000000E+00 0. -1.
<mgrwt>
<rscale>  0 0.89776126E+02</rscale>
<asrwt>0</asrwt>
<pdfrwt beam="1">  1        2 0.10661209E-01 0.89776126E+02</pdfrwt>
<pdfrwt beam="2">  1       -2 0.44733054E-02 0.89776126E+02</pdfrwt>
<totfact> 0.11518642E+05</totfact>
</mgrwt>
</event>
<event>
 5    1  0.1270889E+001  0.8828348E+02  0.7546771E-02  0.1307063E+00
          1   -1    0    0  501    0  0.00000000000E+00  0.00000000000E+00  0.19962097577E+03  0.19962097577E+03  0.00000000000E+00 0. -1.
         -1   -1    0    0    0  501 -0.00000000000E+00 -0.00000000000E+00 -0.97609635413E+01  0.97609635413E+01  0.00000000000E+00 0.  1.
         23    2    1    2    0    0  0.00000000000E+00  0.00000000000E+00  0.18986001223E+03  0.20938193931E+03  0.88283476746E+02 0.  0.
        -13    1    3    3    0    0 -0.26502893081E+02  0.12317764224E+02  0.17338857342E+03  0.17583437675E+03  0.00000000000E+00 0. -1.
         13    1    3    3    0    0  0.26502893081E+02 -0.12317764224E+02  0.16471438816E+02  0.33547562561E+02  0.00000000000E+00 0.  1.
<mgrwt>
<rscale>  0 0.88283477E+02</rscale>
<asrwt>0</asrwt>
<pdfrwt beam="1">  1        1 0.30710916E-01 0.88283477E+02</pdfrwt>
<pdfrwt beam="2">  1       -1 0.15016868E-02 0.88283477E+02</pdfrwt>
<totfact> 0.12902792E+05</totfact>
</mgrwt>
</event>
<event>
 5    1  0.1270889E+001  0.9598111E+02  0.7546771E-02  0.1288982E+00
          1   -1    0    0  501    0  0.00000000000E+00  0.00000000000E+00  0.71166063728E+02  0.71166063728E+02  0.00000000000E+00 0. -1.
         -1   -1    0    0    0  501 -0.00000000000E+00 -0.00000000000E+00 -0.32362239684E+02  0.32362239684E+02  0.00000000000E+00 0.  1.
         23    2    1    2    0    0  0.00000000000E+00  0.00000000000E+00  0.38803824045E+02  0.10352830341E+03  0.95981106719E+02 0.  0.
        -11    1    3    3    0    0  0.11161607428E+02 -0.17728613791E+02 -0.27169620085E+02  0.34308504527E+02  0.00000000000E+00 0.  1.
         11    1    3    3    0    0 -0.11161607428E+02  0.17728613791E+02  0.65973444129E+02  0.69219798885E+02  0.00000000000E+00 0. -1.
<mgrwt>
<rscale>  0 0.95981107E+02</rscale>
<asrwt>0</asrwt>
<pdfrwt beam="1">  1        1 0.10948625E-01 0.95981107E+02</pdfrwt>
<pdfrwt beam="2">  1       -1 0.49788061E-02 0.95981107E+02</pdfrwt>
<totfact> 0.85809379E+04</totfact>
</mgrwt>
</event>
<event>
 5    1  0.1270889E+001  0.9439328E+02  0.7546771E-02  0.1292548E+00
          3   -1    0    0  501    0  0.00000000000E+00  0.00000000000E+00  0.14180776114E+02  0.14180776114E+02  0.00000000000E+00 0. -1.
         -3   -1    0    0    0  501 -0.00000000000E+00 -0.00000000000E+00 -0.15708046213E+03  0.15708046213E+03  0.00000000000E+00 0.  1.
         23    2    1    2    0    0  0.00000000000E+00  0.00000000000E+00 -0.14289968601E+03  0.17126123824E+03  0.94393280805E+02 0.  0.
        -13    1    3    3    0    0  0.25406572113E+01 -0.42148067598E+02 -0.33193205724E+02  0.53709435368E+02  0.00000000000E+00 0.  1.
         13    1    3    3    0    0 -0.25406572113E+01  0.42148067598E+02 -0.10970648029E+03  0.11755180287E+03  0.00000000000E+00 0. -1.
<mgrwt>
<rscale>  0 0.94393281E+02</rscale>
<asrwt>0</asrwt>
<pdfrwt beam="1">  1        3 0.21816579E-02 0.94393281E+02</pdfrwt>
<pdfrwt beam="2">  1       -3 0.24166224E-01 0.94393281E+02</pdfrwt>
<totfact> 0.27357016E+04</totfact>
</mgrwt>
</event>
<event>
 5    1  0.1270889E+001  0.9056783E+02  0.7546771E-02  0.1301482E+00
          2   -1    0    0  501    0  0.00000000000E+00  0.00000000000E+00  0.46806369567E+02  0.46806369567E+02  0.00000000000E+00 0. -1.
         -2   -1    0    0    0  501 -0.00000000000E+00 -0.00000000000E+00 -0.43810985436E+02  0.43810985436E+02  0.00000000000E+00 0.  1.
         23    2    1    2    0    0  0.00000000000E+00  0.00000000000E+00  0.29953841307E+01  0.90617355003E+02  0.90567834807E+02 0.  0.
        -13    1    3    3    0    0  0.14493443837E+02 -0.37903429665E+02 -0.18610641770E+02  0.44643990433E+02  0.00000000000E+00 0.  1.
         13    1    3    3    0    0 -0.14493443837E+02  0.37903429665E+02  0.21606025901E+02  0.45973364570E+02  0.00000000000E+00 0. -1.
<mgrwt>
<rscale>  0 0.90567835E+02</rscale>
<asrwt>0</asrwt>
<pdfrwt beam="1">  1        2 0.72009799E-02 0.90567835E+02</pdfrwt>
<pdfrwt beam="2">  1       -2 0.67401516E-02 0.90567835E+02</pdfrwt>
<totfact> 0.10127626E+05</totfact>
</mgrwt>
</event>
<event>
 5    1  0.1270889E+001  0.9452615E+02  0.7546771E-02  0.1292247E+00
          2   -1    0    0  501    0  0.00000000000E+00  0.00000000000E+00  0.16795045096E+02  0.16795045096E+02  0.00000000000E+00 0. -1.
         -2   -1    0    0    0  501 -0.00000000000E+00 -0.00000000000E+00 -0.13300340065E+03  0.13300340065E+03  0.00000000000E+00 0.  1.
         23    2    1    2    0    0  0.00000000000E+00  0.00000000000E+00 -0.11620835556E+03  0.14979844575E+03  0.94526146898E+02 0.  0.
        -11    1    3    3    0    0 -0.20494933076E+02 -0.22208377973E+02 -0.51620992914E+00  0.30224506723E+02  0.00000000000E+00 0. -1.
         11    1    3    3    0    0  0.20494933076E+02  0.22208377973E+02 -0.11569214563E+03  0.11957393903E+03  0.00000000000E+00 0.  1.
<mgrwt>
<rscale>  0 0.94526147E+02</rscale>
<asrwt>0</asrwt>
<pdfrwt beam="1">  1        2 0.25838532E-02 0.94526147E+02</pdfrwt>
<pdfrwt beam="2">  1       -2 0.20462061E-01 0.94526147E+02</pdfrwt>
<totfact> 0.66541437E+04</totfact>
</mgrwt>
</event>
<event>
 4    1  0.1270889E+001  0.5291020E+02  0.7546771E-02  0.1430248E+00
          2   -1    0    0  501    0  0.00000000000E+00  0.00000000000E+00  0.25396290848E+03  0.25396290848E+03  0.00000000000E+00 0.  1.
         -2   -1    0    0    0  501 -0.00000000000E+00 -0.00000000000E+00 -0.27558048287E+01  0.27558048287E+01  0.00000000000E+00 0. -1.
        -13    1    1    2    0    0  0.82881022075E+01  0.25072084575E+02  0.13338207379E+03  0.13597087803E+03  0.00000000000E+00 0.  1.
         13    1    1    2    0    0 -0.82881022075E+01 -0.25072084575E+02  0.11782502986E+03  0.12074783528E+03  0.00000000000E+00 0. -1.
<mgrwt>
<rscale>  0 0.52910196E+02</rscale>
<asrwt>0</asrwt>
<pdfrwt beam="1">  1        2 0.39071198E-01 0.52910196E+02</pdfrwt>
<pdfrwt beam="2">  1       -2 0.42397017E-03 0.52910196E+02</pdfrwt>
<totfact> 0.69285054E+05</totfact>
</mgrwt>
</event>
<event>
 5    1  0.1270889E+001  0.9102446E+02  0.7546771E-02  0.1300390E+00
          1   -1    0    0  501    0  0.00000000000E+00  0.00000000000E+00  0.63619766464E+02  0.63619766464E+02  0.00000000000E+00 0. -1.
         -1   -1    0    0    0  501 -0.00000000000E+00 -0.00000000000E+00 -0.32558479443E+02  0.32558479443E+02  0.00000000000E+00 0.  1.
         23    2    1    2    0    0  0.00000000000E+00  0.00000000000E+00  0.31061287021E+02  0.96178245906E+02  0.91024455144E+02 0.  0.
        -13    1    3    3    0    0 -0.18739239110E+02  0.27058392013E+02  0.48743605584E+02  0.58815429490E+02  0.00000000000E+00 0. -1.
         13    1    3    3    0    0  0.18739239110E+02 -0.27058392013E+02 -0.17682318563E+02  0.37362816416E+02  0.00000000000E+00 0.  1.
<mgrwt>
<rscale>  0 0.91024455E+02</rscale>
<asrwt>0</asrwt>
<pdfrwt beam="1">  1        1 0.97876563E-02 0.91024455E+02</pdfrwt>
<pdfrwt beam="2">  1       -1 0.50089969E-02 0.91024455E+02</pdfrwt>
<totfact> 0.97683639E+04</totfact>
</mgrwt>
</event>
<event>
 5    1  0.1270889E+001  0.9216053E+02  0.7546771E-02  0.1297702E+00
          2   -1    0    0  501    0  0.00000000000E+00  0.00000000000E+00  0.15687902620E+03  0.15687902620E+03  0.00000000000E+00 0. -1.
         -2   -1    0    0    0  501 -0.00000000000E+00 -0.00000000000E+00 -0.13535211330E+02  0.13535211330E+02  0.00000000000E+00 0.  1.
         23    2    1    2    0    0  0.00000000000E+00  0.00000000000E+00  0.14334381487E+03  0.17041423753E+03  0.92160528922E+02 0.  0.
        -11    1    3    3    0    0  0.42712001974E+02 -0.13731440173E+02  0.91111522638E+02  0.10155873729E+03  0.00000000000E+00 0. -1.
         11    1    3    3    0    0 -0.42712001974E+02  0.13731440173E+02  0.52232292228E+02  0.68855500239E+02  0.00000000000E+00 0.  1.
<mgrwt>
<rscale>  0 0.92160529E+02</rscale>
<asrwt>0</asrwt>
<pdfrwt beam="1">  1        2 0.24135234E-01 0.92160529E+02</pdfrwt>
<pdfrwt beam="2">  1       -2 0.20823403E-02 0.92160529E+02</pdfrwt>
<totfact> 0.13789375E+05</totfact>
</mgrwt>
</event>
<event>
 5    1  0.1270889E+001  0.9223419E+02  0.7546771E-02  0.1297530E+00
         -1   -1    0    0    0  501 -0.00000000000E+00  0.00000000000E+00  0.90407989752E+01  0.90407989752E+01  0.00000000000E+00 0. -1.
          1   -1    0    0  501    0  0.00000000000E+00 -0.00000000000E+00 -0.23524318032E+03  0.23524318032E+03  0.00000000000E+00 0.  1.
         23    2    1    2    0    0  0.00000000000E+00  0.00000000000E+00 -0.22620238135E+03  0.24428397930E+03  0.92234186799E+02 0.  0.
        -13    1    3    3    0    0 -0.16487372558E+02  0.36288322331E+02 -0.17453943560E+03  0.17903265169E+03  0.00000000000E+00 0.  1.
         13    1    3    3    0    0  0.16487372558E+02 -0.36288322331E+02 -0.51662945750E+02  0.65251327611E+02  0.00000000000E+00 0. -1.
<mgrwt>
<rscale>  0 0.92234187E+02</rscale>
<asrwt>0</asrwt>
<pdfrwt beam="2">  1        1 0.36191252E-01 0.92234187E+02</pdfrwt>
<pdfrwt beam="1">  1       -1 0.13908924E-02 0.92234187E+02</pdfrwt>
<totfact> 0.11849604E+05</totfact>
</mgrwt>
</event>
<event>
 5    1  0.1270889E+001  0.9211379E+02  0.7546771E-02  0.1297812E+00
          1   -1    0    0  501    0  0.00000000000E+00  0.00000000000E+00  0.67723364923E+02  0.67723364923E+02  0.00000000000E+00 0. -1.
         -1   -1    0    0    0  501 -0.00000000000E+00 -0.00000000000E+00 -0.31322092690E+02  0.31322092690E+02  0.00000000000E+00 0.  1.
         23    2    1    2    0    0  0.00000000000E+00  0.00000000000E+00  0.36401272234E+02  0.99045457613E+02  0.92113788618E+02 0.  0.
        -13    1    3    3    0    0 -0.46866206331E+01  0.30520377577E+02 -0.18543697009E+02  0.36018419721E+02  0.00000000000E+00 0.  1.
         13    1    3    3    0    0  0.46866206331E+01 -0.30520377577E+02  0.54944969243E+02  0.63027037893E+02  0.00000000000E+00 0. -1.
<mgrwt>
<rscale>  0 0.92113789E+02</rscale>
<asrwt>0</asrwt>
<pdfrwt beam="1">  1        1 0.10418979E-01 0.92113789E+02</pdfrwt>
<pdfrwt beam="2">  1       -1 0.48187835E-02 0.92113789E+02</pdfrwt>
<totfact> 0.95428936E+04</totfact>
</mgrwt>
</event>
<event>
 5    1  0.1270889E+001  0.8645541E+02  0.7546771E-02  0.1311670E+00
         -1   -1    0    0    0  501 -0.00000000000E+00  0.00000000000E+00  0.13673568692E+03  0.13673568692E+03  0.00000000000E+00 0.  1.
          1   -1    0    0  501    0  0.00000000000E+00 -0.00000000000E+00 -0.13666033729E+02  0.13666033729E+02  0.00000000000E+00 0. -1.
         23    2    1    2    0    0  0.00000000000E+00  0.00000000000E+00  0.12306965320E+03  0.15040172065E+03  0.86455410692E+02 0.  0.
        -11    1    3    3    0    0  0.45190664040E+01  0.34815148672E+02  0.17658580958E+02  0.39298117254E+02  0.00000000000E+00 0. -1.
         11    1    3    3    0    0 -0.45190664040E+01 -0.34815148672E+02  0.10541107224E+03  0.11110360340E+03  0.00000000000E+00 0.  1.
<mgrwt>
<rscale>  0 0.86455411E+02</rscale>
<asrwt>0</asrwt>
<pdfrwt beam="2">  1        1 0.21024668E-02 0.86455411E+02</pdfrwt>
<pdfrwt beam="1">  1       -1 0.21036259E-01 0.86455411E+02</pdfrwt>
<totfact> 0.87640248E+04</totfact>
</mgrwt>
</event>
<event>
 5    1  0.1270889E+001  0.9198150E+02  0.7546771E-02  0.1298123E+00
          1   -1    0    0  501    0  0.00000000000E+00  0.00000000000E+00  0.63273472867E+02  0.63273472867E+02  0.00000000000E+00 0. -1.
         -1   -1    0    0    0  501 -0.00000000000E+00 -0.00000000000E+00 -0.33428685686E+02  0.33428685686E+02  0.00000000000E+00 0.  1.
         23    2    1    2    0    0  0.00000000000E+00  0.00000000000E+00  0.29844787181E+02  0.96702158554E+02  0.91981498939E+02 0.  0.
        -11    1    3    3    0    0 -0.11889087773E+02 -0.34359688323E+02  0.44531813464E+02  0.57489312051E+02  0.00000000000E+00 0.  1.
         11    1    3    3    0    0  0.11889087773E+02  0.34359688323E+02 -0.14687026283E+02  0.39212846502E+02  0.00000000000E+00 0. -1.
<mgrwt>
<rscale>  0 0.91981499E+02</rscale>
<asrwt>0</asrwt>
<pdfrwt beam="1">  1        1 0.97343804E-02 0.91981499E+02</pdfrwt>
<pdfrwt beam="2">  1       -1 0.51428747E-02 0.91981499E+02</pdfrwt>
<totfact> 0.94813119E+04</totfact>
</mgrwt>
</event>
<event>
 5    1  0.1270889E+001  0.9117397E+02  0.7546771E-02  0.1300033E+00
          2   -1    0    0  501    0  0.00000000000E+00  0.00000000000E+00  0.26051281916E+03  0.26051281916E+03  0.00000000000E+00 0. -1.
         -2   -1    0    0    0  501 -0.00000000000E+00 -0.00000000000E+00 -0.79772389947E+01  0.79772389947E+01  0.00000000000E+00 0.  1.
         23    2    1    2    0    0  0.00000000000E+00  0.00000000000E+00  0.25253558017E+03  0.26849005816E+03  0.91173966013E+02 0.  0.
        -13    1    3    3    0    0 -0.16561120899E+02  0.36951858487E+02  0.64604944193E+02  0.76246372932E+02  0.00000000000E+00 0.  1.
         13    1    3    3    0    0  0.16561120899E+02 -0.36951858487E+02  0.18793063597E+03  0.19224368522E+03  0.00000000000E+00 0. -1.
<mgrwt>
<rscale>  0 0.91173966E+02</rscale>
<asrwt>0</asrwt>
<pdfrwt beam="1">  1        2 0.40078889E-01 0.91173966E+02</pdfrwt>
<pdfrwt beam="2">  1       -2 0.12272677E-02 0.91173966E+02</pdfrwt>
<totfact> 0.17046145E+05</totfact>
</mgrwt>
</event>
<event>
 5    1  0.1270889E+001  0.9117448E+02  0.7546771E-02  0.1300032E+00
         -3   -1    0    0    0  501 -0.00000000000E+00  0.00000000000E+00  0.13473476785E+02  0.13473476785E+02  0.00000000000E+00 0.  1.
          3   -1    0    0  501    0  0.00000000000E+00 -0.00000000000E+00 -0.15424350488E+03  0.15424350488E+03  0.00000000000E+00 0. -1.
         23    2    1    2    0    0  0.00000000000E+00  0.00000000000E+00 -0.14077002809E+03  0.16771698166E+03  0.91174476300E+02 0.  0.
        -13    1    3    3    0    0 -0.14632503001E+02 -0.28321492417E+02 -0.13033122904E+03  0.13417319532E+03  0.00000000000E+00 0. -1.
         13    1    3    3    0    0  0.14632503001E+02  0.28321492417E+02 -0.10438799046E+02  0.33543786345E+02  0.00000000000E+00 0.  1.
<mgrwt>
<rscale>  0 0.91174476E+02</rscale>
<asrwt>0</asrwt>
<pdfrwt beam="2">  1        3 0.23729773E-01 0.91174476E+02</pdfrwt>
<pdfrwt beam="1">  1       -3 0.20728424E-02 0.91174476E+02</pdfrwt>
<totfact> 0.30259228E+04</totfact>
</mgrwt>
</event>
<event>
 5    1  0.1270889E+001  0.9493814E+02  0.7546771E-02  0.1291315E+00
         -3   -1    0    0    0  501 -0.00000000000E+00  0.00000000000E+00  0.40915291630E+02  0.40915291630E+02  0.00000000000E+00 0.  1.
          3   -1    0    0  501    0  0.00000000000E+00 -0.00000000000E+00 -0.55072629078E+02  0.55072629078E+02  0.00000000000E+00 0. -1.
         23    2    1    2    0    0  0.00000000000E+00  0.00000000000E+00 -0.14157337448E+02  0.95987920708E+02  0.94938141536E+02 0.  0.
        -13    1    3    3    0    0  0.90086401672E+01  0.38425745023E+02  0.19587562395E+02  0.44060935973E+02  0.00000000000E+00 0.  1.
         13    1    3    3    0    0 -0.90086401672E+01 -0.38425745023E+02 -0.33744899843E+02  0.51926984735E+02  0.00000000000E+00 0. -1.
<mgrwt>
<rscale>  0 0.94938142E+02</rscale>
<asrwt>0</asrwt>
<pdfrwt beam="2">  1        3 0.84727122E-02 0.94938142E+02</pdfrwt>
<pdfrwt beam="1">  1       -3 0.62946602E-02 0.94938142E+02</pdfrwt>
<totfact> 0.31313644E+04</totfact>
</mgrwt>
</event>
<event>
 5    1  0.1270889E+001  0.9114186E+02  0.7546771E-02  0.1300110E+00
         -3   -1    0    0    0  501 -0.00000000000E+00  0.00000000000E+00  0.72973553871E+02  0.72973553871E+02  0.00000000000E+00 0.  1.
          3   -1    0    0  501    0  0.00000000000E+00 -0.00000000000E+00 -0.28458385494E+02  0.28458385494E+02  0.00000000000E+00 0. -1.
         23    2    1    2    0    0  0.00000000000E+00  0.00000000000E+00  0.44515168378E+02  0.10143193937E+03  0.91141857056E+02 0.  0.
        -11    1    3    3    0    0 -0.41345052555E+02  0.43585238281E+00  0.93436805553E+00  0.41357905916E+02  0.00000000000E+00 0.  1.
         11    1    3    3    0    0  0.41345052555E+02 -0.43585238281E+00  0.43580800322E+02  0.60074033449E+02  0.00000000000E+00 0. -1.
<mgrwt>
<rscale>  0 0.91141857E+02</rscale>
<asrwt>0</asrwt>
<pdfrwt beam="2">  1        3 0.43782132E-02 0.91141857E+02</pdfrwt>
<pdfrwt beam="1">  1       -3 0.11226701E-01 0.91141857E+02</pdfrwt>
<totfact> 0.34602863E+04</totfact>
</mgrwt>
</event>
<event>
 5    1  0.1270889E+001  0.8969842E+02  0.7546771E-02  0.1303584E+00
          1   -1    0    0  501    0  0.00000000000E+00  0.00000000000E+00  0.10458567357E+02  0.10458567357E+02  0.00000000000E+00 0. -1.
         -1   -1    0    0    0  501 -0.00000000000E+00 -0.00000000000E+00 -0.19232571394E+03  0.19232571394E+03  0.00000000000E+00 0.  1.
         23    2    1    2    0    0  0.00000000000E+00  0.00000000000E+00 -0.18186714658E+03  0.20278428130E+03  0.89698415456E+02 0.  0.
        -11    1    3    3    0    0 -0.21716254641E+02 -0.38789113248E+02 -0.77509225178E+02  0.89352509813E+02  0.00000000000E+00 0.  1.
         11    1    3    3    0    0  0.21716254641E+02  0.38789113248E+02 -0.10435792140E+03  0.11343177148E+03  0.00000000000E+00 0. -1.
<mgrwt>
<rscale>  0 0.89698415E+02</rscale>
<asrwt>0</asrwt>
<pdfrwt beam="1">  1        1 0.16090104E-02 0.89698415E+02</pdfrwt>
<pdfrwt beam="2">  1       -1 0.29588570E-01 0.89698415E+02</pdfrwt>
<totfact> 0.73244340E+04</totfact>
</mgrwt>
</event>
<event>
 5    1  0.1270889E+001  0.9220864E+02  0.7546771E-02  0.1297590E+00
         -2   -1    0    0    0  501 -0.00000000000E+00  0.00000000000E+00  0.97627044984E+01  0.97627044984E+01  0.00000000000E+00 0.  1.
          2   -1    0    0  501    0  0.00000000000E+00 -0.00000000000E+00 -0.21772742798E+03  0.21772742798E+03  0.00000000000E+00 0. -1.
         23    2    1    2    0    0  0.00000000000E+00  0.00000000000E+00 -0.20796472349E+03  0.22749013248E+03  0.92208644727E+02 0.  0.
        -13    1    3    3    0    0  0.35037408033E+02  0.10572941510E+02 -0.34805977998E+02  0.50506070508E+02  0.00000000000E+00 0.  1.
         13    1    3    3    0    0 -0.35037408033E+02 -0.10572941510E+02 -0.17315874549E+03  0.17698406197E+03  0.00000000000E+00 0. -1.
<mgrwt>
<rscale>  0 0.92208645E+02</rscale>
<asrwt>0</asrwt>
<pdfrwt beam="2">  1        2 0.33496524E-01 0.92208645E+02</pdfrwt>
<pdfrwt beam="1">  1       -2 0.15019547E-02 0.92208645E+02</pdfrwt>
<totfact> 0.15477506E+05</totfact>
</mgrwt>
</event>
<event>
 5    1  0.1270889E+001  0.9165411E+02  0.7546771E-02  0.1298895E+00
          3   -1    0    0  501    0  0.00000000000E+00  0.00000000000E+00  0.10735939996E+03  0.10735939996E+03  0.00000000000E+00 0. -1.
         -3   -1    0    0    0  501 -0.00000000000E+00 -0.00000000000E+00 -0.19561574981E+02  0.19561574981E+02  0.00000000000E+00 0.  1.
         23    2    1    2    0    0  0.00000000000E+00  0.00000000000E+00  0.87797824979E+02  0.12692097494E+03  0.91654109614E+02 0.  0.
        -13    1    3    3    0    0 -0.42067834651E+01  0.29276866053E+02 -0.45741408015E+01  0.29929160982E+02  0.00000000000E+00 0.  1.
         13    1    3    3    0    0  0.42067834651E+01 -0.29276866053E+02  0.92371965780E+02  0.96991813959E+02  0.00000000000E+00 0. -1.
<mgrwt>
<rscale>  0 0.91654110E+02</rscale>
<asrwt>0</asrwt>
<pdfrwt beam="1">  1        3 0.16516830E-01 0.91654110E+02</pdfrwt>
<pdfrwt beam="2">  1       -3 0.30094731E-02 0.91654110E+02</pdfrwt>
<totfact> 0.32317419E+04</totfact>
</mgrwt>
</event>
<event>
 5    1  0.1270889E+001  0.9835495E+02  0.7546771E-02  0.1283794E+00
         -3   -1    0    0    0  501 -0.00000000000E+00  0.00000000000E+00  0.47577691595E+02  0.47577691595E+02  0.00000000000E+00 0.  1.
          3   -1    0    0  501    0  0.00000000000E+00 -0.00000000000E+00 -0.50831054308E+02  0.50831054308E+02  0.00000000000E+00 0. -1.
         23    2    1    2    0    0  0.00000000000E+00  0.00000000000E+00 -0.32533627130E+01  0.98408745904E+02  0.98354953619E+02 0.  0.
        -13    1    3    3    0    0 -0.33278732436E+02  0.32133310702E+01  0.34457217552E+02  0.48011450411E+02  0.00000000000E+00 0.  1.
         13    1    3    3    0    0  0.33278732436E+02 -0.32133310702E+01 -0.37710580265E+02  0.50397295493E+02  0.00000000000E+00 0. -1.
<mgrwt>
<rscale>  0 0.98354954E+02</rscale>
<asrwt>0</asrwt>
<pdfrwt beam="2">  1        3 0.78201622E-02 0.98354954E+02</pdfrwt>
<pdfrwt beam="1">  1       -3 0.73196449E-02 0.98354954E+02</pdfrwt>
<totfact> 0.28270920E+04</totfact>
</mgrwt>
</event>
<event>
 5    1  0.1270889E+001  0.8968422E+02  0.7546771E-02  0.1303618E+00
         -2   -1    0    0    0  501 -0.00000000000E+00  0.00000000000E+00  0.27324276145E+02  0.27324276145E+02  0.00000000000E+00 0.  1.
          2   -1    0    0  501    0  0.00000000000E+00 -0.00000000000E+00 -0.73590779823E+02  0.73590779823E+02  0.00000000000E+00 0. -1.
         23    2    1    2    0    0  0.00000000000E+00  0.00000000000E+00 -0.46266503677E+02  0.10091505597E+03  0.89684219116E+02 0.  0.
        -13    1    3    3    0    0 -0.30947967451E+02  0.63687996260E+01 -0.58937322738E+02  0.66872612552E+02  0.00000000000E+00 0. -1.
         13    1    3    3    0    0  0.30947967451E+02 -0.63687996260E+01  0.12670819061E+02  0.34042443416E+02  0.00000000000E+00 0.  1.
<mgrwt>
<rscale>  0 0.89684219E+02</rscale>
<asrwt>0</asrwt>
<pdfrwt beam="2">  1        2 0.11321658E-01 0.89684219E+02</pdfrwt>
<pdfrwt beam="1">  1       -2 0.42037348E-02 0.89684219E+02</pdfrwt>
<totfact> 0.11744857E+05</totfact>
</mgrwt>
</event>
<event>
 5    1  0.1270889E+001  0.9225403E+02  0.7546771E-02  0.1297483E+00
          2   -1    0    0  501    0  0.00000000000E+00  0.00000000000E+00  0.12775181005E+03  0.12775181005E+03  0.00000000000E+00 0. -1.
         -2   -1    0    0    0  501 -0.00000000000E+00 -0.00000000000E+00 -0.16654961023E+02  0.16654961023E+02  0.00000000000E+00 0.  1.
         23    2    1    2    0    0  0.00000000000E+00  0.00000000000E+00  0.11109684903E+03  0.14440677107E+03  0.92254027922E+02 0.  0.
        -13    1    3    3    0    0  0.64923322374E+01 -0.22892705900E+02 -0.63058540172E+01  0.24616867310E+02  0.00000000000E+00 0.  1.
         13    1    3    3    0    0 -0.64923322374E+01  0.22892705900E+02  0.11740270304E+03  0.11978990376E+03  0.00000000000E+00 0. -1.
<mgrwt>
<rscale>  0 0.92254028E+02</rscale>
<asrwt>0</asrwt>
<pdfrwt beam="1">  1        2 0.19654124E-01 0.92254028E+02</pdfrwt>
<pdfrwt beam="2">  1       -2 0.25623018E-02 0.92254028E+02</pdfrwt>
<totfact> 0.12833591E+05</totfact>
</mgrwt>
</event>
<event>
 5    1  0.1270889E+001  0.9089289E+02  0.7546771E-02  0.1300704E+00
         -2   -1    0    0    0  501 -0.00000000000E+00  0.00000000000E+00  0.10770029392E+02  0.10770029392E+02  0.00000000000E+00 0.  1.
          2   -1    0    0  501    0  0.00000000000E+00 -0.00000000000E+00 -0.19177102175E+03  0.19177102175E+03  0.00000000000E+00 0. -1.
         23    2    1    2    0    0  0.00000000000E+00  0.00000000000E+00 -0.18100099235E+03  0.20254105114E+03  0.90892893907E+02 0.  0.
        -11    1    3    3    0    0 -0.24979309150E+02  0.16512819637E+02 -0.16668070605E+03  0.16934903858E+03  0.00000000000E+00 0. -1.
         11    1    3    3    0    0  0.24979309150E+02 -0.16512819637E+02 -0.14320286305E+02  0.33192012560E+02  0.00000000000E+00 0.  1.
<mgrwt>
<rscale>  0 0.90892894E+02</rscale>
<asrwt>0</asrwt>
<pdfrwt beam="2">  1        2 0.29503234E-01 0.90892894E+02</pdfrwt>
<pdfrwt beam="1">  1       -2 0.16569276E-02 0.90892894E+02</pdfrwt>
<totfact> 0.15364092E+05</totfact>
</mgrwt>
</event>
<event>
 5    1  0.1270889E+001  0.8678196E+02  0.7546771E-02  0.1310837E+00
          1   -1    0    0  501    0  0.00000000000E+00  0.00000000000E+00  0.56428415621E+01  0.56428415621E+01  0.00000000000E+00 0. -1.
         -1   -1    0    0    0  501 -0.00000000000E+00 -0.00000000000E+00 -0.33365761909E+03  0.33365761909E+03  0.00000000000E+00 0.  1.
         23    2    1    2    0    0  0.00000000000E+00  0.00000000000E+00 -0.32801477753E+03  0.33930046065E+03  0.86781958505E+02 0.  0.
        -11    1    3    3    0    0  0.37458616855E+02  0.21808646135E+02 -0.15617600365E+03  0.16207932977E+03  0.00000000000E+00 0.  1.
         11    1    3    3    0    0 -0.37458616855E+02 -0.21808646135E+02 -0.17183877387E+03  0.17722113088E+03  0.00000000000E+00 0. -1.
<mgrwt>
<rscale>  0 0.86781959E+02</rscale>
<asrwt>0</asrwt>
<pdfrwt beam="1">  1        1 0.86812971E-03 0.86781959E+02</pdfrwt>
<pdfrwt beam="2">  1       -1 0.51331927E-01 0.86781959E+02</pdfrwt>
<totfact> 0.65976517E+04</totfact>
</mgrwt>
</event>
<event>
 5    1  0.1270889E+001  0.9122984E+02  0.7546771E-02  0.1299901E+00
         -2   -1    0    0    0  501 -0.00000000000E+00  0.00000000000E+00  0.77943559983E+02  0.77943559983E+02  0.00000000000E+00 0.  1.
          2   -1    0    0  501    0  0.00000000000E+00 -0.00000000000E+00 -0.26695222916E+02  0.26695222916E+02  0.00000000000E+00 0. -1.
         23    2    1    2    0    0  0.00000000000E+00  0.00000000000E+00  0.51248337067E+02  0.10463878290E+03  0.91229835222E+02 0.  0.
        -11    1    3    3    0    0  0.25606773503E+02 -0.25838824242E+02 -0.59411050384E+01  0.36859848298E+02  0.00000000000E+00 0. -1.
         11    1    3    3    0    0 -0.25606773503E+02  0.25838824242E+02  0.57189442105E+02  0.67778934602E+02  0.00000000000E+00 0.  1.
<mgrwt>
<rscale>  0 0.91229835E+02</rscale>
<asrwt>0</asrwt>
<pdfrwt beam="2">  1        2 0.41069574E-02 0.91229835E+02</pdfrwt>
<pdfrwt beam="1">  1       -2 0.11991317E-01 0.91229835E+02</pdfrwt>
<totfact> 0.85568510E+04</totfact>
</mgrwt>
</event>
<event>
 5    1  0.1270889E+001  0.9905033E+02  0.7546771E-02  0.1282306E+00
          1   -1    0    0  501    0  0.00000000000E+00  0.00000000000E+00  0.45246803661E+03  0.45246803661E+03  0.00000000000E+00 0. -1.
         -1   -1    0    0    0  501 -0.00000000000E+00 -0.00000000000E+00 -0.54208072458E+01  0.54208072458E+01  0.00000000000E+00 0.  1.
         23    2    1    2    0    0  0.00000000000E+00  0.00000000000E+00  0.44704722937E+03  0.45788884386E+03  0.99050330870E+02 0.  0.
        -13    1    3    3    0    0 -0.46941633022E+02  0.11705054833E+02  0.17455328181E+03  0.18113357891E+03  0.00000000000E+00 0.  1.
         13    1    3    3    0    0  0.46941633022E+02 -0.11705054833E+02  0.27249394756E+03  0.27675526494E+03  0.00000000000E+00 0. -1.
<mgrwt>
<rscale>  0 0.99050331E+02</rscale>
<asrwt>0</asrwt>
<pdfrwt beam="1">  1        1 0.69610437E-01 0.99050331E+02</pdfrwt>
<pdfrwt beam="2">  1       -1 0.83397070E-03 0.99050331E+02</pdfrwt>
<totfact> 0.11024652E+05</totfact>
</mgrwt>
</event>
<event>
 5    1  0.1270889E+001  0.9157628E+02  0.7546771E-02  0.1299079E+00
         -1   -1    0    0    0  501 -0.00000000000E+00  0.00000000000E+00  0.95569054571E+02  0.95569054571E+02  0.00000000000E+00 0.  1.
          1   -1    0    0  501    0  0.00000000000E+00 -0.00000000000E+00 -0.21937579277E+02  0.21937579277E+02  0.00000000000E+00 0. -1.
         23    2    1    2    0    0  0.00000000000E+00  0.00000000000E+00  0.73631475294E+02  0.11750663385E+03  0.91576278830E+02 0.  0.
        -11    1    3    3    0    0  0.12689955340E+02 -0.33049349761E+02 -0.44572888072E+00  0.35404705342E+02  0.00000000000E+00 0. -1.
         11    1    3    3    0    0 -0.12689955340E+02  0.33049349761E+02  0.74077204175E+02  0.82101928506E+02  0.00000000000E+00 0.  1.
<mgrwt>
<rscale>  0 0.91576279E+02</rscale>
<asrwt>0</asrwt>
<pdfrwt beam="2">  1        1 0.33750122E-02 0.91576279E+02</pdfrwt>
<pdfrwt beam="1">  1       -1 0.14702931E-01 0.91576279E+02</pdfrwt>
<totfact> 0.81133557E+04</totfact>
</mgrwt>
</event>
<event>
 5    1  0.1270889E+001  0.9718105E+02  0.7546771E-02  0.1286338E+00
          1   -1    0    0  501    0  0.00000000000E+00  0.00000000000E+00  0.41831042180E+02  0.41831042180E+02  0.00000000000E+00 0. -1.
         -1   -1    0    0    0  501 -0.00000000000E+00 -0.00000000000E+00 -0.56442273041E+02  0.56442273041E+02  0.00000000000E+00 0.  1.
         23    2    1    2    0    0  0.00000000000E+00  0.00000000000E+00 -0.14611230861E+02  0.98273315222E+02  0.97181049682E+02 0.  0.
        -13    1    3    3    0    0 -0.23293045944E+01 -0.34409807373E+02  0.27307423969E+02  0.43990406990E+02  0.00000000000E+00 0. -1.
         13    1    3    3    0    0  0.23293045944E+01  0.34409807373E+02 -0.41918654830E+02  0.54282908231E+02  0.00000000000E+00 0.  1.
<mgrwt>
<rscale>  0 0.97181050E+02</rscale>
<asrwt>0</asrwt>
<pdfrwt beam="1">  1        1 0.64355450E-02 0.97181050E+02</pdfrwt>
<pdfrwt beam="2">  1       -1 0.86834265E-02 0.97181050E+02</pdfrwt>
<totfact> 0.76177554E+04</totfact>
</mgrwt>
</event>
<event>
 5    1  0.1270889E+001  0.9018058E+02  0.7546771E-02  0.1302415E+00
          1   -1    0    0  501    0  0.00000000000E+00  0.00000000000E+00  0.36073624772E+02  0.36073624772E+02  0.00000000000E+00 0. -1.
         -1   -1    0    0    0  501 -0.00000000000E+00 -0.00000000000E+00 -0.56360684630E+02  0.56360684630E+02  0.00000000000E+00 0.  1.
         23    2    1    2    0    0  0.00000000000E+00  0.00000000000E+00 -0.20287059857E+02  0.92434309402E+02  0.90180578602E+02 0.  0.
        -13    1    3    3    0    0 -0.37066915671E+02  0.16867707090E+02 -0.29983358989E+02  0.50571509727E+02  0.00000000000E+00 0.  1.
         13    1    3    3    0    0  0.37066915671E+02 -0.16867707090E+02  0.96962991311E+01  0.41862799675E+02  0.00000000000E+00 0. -1.
<mgrwt>
<rscale>  0 0.90180579E+02</rscale>
<asrwt>0</asrwt>
<pdfrwt beam="1">  1        1 0.55497884E-02 0.90180579E+02</pdfrwt>
<pdfrwt beam="2">  1       -1 0.86708746E-02 0.90180579E+02</pdfrwt>
<totfact> 0.92064477E+04</totfact>
</mgrwt>
</event>
<event>
 5    1  0.1270889E+001  0.8418693E+02  0.7546771E-02  0.1317573E+00
          1   -1    0    0  501    0  0.00000000000E+00  0.00000000000E+00  0.22800262242E+03  0.22800262242E+03  0.00000000000E+00 0. -1.
         -1   -1    0    0    0  501 -0.00000000000E+00 -0.00000000000E+00 -0.77712264158E+01  0.77712264158E+01  0.00000000000E+00 0.  1.
         23    2    1    2    0    0  0.00000000000E+00  0.00000000000E+00  0.22023139600E+03  0.23577384883E+03  0.84186934906E+02 0.  0.
        -13    1    3    3    0    0 -0.12118708742E+02 -0.39829967416E+02  0.92722513192E+02  0.10164031611E+03  0.00000000000E+00 0. -1.
         13    1    3    3    0    0  0.12118708742E+02  0.39829967416E+02  0.12750888281E+03  0.13413353272E+03  0.00000000000E+00 0.  1.
<mgrwt>
<rscale>  0 0.84186935E+02</rscale>
<asrwt>0</asrwt>
<pdfrwt beam="1">  1        1 0.35077321E-01 0.84186935E+02</pdfrwt>
<pdfrwt beam="2">  1       -1 0.11955735E-02 0.84186935E+02</pdfrwt>
<totfact> 0.15020830E+05</totfact>
</mgrwt>
</event>
<event>
 5    1  0.1270889E+001  0.9046099E+02  0.7546771E-02  0.1301739E+00
         -2   -1    0    0    0  501 -0.00000000000E+00  0.00000000000E+00  0.28616091017E+02  0.28616091017E+02  0.00000000000E+00 0.  1.
          2   -1    0    0  501    0  0.00000000000E+00 -0.00000000000E+00 -0.71491162747E+02  0.71491162747E+02  0.00000000000E+00 0. -1.
         23    2    1    2    0    0  0.00000000000E+00  0.00000000000E+00 -0.42875071730E+02  0.10010725376E+03  0.90460988721E+02 0.  0.
        -11    1    3    3    0    0  0.17542515123E+02 -0.25931811106E+02 -0.57561974797E+02  0.65525411915E+02  0.00000000000E+00 0. -1.
         11    1    3    3    0    0 -0.17542515123E+02  0.25931811106E+02  0.14686903066E+02  0.34581841850E+02  0.00000000000E+00 0.  1.
<mgrwt>
<rscale>  0 0.90460989E+02</rscale>
<asrwt>0</asrwt>
<pdfrwt beam="2">  1        2 0.10998640E-01 0.90460989E+02</pdfrwt>
<pdfrwt beam="1">  1       -2 0.44024756E-02 0.90460989E+02</pdfrwt>
<totfact> 0.11374411E+05</totfact>
</mgrwt>
</event>
<event>
 5    1  0.1270889E+001  0.9123680E+02  0.7546771E-02  0.1299884E+00
         -1   -1    0    0    0  501 -0.00000000000E+00  0.00000000000E+00  0.40766292503E+02  0.40766292503E+02  0.00000000000E+00 0.  1.
          1   -1    0    0  501    0  0.00000000000E+00 -0.00000000000E+00 -0.51048022310E+02  0.51048022310E+02  0.00000000000E+00 0. -1.
         23    2    1    2    0    0  0.00000000000E+00  0.00000000000E+00 -0.10281729806E+02  0.91814314813E+02  0.91236804179E+02 0.  0.
        -13    1    3    3    0    0 -0.24731433411E+02 -0.18957062541E+02  0.28387056748E+02  0.42152568244E+02  0.00000000000E+00 0.  1.
         13    1    3    3    0    0  0.24731433411E+02  0.18957062541E+02 -0.38668786554E+02  0.49661746569E+02  0.00000000000E+00 0. -1.
<mgrwt>
<rscale>  0 0.91236804E+02</rscale>
<asrwt>0</asrwt>
<pdfrwt beam="2">  1        1 0.78535419E-02 0.91236804E+02</pdfrwt>
<pdfrwt beam="1">  1       -1 0.62717373E-02 0.91236804E+02</pdfrwt>
<totfact> 0.93883577E+04</totfact>
</mgrwt>
</event>
<event>
 5    1  0.1270889E+001  0.9172884E+02  0.7546771E-02  0.1298718E+00
         -2   -1    0    0    0  501 -0.00000000000E+00  0.00000000000E+00  0.46331989381E+01  0.46331989381E+01  0.00000000000E+00 0.  1.
          2   -1    0    0  501    0  0.00000000000E+00 -0.00000000000E+00 -0.45401568917E+03  0.45401568917E+03  0.00000000000E+00 0. -1.
         23    2    1    2    0    0  0.00000000000E+00  0.00000000000E+00 -0.44938249024E+03  0.45864888811E+03  0.91728839718E+02 0.  0.
        -11    1    3    3    0    0 -0.17590903515E+02 -0.41524166161E+02 -0.18290303639E+03  0.18838051115E+03  0.00000000000E+00 0. -1.
         11    1    3    3    0    0  0.17590903515E+02  0.41524166161E+02 -0.26647945385E+03  0.27026837696E+03  0.00000000000E+00 0.  1.
<mgrwt>
<rscale>  0 0.91728840E+02</rscale>
<asrwt>0</asrwt>
<pdfrwt beam="2">  1        2 0.69848573E-01 0.91728840E+02</pdfrwt>
<pdfrwt beam="1">  1       -2 0.71279978E-03 0.91728840E+02</pdfrwt>
<totfact> 0.20535944E+05</totfact>
</mgrwt>
</event>
<event>
 5    1  0.1270889E+001  0.8475627E+02  0.7546771E-02  0.1316071E+00
          1   -1    0    0  501    0  0.00000000000E+00  0.00000000000E+00  0.10635925740E+02  0.10635925740E+02  0.00000000000E+00 0. -1.
         -1   -1    0    0    0  501 -0.00000000000E+00 -0.00000000000E+00 -0.16885285398E+03  0.16885285398E+03  0.00000000000E+00 0.  1.
         23    2    1    2    0    0  0.00000000000E+00  0.00000000000E+00 -0.15821692824E+03  0.17948877972E+03  0.84756272122E+02 0.  0.
        -11    1    3    3    0    0  0.32705602872E+02 -0.78391192314E+01 -0.24506236035E+02  0.41613265363E+02  0.00000000000E+00 0. -1.
         11    1    3    3    0    0 -0.32705602872E+02  0.78391192314E+01 -0.13371069221E+03  0.13787551436E+03  0.00000000000E+00 0.  1.
<mgrwt>
<rscale>  0 0.84756272E+02</rscale>
<asrwt>0</asrwt>
<pdfrwt beam="1">  1        1 0.16362963E-02 0.84756272E+02</pdfrwt>
<pdfrwt beam="2">  1       -1 0.25977362E-01 0.84756272E+02</pdfrwt>
<totfact> 0.87809161E+04</totfact>
</mgrwt>
</event>
<event>
 5    1  0.1270889E+001  0.8672551E+02  0.7546771E-02  0.1310981E+00
         -1   -1    0    0    0  501 -0.00000000000E+00  0.00000000000E+00  0.12178770220E+02  0.12178770220E+02  0.00000000000E+00 0.  1.
          1   -1    0    0  501    0  0.00000000000E+00 -0.00000000000E+00 -0.15439397153E+03  0.15439397153E+03  0.00000000000E+00 0. -1.
         23    2    1    2    0    0  0.00000000000E+00  0.00000000000E+00 -0.14221520131E+03  0.16657274175E+03  0.86725514182E+02 0.  0.
        -11    1    3    3    0    0  0.21419665181E+02 -0.21056032434E+02 -0.13117851637E+03  0.13457325780E+03  0.00000000000E+00 0. -1.
         11    1    3    3    0    0 -0.21419665181E+02  0.21056032434E+02 -0.11036684936E+02  0.31999483944E+02  0.00000000000E+00 0.  1.
<mgrwt>
<rscale>  0 0.86725514E+02</rscale>
<asrwt>0</asrwt>
<pdfrwt beam="2">  1        1 0.23752918E-01 0.86725514E+02</pdfrwt>
<pdfrwt beam="1">  1       -1 0.18736570E-02 0.86725514E+02</pdfrwt>
<totfact> 0.12895383E+05</totfact>
</mgrwt>
</event>
<event>
 5    1  0.1270889E+001  0.9170698E+02  0.7546771E-02  0.1298770E+00
         -1   -1    0    0    0  501 -0.00000000000E+00  0.00000000000E+00  0.20674384651E+03  0.20674384651E+03  0.00000000000E+00 0.  1.
          1   -1    0    0  501    0  0.00000000000E+00 -0.00000000000E+00 -0.10169795258E+02  0.10169795258E+02  0.00000000000E+00 0. -1.
         23    2    1    2    0    0  0.00000000000E+00  0.00000000000E+00  0.19657405126E+03  0.21691364177E+03  0.91706980974E+02 0.  0.
        -13    1    3    3    0    0 -0.45583737976E+02 -0.24333973589E+01  0.88046656820E+02  0.99176672498E+02  0.00000000000E+00 0.  1.
         13    1    3    3    0    0  0.45583737976E+02  0.24333973589E+01  0.10852739444E+03  0.11773696927E+03  0.00000000000E+00 0. -1.
<mgrwt>
<rscale>  0 0.91706981E+02</rscale>
<asrwt>0</asrwt>
<pdfrwt beam="2">  1        1 0.15645840E-02 0.91706981E+02</pdfrwt>
<pdfrwt beam="1">  1       -1 0.31806742E-01 0.91706981E+02</pdfrwt>
<totfact> 0.67728835E+04</totfact>
</mgrwt>
</event>
<event>
 5    1  0.1270889E+001  0.8801373E+02  0.7546771E-02  0.1307734E+00
          1   -1    0    0  501    0  0.00000000000E+00  0.00000000000E+00  0.62882930784E+01  0.62882930784E+01  0.00000000000E+00 0. -1.
         -1   -1    0    0    0  501 -0.00000000000E+00 -0.00000000000E+00 -0.30796976303E+03  0.30796976303E+03  0.00000000000E+00 0.  1.
         23    2    1    2    0    0  0.00000000000E+00  0.00000000000E+00 -0.30168146995E+03  0.31425805610E+03  0.88013729138E+02 0.  0.
        -13    1    3    3    0    0  0.42887883920E+02  0.98602095599E+01 -0.15119437379E+03  0.15746851427E+03  0.00000000000E+00 0. -1.
         13    1    3    3    0    0 -0.42887883920E+02 -0.98602095599E+01 -0.15048709615E+03  0.15678954183E+03  0.00000000000E+00 0.  1.
<mgrwt>
<rscale>  0 0.88013729E+02</rscale>
<asrwt>0</asrwt>
<pdfrwt beam="1">  1        1 0.96742967E-03 0.88013729E+02</pdfrwt>
<pdfrwt beam="2">  1       -1 0.47379965E-01 0.88013729E+02</pdfrwt>
<totfact> 0.65747900E+04</totfact>
</mgrwt>
</event>
<event>
 5    1  0.1270889E+001  0.9521266E+02  0.7546771E-02  0.1290698E+00
          2   -1    0    0  501    0  0.00000000000E+00  0.00000000000E+00  0.51942434526E+02  0.51942434526E+02  0.00000000000E+00 0. -1.
         -2   -1    0    0    0  501 -0.00000000000E+00 -0.00000000000E+00 -0.43632199424E+02  0.43632199424E+02  0.00000000000E+00 0.  1.
         23    2    1    2    0    0  0.00000000000E+00  0.00000000000E+00  0.83102351025E+01  0.95574633950E+02  0.95212660121E+02 0.  0.
        -11    1    3    3    0    0 -0.75209999292E+01 -0.25281764621E+02  0.43936954520E+02  0.51246356308E+02  0.00000000000E+00 0. -1.
         11    1    3    3    0    0  0.75209999292E+01  0.25281764621E+02 -0.35626719418E+02  0.44328277643E+02  0.00000000000E+00 0.  1.
<mgrwt>
<rscale>  0 0.95212660E+02</rscale>
<asrwt>0</asrwt>
<pdfrwt beam="1">  1        2 0.79911437E-02 0.95212660E+02</pdfrwt>
<pdfrwt beam="2">  1       -2 0.67126461E-02 0.95212660E+02</pdfrwt>
<totfact> 0.90197687E+04</totfact>
</mgrwt>
</event>
<event>
 5    1  0.1270889E+001  0.9617129E+02  0.7546771E-02  0.1288560E+00
         -1   -1    0    0    0  501 -0.00000000000E+00  0.00000000000E+00  0.61554803579E+02  0.61554803579E+02  0.00000000000E+00 0.  1.
          1   -1    0    0  501    0  0.00000000000E+00 -0.00000000000E+00 -0.37563747590E+02  0.37563747590E+02  0.00000000000E+00 0. -1.
         23    2    1    2    0    0  0.00000000000E+00  0.00000000000E+00  0.23991055989E+02  0.99118551169E+02  0.96171286871E+02 0.  0.
        -11    1    3    3    0    0  0.19485048428E+02  0.28227099392E+02  0.46729870587E+02  0.57966516692E+02  0.00000000000E+00 0.  1.
         11    1    3    3    0    0 -0.19485048428E+02 -0.28227099392E+02 -0.22738814598E+02  0.41152034477E+02  0.00000000000E+00 0. -1.
<mgrwt>
<rscale>  0 0.96171287E+02</rscale>
<asrwt>0</asrwt>
<pdfrwt beam="2">  1        1 0.57790381E-02 0.96171287E+02</pdfrwt>
<pdfrwt beam="1">  1       -1 0.94699698E-02 0.96171287E+02</pdfrwt>
<totfact> 0.77136180E+04</totfact>
</mgrwt>
</event>
<event>
 5    1  0.1270889E+001  0.9252602E+02  0.7546771E-02  0.1296847E+00
          4   -1    0    0  501    0  0.00000000000E+00  0.00000000000E+00  0.80562888528E+01  0.80562888528E+01  0.00000000000E+00 0. -1.
         -4   -1    0    0    0  501 -0.00000000000E+00 -0.00000000000E+00 -0.26566402853E+03  0.26566402853E+03  0.00000000000E+00 0.  1.
         23    2    1    2    0    0  0.00000000000E+00  0.00000000000E+00 -0.25760773968E+03  0.27372031738E+03  0.92526021240E+02 0.  0.
        -11    1    3    3    0    0  0.45778911005E+02  0.66643823942E+01 -0.12768335434E+03  0.13580560246E+03  0.00000000000E+00 0.  1.
         11    1    3    3    0    0 -0.45778911005E+02 -0.66643823942E+01 -0.12992438534E+03  0.13791471492E+03  0.00000000000E+00 0. -1.
<mgrwt>
<rscale>  0 0.92526021E+02</rscale>
<asrwt>0</asrwt>
<pdfrwt beam="1">  1        4 0.12394292E-02 0.92526021E+02</pdfrwt>
<pdfrwt beam="2">  1       -4 0.40871383E-01 0.92526021E+02</pdfrwt>
<totfact> 0.17936079E+04</totfact>
</mgrwt>
</event>
<event>
 5    1  0.1270889E+001  0.8953339E+02  0.7546771E-02  0.1303986E+00
         -1   -1    0    0    0  501 -0.00000000000E+00  0.00000000000E+00  0.29391094274E+02  0.29391094274E+02  0.00000000000E+00 0.  1.
          1   -1    0    0  501    0  0.00000000000E+00 -0.00000000000E+00 -0.68185865354E+02  0.68185865354E+02  0.00000000000E+00 0. -1.
         23    2    1    2    0    0  0.00000000000E+00  0.00000000000E+00 -0.38794771080E+02  0.97576959629E+02  0.89533394816E+02 0.  0.
        -13    1    3    3    0    0 -0.16787476367E+02 -0.57329019770E+01 -0.64191899993E+02  0.66597939552E+02  0.00000000000E+00 0. -1.
         13    1    3    3    0    0  0.16787476367E+02  0.57329019770E+01  0.25397128913E+02  0.30979020076E+02  0.00000000000E+00 0.  1.
<mgrwt>
<rscale>  0 0.89533395E+02</rscale>
<asrwt>0</asrwt>
<pdfrwt beam="2">  1        1 0.10490133E-01 0.89533395E+02</pdfrwt>
<pdfrwt beam="1">  1       -1 0.45217069E-02 0.89533395E+02</pdfrwt>
<totfact> 0.10331785E+05</totfact>
</mgrwt>
</event>
<event>
 5    1  0.1270889E+001  0.9210240E+02  0.7546771E-02  0.1297839E+00
          1   -1    0    0  501    0  0.00000000000E+00  0.00000000000E+00  0.21524917618E+03  0.21524917618E+03  0.00000000000E+00 0. -1.
         -1   -1    0    0    0  501 -0.00000000000E+00 -0.00000000000E+00 -0.98523635651E+01  0.98523635651E+01  0.00000000000E+00 0.  1.
         23    2    1    2    0    0  0.00000000000E+00  0.00000000000E+00  0.20539681262E+03  0.22510153975E+03  0.92102402592E+02 0.  0.
        -13    1    3    3    0    0  0.30331279317E+02  0.14379276497E+02  0.25644861173E+02  0.42242265590E+02  0.00000000000E+00 0.  1.
         13    1    3    3    0    0 -0.30331279317E+02 -0.14379276497E+02  0.17975195144E+03  0.18285927416E+03  0.00000000000E+00 0. -1.
<mgrwt>
<rscale>  0 0.92102403E+02</rscale>
<asrwt>0</asrwt>
<pdfrwt beam="1">  1        1 0.33115254E-01 0.92102403E+02</pdfrwt>
<pdfrwt beam="2">  1       -1 0.15157484E-02 0.92102403E+02</pdfrwt>
<totfact> 0.11690086E+05</totfact>
</mgrwt>
</event>
<event>
 5    1  0.1270889E+001  0.8789700E+02  0.7546771E-02  0.1308026E+00
         -1   -1    0    0    0  501 -0.00000000000E+00  0.00000000000E+00  0.69524390400E+01  0.69524390400E+01  0.00000000000E+00 0.  1.
          1   -1    0    0  501    0  0.00000000000E+00 -0.00000000000E+00 -0.27781197572E+03  0.27781197572E+03  0.00000000000E+00 0. -1.
         23    2    1    2    0    0  0.00000000000E+00  0.00000000000E+00 -0.27085953668E+03  0.28476441476E+03  0.87897003949E+02 0.  0.
        -13    1    3    3    0    0 -0.41765027208E+02  0.43174638927E+01 -0.93373751682E+02  0.10237976116E+03  0.00000000000E+00 0.  1.
         13    1    3    3    0    0  0.41765027208E+02 -0.43174638927E+01 -0.17748578500E+03  0.18238465360E+03  0.00000000000E+00 0. -1.
<mgrwt>
<rscale>  0 0.87897004E+02</rscale>
<asrwt>0</asrwt>
<pdfrwt beam="2">  1        1 0.42740304E-01 0.87897004E+02</pdfrwt>
<pdfrwt beam="1">  1       -1 0.10696060E-02 0.87897004E+02</pdfrwt>
<totfact> 0.13916638E+05</totfact>
</mgrwt>
</event>
<event>
 5    1  0.1270889E+001  0.9349206E+02  0.7546771E-02  0.1294609E+00
          2   -1    0    0  501    0  0.00000000000E+00  0.00000000000E+00  0.11172436427E+02  0.11172436427E+02  0.00000000000E+00 0. -1.
         -2   -1    0    0    0  501 -0.00000000000E+00 -0.00000000000E+00 -0.19558772645E+03  0.19558772645E+03  0.00000000000E+00 0.  1.
         23    2    1    2    0    0  0.00000000000E+00  0.00000000000E+00 -0.18441529002E+03  0.20676016288E+03  0.93492062545E+02 0.  0.
        -13    1    3    3    0    0 -0.26178194339E+02  0.17034998940E+02 -0.16912624915E+03  0.17198597966E+03  0.00000000000E+00 0.  1.
         13    1    3    3    0    0  0.26178194339E+02 -0.17034998940E+02 -0.15289040874E+02  0.34774183220E+02  0.00000000000E+00 0. -1.
<mgrwt>
<rscale>  0 0.93492063E+02</rscale>
<asrwt>0</asrwt>
<pdfrwt beam="1">  1        2 0.17188365E-02 0.93492063E+02</pdfrwt>
<pdfrwt beam="2">  1       -2 0.30090418E-01 0.93492063E+02</pdfrwt>
<totfact> 0.59015099E+04</totfact>
</mgrwt>
</event>
<event>
 5    1  0.1270889E+001  0.9083778E+02  0.7546771E-02  0.1300835E+00
          1   -1    0    0  501    0  0.00000000000E+00  0.00000000000E+00  0.12155532563E+03  0.12155532563E+03  0.00000000000E+00 0. -1.
         -1   -1    0    0    0  501 -0.00000000000E+00 -0.00000000000E+00 -0.16970671370E+02  0.16970671370E+02  0.00000000000E+00 0.  1.
         23    2    1    2    0    0  0.00000000000E+00  0.00000000000E+00  0.10458465426E+03  0.13852599700E+03  0.90837778143E+02 0.  0.
        -11    1    3    3    0    0 -0.19359451203E+01 -0.31393731281E+02  0.23259119097E+01  0.31539247192E+02  0.00000000000E+00 0.  1.
         11    1    3    3    0    0  0.19359451203E+01  0.31393731281E+02  0.10225874235E+03  0.10698674981E+03  0.00000000000E+00 0. -1.
<mgrwt>
<rscale>  0 0.90837778E+02</rscale>
<asrwt>0</asrwt>
<pdfrwt beam="1">  1        1 0.18700819E-01 0.90837778E+02</pdfrwt>
<pdfrwt beam="2">  1       -1 0.26108726E-02 0.90837778E+02</pdfrwt>
<totfact> 0.10907634E+05</totfact>
</mgrwt>
</event>
<event>
 5    1  0.1270889E+001  0.9402959E+02  0.7546771E-02  0.1293377E+00
          1   -1    0    0  501    0  0.00000000000E+00  0.00000000000E+00  0.34006784916E+02  0.34006784916E+02  0.00000000000E+00 0. -1.
         -1   -1    0    0    0  501 -0.00000000000E+00 -0.00000000000E+00 -0.64998520834E+02  0.64998520834E+02  0.00000000000E+00 0.  1.
         23    2    1    2    0    0  0.00000000000E+00  0.00000000000E+00 -0.30991735918E+02  0.99005305750E+02  0.94029585086E+02 0.  0.
        -13    1    3    3    0    0 -0.33349732322E+00 -0.45216132167E+02 -0.29052792602E+02  0.53746391382E+02  0.00000000000E+00 0.  1.
         13    1    3    3    0    0  0.33349732322E+00  0.45216132167E+02 -0.19389433161E+01  0.45258914368E+02  0.00000000000E+00 0. -1.
<mgrwt>
<rscale>  0 0.94029585E+02</rscale>
<asrwt>0</asrwt>
<pdfrwt beam="1">  1        1 0.52318131E-02 0.94029585E+02</pdfrwt>
<pdfrwt beam="2">  1       -1 0.99997724E-02 0.94029585E+02</pdfrwt>
<totfact> 0.80966931E+04</totfact>
</mgrwt>
</event>
<event>
 5    1  0.1270889E+001  0.9183694E+02  0.7546771E-02  0.1298463E+00
          1   -1    0    0  501    0  0.00000000000E+00  0.00000000000E+00  0.82757179234E+02  0.82757179234E+02  0.00000000000E+00 0. -1.
         -1   -1    0    0    0  501 -0.00000000000E+00 -0.00000000000E+00 -0.25478221562E+02  0.25478221562E+02  0.00000000000E+00 0.  1.
         23    2    1    2    0    0  0.00000000000E+00  0.00000000000E+00  0.57278957672E+02  0.10823540080E+03  0.91836936977E+02 0.  0.
        -13    1    3    3    0    0  0.29220387733E+02  0.35388780204E+02  0.26848638653E+02  0.53169974808E+02  0.00000000000E+00 0. -1.
         13    1    3    3    0    0 -0.29220387733E+02 -0.35388780204E+02  0.30430319019E+02  0.55065425988E+02  0.00000000000E+00 0.  1.
<mgrwt>
<rscale>  0 0.91836937E+02</rscale>
<asrwt>0</asrwt>
<pdfrwt beam="1">  1        1 0.12731874E-01 0.91836937E+02</pdfrwt>
<pdfrwt beam="2">  1       -1 0.39197264E-02 0.91836937E+02</pdfrwt>
<totfact> 0.99299860E+04</totfact>
</mgrwt>
</event>
<event>
 5    1  0.1270889E+001  0.9171880E+02  0.7546771E-02  0.1298742E+00
          3   -1    0    0  501    0  0.00000000000E+00  0.00000000000E+00  0.52292458688E+02  0.52292458688E+02  0.00000000000E+00 0. -1.
         -3   -1    0    0    0  501 -0.00000000000E+00 -0.00000000000E+00 -0.40217737200E+02  0.40217737200E+02  0.00000000000E+00 0.  1.
         23    2    1    2    0    0  0.00000000000E+00  0.00000000000E+00  0.12074721488E+02  0.92510195888E+02  0.91718795480E+02 0.  0.
        -13    1    3    3    0    0  0.19928136372E+02 -0.40924409038E+02  0.11666419620E+02  0.46989820398E+02  0.00000000000E+00 0.  1.
         13    1    3    3    0    0 -0.19928136372E+02  0.40924409038E+02  0.40830186802E+00  0.45520375490E+02  0.00000000000E+00 0. -1.
<mgrwt>
<rscale>  0 0.91718795E+02</rscale>
<asrwt>0</asrwt>
<pdfrwt beam="1">  1        3 0.80449937E-02 0.91718795E+02</pdfrwt>
<pdfrwt beam="2">  1       -3 0.61873442E-02 0.91718795E+02</pdfrwt>
<totfact> 0.34671177E+04</totfact>
</mgrwt>
</event>
<event>
 5    1  0.1270889E+001  0.9204593E+02  0.7546771E-02  0.1297971E+00
         -1   -1    0    0    0  501 -0.00000000000E+00  0.00000000000E+00  0.32351849606E+02  0.32351849606E+02  0.00000000000E+00 0.  1.
          1   -1    0    0  501    0  0.00000000000E+00 -0.00000000000E+00 -0.65471168881E+02  0.65471168881E+02  0.00000000000E+00 0. -1.
         23    2    1    2    0    0  0.00000000000E+00  0.00000000000E+00 -0.33119319275E+02  0.97823018487E+02  0.92045932212E+02 0.  0.
        -13    1    3    3    0    0  0.34630119817E+02  0.29862832765E+02 -0.11029263793E+02  0.47039118180E+02  0.00000000000E+00 0.  1.
         13    1    3    3    0    0 -0.34630119817E+02 -0.29862832765E+02 -0.22090055481E+02  0.50783900308E+02  0.00000000000E+00 0. -1.
<mgrwt>
<rscale>  0 0.92045932E+02</rscale>
<asrwt>0</asrwt>
<pdfrwt beam="2">  1        1 0.10072487E-01 0.92045932E+02</pdfrwt>
<pdfrwt beam="1">  1       -1 0.49772077E-02 0.92045932E+02</pdfrwt>
<totfact> 0.95126415E+04</totfact>
</mgrwt>
</event>
<event>
 5    1  0.1270889E+001  0.9143701E+02  0.7546771E-02  0.1299409E+00
          1   -1    0    0  501    0  0.00000000000E+00  0.00000000000E+00  0.36901302635E+03  0.36901302635E+03  0.00000000000E+00 0. -1.
         -1   -1    0    0    0  501 -0.00000000000E+00 -0.00000000000E+00 -0.56642493163E+01  0.56642493163E+01  0.00000000000E+00 0.  1.
         23    2    1    2    0    0  0.00000000000E+00  0.00000000000E+00  0.36334877703E+03  0.37467727567E+03  0.91437011810E+02 0.  0.
        -11    1    3    3    0    0  0.42160757953E+02  0.17632005814E+02  0.18711770553E+03  0.19261737425E+03  0.00000000000E+00 0. -1.
         11    1    3    3    0    0 -0.42160757953E+02 -0.17632005814E+02  0.17623107150E+03  0.18205990141E+03  0.00000000000E+00 0.  1.
<mgrwt>
<rscale>  0 0.91437012E+02</rscale>
<asrwt>0</asrwt>
<pdfrwt beam="1">  1        1 0.56771216E-01 0.91437012E+02</pdfrwt>
<pdfrwt beam="2">  1       -1 0.87142326E-03 0.91437012E+02</pdfrwt>
<totfact> 0.13205934E+05</totfact>
</mgrwt>
</event>
<event>
 5    1  0.1270889E+001  0.9118493E+02  0.7546771E-02  0.1300007E+00
         -2   -1    0    0    0  501 -0.00000000000E+00  0.00000000000E+00  0.19691992924E+02  0.19691992924E+02  0.00000000000E+00 0.  1.
          2   -1    0    0  501    0  0.00000000000E+00 -0.00000000000E+00 -0.10555929513E+03  0.10555929513E+03  0.00000000000E+00 0. -1.
         23    2    1    2    0    0  0.00000000000E+00  0.00000000000E+00 -0.85867302204E+02  0.12525128805E+03  0.91184930612E+02 0.  0.
        -13    1    3    3    0    0 -0.35468752549E+01  0.36951570701E+02 -0.65742159938E+01  0.37699061226E+02  0.00000000000E+00 0.  1.
         13    1    3    3    0    0  0.35468752549E+01 -0.36951570701E+02 -0.79293086210E+02  0.87552226825E+02  0.00000000000E+00 0. -1.
<mgrwt>
<rscale>  0 0.91184931E+02</rscale>
<asrwt>0</asrwt>
<pdfrwt beam="2">  1        2 0.16239892E-01 0.91184931E+02</pdfrwt>
<pdfrwt beam="1">  1       -2 0.30295374E-02 0.91184931E+02</pdfrwt>
<totfact> 0.12469918E+05</totfact>
</mgrwt>
</event>
<event>
 5    1  0.1270889E+001  0.9100142E+02  0.7546771E-02  0.1300445E+00
          1   -1    0    0  501    0  0.00000000000E+00  0.00000000000E+00  0.13836754998E+03  0.13836754998E+03  0.00000000000E+00 0. -1.
         -1   -1    0    0    0  501 -0.00000000000E+00 -0.00000000000E+00 -0.14962428557E+02  0.14962428557E+02  0.00000000000E+00 0.  1.
         23    2    1    2    0    0  0.00000000000E+00  0.00000000000E+00  0.12340512142E+03  0.15332997854E+03  0.91001419356E+02 0.  0.
        -11    1    3    3    0    0  0.27036908324E+02 -0.60675110046E+01  0.89344494562E+00  0.27723768600E+02  0.00000000000E+00 0.  1.
         11    1    3    3    0    0 -0.27036908324E+02  0.60675110046E+01  0.12251167648E+03  0.12560620994E+03  0.00000000000E+00 0. -1.
<mgrwt>
<rscale>  0 0.91001419E+02</rscale>
<asrwt>0</asrwt>
<pdfrwt beam="1">  1        1 0.21287315E-01 0.91001419E+02</pdfrwt>
<pdfrwt beam="2">  1       -1 0.23019122E-02 0.91001419E+02</pdfrwt>
<totfact> 0.11107239E+05</totfact>
</mgrwt>
</event>
<event>
 5    1  0.1270889E+001  0.8984883E+02  0.7546771E-02  0.1303218E+00
          2   -1    0    0  501    0  0.00000000000E+00  0.00000000000E+00  0.39026341138E+02  0.39026341138E+02  0.00000000000E+00 0. -1.
         -2   -1    0    0    0  501 -0.00000000000E+00 -0.00000000000E+00 -0.51713873349E+02  0.51713873349E+02  0.00000000000E+00 0.  1.
         23    2    1    2    0    0  0.00000000000E+00  0.00000000000E+00 -0.12687532211E+02  0.90740214487E+02  0.89848834447E+02 0.  0.
        -13    1    3    3    0    0  0.14545914103E+01  0.24292107769E+02 -0.44480562849E+02  0.50702493109E+02  0.00000000000E+00 0.  1.
         13    1    3    3    0    0 -0.14545914103E+01 -0.24292107769E+02  0.31793030638E+02  0.40037721379E+02  0.00000000000E+00 0. -1.
<mgrwt>
<rscale>  0 0.89848834E+02</rscale>
<asrwt>0</asrwt>
<pdfrwt beam="1">  1        2 0.60040525E-02 0.89848834E+02</pdfrwt>
<pdfrwt beam="2">  1       -2 0.79559805E-02 0.89848834E+02</pdfrwt>
<totfact> 0.98894764E+04</totfact>
</mgrwt>
</event>
<event>
 5    1  0.1270889E+001  0.9494640E+02  0.7546771E-02  0.1291297E+00
          1   -1    0    0  501    0  0.00000000000E+00  0.00000000000E+00  0.29164538676E+02  0.29164538676E+02  0.00000000000E+00 0. -1.
         -1   -1    0    0    0  501 -0.00000000000E+00 -0.00000000000E+00 -0.77275508150E+02  0.77275508150E+02  0.00000000000E+00 0.  1.
         23    2    1    2    0    0  0.00000000000E+00  0.00000000000E+00 -0.48110969474E+02  0.10644004683E+03  0.94946396375E+02 0.  0.
        -13    1    3    3    0    0 -0.36338978447E+02 -0.18312819592E+02  0.33547769782E+01  0.40830567527E+02  0.00000000000E+00 0. -1.
         13    1    3    3    0    0  0.36338978447E+02  0.18312819592E+02 -0.51465746453E+02  0.65609479299E+02  0.00000000000E+00 0.  1.
<mgrwt>
<rscale>  0 0.94946396E+02</rscale>
<asrwt>0</asrwt>
<pdfrwt beam="1">  1        1 0.44868522E-02 0.94946396E+02</pdfrwt>
<pdfrwt beam="2">  1       -1 0.11888540E-01 0.94946396E+02</pdfrwt>
<totfact> 0.76755228E+04</totfact>
</mgrwt>
</event>
<event>
 5    1  0.1270889E+001  0.9020041E+02  0.7546771E-02  0.1302367E+00
          1   -1    0    0  501    0  0.00000000000E+00  0.00000000000E+00  0.31079818943E+02  0.31079818943E+02  0.00000000000E+00 0. -1.
         -1   -1    0    0    0  501 -0.00000000000E+00 -0.00000000000E+00 -0.65445320628E+02  0.65445320628E+02  0.00000000000E+00 0.  1.
         23    2    1    2    0    0  0.00000000000E+00  0.00000000000E+00 -0.34365501685E+02  0.96525139571E+02  0.90200414983E+02 0.  0.
        -11    1    3    3    0    0 -0.15633217647E+02  0.42301759534E+02 -0.17652095274E+02  0.48429668812E+02  0.00000000000E+00 0. -1.
         11    1    3    3    0    0  0.15633217647E+02 -0.42301759534E+02 -0.16713406412E+02  0.48095470759E+02  0.00000000000E+00 0.  1.
<mgrwt>
<rscale>  0 0.90200415E+02</rscale>
<asrwt>0</asrwt>
<pdfrwt beam="1">  1        1 0.47815107E-02 0.90200415E+02</pdfrwt>
<pdfrwt beam="2">  1       -1 0.10068511E-01 0.90200415E+02</pdfrwt>
<totfact> 0.89904072E+04</totfact>
</mgrwt>
</event>
<event>
 5    1  0.1270889E+001  0.8644391E+02  0.7546771E-02  0.1311699E+00
         -1   -1    0    0    0  501 -0.00000000000E+00  0.00000000000E+00  0.10902171775E+03  0.10902171775E+03  0.00000000000E+00 0.  1.
          1   -1    0    0  501    0  0.00000000000E+00 -0.00000000000E+00 -0.17135461824E+02  0.17135461824E+02  0.00000000000E+00 0. -1.
         23    2    1    2    0    0  0.00000000000E+00  0.00000000000E+00  0.91886255928E+02  0.12615717958E+03  0.86443912048E+02 0.  0.
        -13    1    3    3    0    0  0.19303508496E+02 -0.30736676723E+02  0.11692999689E+02  0.38132597314E+02  0.00000000000E+00 0. -1.
         13    1    3    3    0    0 -0.19303508496E+02  0.30736676723E+02  0.80193256239E+02  0.88024582262E+02  0.00000000000E+00 0.  1.
<mgrwt>
<rscale>  0 0.86443912E+02</rscale>
<asrwt>0</asrwt>
<pdfrwt beam="2">  1        1 0.26362250E-02 0.86443912E+02</pdfrwt>
<pdfrwt beam="1">  1       -1 0.16772572E-01 0.86443912E+02</pdfrwt>
<totfact> 0.91824628E+04</totfact>
</mgrwt>
</event>
<event>
 5    1  0.1270889E+001  0.8953824E+02  0.7546771E-02  0.1303974E+00
          4   -1    0    0  501    0  0.00000000000E+00  0.00000000000E+00  0.14078898196E+03  0.14078898196E+03  0.00000000000E+00 0. -1.
         -4   -1    0    0    0  501 -0.00000000000E+00 -0.00000000000E+00 -0.14236015811E+02  0.14236015811E+02  0.00000000000E+00 0.  1.
         23    2    1    2    0    0  0.00000000000E+00  0.00000000000E+00  0.12655296615E+03  0.15502499777E+03  0.89538241510E+02 0.  0.
        -13    1    3    3    0    0 -0.30633796071E+02 -0.22838562121E+02  0.10366801396E+03  0.11048568460E+03  0.00000000000E+00 0. -1.
         13    1    3    3    0    0  0.30633796071E+02  0.22838562121E+02  0.22884952182E+02  0.44539313173E+02  0.00000000000E+00 0.  1.
<mgrwt>
<rscale>  0 0.89538242E+02</rscale>
<asrwt>0</asrwt>
<pdfrwt beam="1">  1        4 0.21659842E-01 0.89538242E+02</pdfrwt>
<pdfrwt beam="2">  1       -4 0.21901564E-02 0.89538242E+02</pdfrwt>
<totfact> 0.24590645E+04</totfact>
</mgrwt>
</event>
<event>
 5    1  0.1270889E+001  0.9077068E+02  0.7546771E-02  0.1300996E+00
         -4   -1    0    0    0  501 -0.00000000000E+00  0.00000000000E+00  0.67461771353E+02  0.67461771353E+02  0.00000000000E+00 0. -1.
          4   -1    0    0  501    0  0.00000000000E+00 -0.00000000000E+00 -0.30533278911E+02  0.30533278911E+02  0.00000000000E+00 0.  1.
         23    2    1    2    0    0  0.00000000000E+00  0.00000000000E+00  0.36928492442E+02  0.97995050264E+02  0.90770679860E+02 0.  0.
        -11    1    3    3    0    0 -0.26104640010E+02 -0.36263179181E+02  0.98709133846E+01  0.45759210280E+02  0.00000000000E+00 0.  1.
         11    1    3    3    0    0  0.26104640010E+02  0.36263179181E+02  0.27057579057E+02  0.52235839984E+02  0.00000000000E+00 0. -1.
<mgrwt>
<rscale>  0 0.90770680E+02</rscale>
<asrwt>0</asrwt>
<pdfrwt beam="2">  1        4 0.46974275E-02 0.90770680E+02</pdfrwt>
<pdfrwt beam="1">  1       -4 0.10378734E-01 0.90770680E+02</pdfrwt>
<totfact> 0.26906353E+04</totfact>
</mgrwt>
</event>
<event>
 5    1  0.1270889E+001  0.9161892E+02  0.7546771E-02  0.1298978E+00
          4   -1    0    0  501    0  0.00000000000E+00  0.00000000000E+00  0.16207797601E+02  0.16207797601E+02  0.00000000000E+00 0. -1.
         -4   -1    0    0    0  501 -0.00000000000E+00 -0.00000000000E+00 -0.12947512052E+03  0.12947512052E+03  0.00000000000E+00 0.  1.
         23    2    1    2    0    0  0.00000000000E+00  0.00000000000E+00 -0.11326732292E+03  0.14568291812E+03  0.91618918302E+02 0.  0.
        -11    1    3    3    0    0  0.35467185366E+02  0.25389978570E+02 -0.34376042415E+02  0.55536335328E+02  0.00000000000E+00 0. -1.
         11    1    3    3    0    0 -0.35467185366E+02 -0.25389978570E+02 -0.78891280502E+02  0.90146582790E+02  0.00000000000E+00 0.  1.
<mgrwt>
<rscale>  0 0.91618918E+02</rscale>
<asrwt>0</asrwt>
<pdfrwt beam="1">  1        4 0.24935074E-02 0.91618918E+02</pdfrwt>
<pdfrwt beam="2">  1       -4 0.19919249E-01 0.91618918E+02</pdfrwt>
<totfact> 0.23581905E+04</totfact>
</mgrwt>
</event>
<event>
 5    1  0.1270889E+001  0.9571565E+02  0.7546771E-02  0.1289572E+00
          3   -1    0    0  501    0  0.00000000000E+00  0.00000000000E+00  0.14202173745E+03  0.14202173745E+03  0.00000000000E+00 0. -1.
         -3   -1    0    0    0  501 -0.00000000000E+00 -0.00000000000E+00 -0.16126908976E+02  0.16126908976E+02  0.00000000000E+00 0.  1.
         23    2    1    2    0    0  0.00000000000E+00  0.00000000000E+00  0.12589482848E+03  0.15814864643E+03  0.95715654572E+02 0.  0.
        -11    1    3    3    0    0 -0.27332718699E+02 -0.51021260169E+00  0.12785122934E+03  0.13074125085E+03  0.00000000000E+00 0. -1.
         11    1    3    3    0    0  0.27332718699E+02  0.51021260169E+00 -0.19564008634E+01  0.27407395585E+02  0.00000000000E+00 0.  1.
<mgrwt>
<rscale>  0 0.95715655E+02</rscale>
<asrwt>0</asrwt>
<pdfrwt beam="1">  1        3 0.21849497E-01 0.95715655E+02</pdfrwt>
<pdfrwt beam="2">  1       -3 0.24810630E-02 0.95715655E+02</pdfrwt>
<totfact> 0.27004444E+04</totfact>
</mgrwt>
</event>
<event>
 5    1  0.1270889E+001  0.9108151E+02  0.7546771E-02  0.1300254E+00
         -4   -1    0    0    0  501 -0.00000000000E+00  0.00000000000E+00  0.56135776357E+02  0.56135776357E+02  0.00000000000E+00 0.  1.
          4   -1    0    0  501    0  0.00000000000E+00 -0.00000000000E+00 -0.36945430132E+02  0.36945430132E+02  0.00000000000E+00 0. -1.
         23    2    1    2    0    0  0.00000000000E+00  0.00000000000E+00  0.19190346225E+02  0.93081206489E+02  0.91081510820E+02 0.  0.
        -13    1    3    3    0    0  0.25500602796E+02 -0.11075943964E+02 -0.27266152381E+02  0.38940985392E+02  0.00000000000E+00 0. -1.
         13    1    3    3    0    0 -0.25500602796E+02  0.11075943964E+02  0.46456498606E+02  0.54140221097E+02  0.00000000000E+00 0.  1.
<mgrwt>
<rscale>  0 0.91081511E+02</rscale>
<asrwt>0</asrwt>
<pdfrwt beam="2">  1        4 0.56839123E-02 0.91081511E+02</pdfrwt>
<pdfrwt beam="1">  1       -4 0.86362733E-02 0.91081511E+02</pdfrwt>
<totfact> 0.26970864E+04</totfact>
</mgrwt>
</event>
<event>
 5    1  0.1270889E+001  0.8585313E+02  0.7546771E-02  0.1313216E+00
         -2   -1    0    0    0  501 -0.00000000000E+00  0.00000000000E+00  0.14104415414E+02  0.14104415414E+02  0.00000000000E+00 0.  1.
          2   -1    0    0  501    0  0.00000000000E+00 -0.00000000000E+00 -0.13064633398E+03  0.13064633398E+03  0.00000000000E+00 0. -1.
         23    2    1    2    0    0  0.00000000000E+00  0.00000000000E+00 -0.11654191856E+03  0.14475074939E+03  0.85853134287E+02 0.  0.
        -11    1    3    3    0    0  0.41591596732E+01 -0.40855514019E+02 -0.37197737304E+02  0.55408873797E+02  0.00000000000E+00 0.  1.
         11    1    3    3    0    0 -0.41591596732E+01  0.40855514019E+02 -0.79344181260E+02  0.89341875595E+02  0.00000000000E+00 0. -1.
<mgrwt>
<rscale>  0 0.85853134E+02</rscale>
<asrwt>0</asrwt>
<pdfrwt beam="2">  1        2 0.20099436E-01 0.85853134E+02</pdfrwt>
<pdfrwt beam="1">  1       -2 0.21699100E-02 0.85853134E+02</pdfrwt>
<totfact> 0.15716883E+05</totfact>
</mgrwt>
</event>
<event>
 5    1  0.1270889E+001  0.8947571E+02  0.7546771E-02  0.1304126E+00
         -1   -1    0    0    0  501 -0.00000000000E+00  0.00000000000E+00  0.23576970219E+02  0.23576970219E+02  0.00000000000E+00 0.  1.
          1   -1    0    0  501    0  0.00000000000E+00 -0.00000000000E+00 -0.84891130145E+02  0.84891130145E+02  0.00000000000E+00 0. -1.
         23    2    1    2    0    0  0.00000000000E+00  0.00000000000E+00 -0.61314159926E+02  0.10846810036E+03  0.89475709493E+02 0.  0.
        -11    1    3    3    0    0 -0.34253042951E+02  0.27794201669E+02 -0.21610717441E+02  0.49120379743E+02  0.00000000000E+00 0.  1.
         11    1    3    3    0    0  0.34253042951E+02 -0.27794201669E+02 -0.39703442485E+02  0.59347720621E+02  0.00000000000E+00 0. -1.
<mgrwt>
<rscale>  0 0.89475709E+02</rscale>
<asrwt>0</asrwt>
<pdfrwt beam="2">  1        1 0.13060174E-01 0.89475709E+02</pdfrwt>
<pdfrwt beam="1">  1       -1 0.36272262E-02 0.89475709E+02</pdfrwt>
<totfact> 0.10707189E+05</totfact>
</mgrwt>
</event>
<event>
 5    1  0.1270889E+001  0.8108189E+02  0.7546771E-02  0.1326009E+00
          1   -1    0    0  501    0  0.00000000000E+00  0.00000000000E+00  0.17043658478E+02  0.17043658478E+02  0.00000000000E+00 0. -1.
         -1   -1    0    0    0  501 -0.00000000000E+00 -0.00000000000E+00 -0.96432837571E+02  0.96432837571E+02  0.00000000000E+00 0.  1.
         23    2    1    2    0    0  0.00000000000E+00  0.00000000000E+00 -0.79389179093E+02  0.11347649605E+03  0.81081893160E+02 0.  0.
        -11    1    3    3    0    0  0.34469553174E+02  0.17565805233E+02 -0.56654942774E+02  0.68603863960E+02  0.00000000000E+00 0.  1.
         11    1    3    3    0    0 -0.34469553174E+02 -0.17565805233E+02 -0.22734236319E+02  0.44872632088E+02  0.00000000000E+00 0. -1.
<mgrwt>
<rscale>  0 0.81081893E+02</rscale>
<asrwt>0</asrwt>
<pdfrwt beam="1">  1        1 0.26221013E-02 0.81081893E+02</pdfrwt>
<pdfrwt beam="2">  1       -1 0.14835821E-01 0.81081893E+02</pdfrwt>
<totfact> 0.11069665E+05</totfact>
</mgrwt>
</event>
<event>
 5    1  0.1270889E+001  0.1021745E+03  0.7546771E-02  0.1275789E+00
          2   -1    0    0  501    0  0.00000000000E+00  0.00000000000E+00  0.34493239092E+03  0.34493239092E+03  0.00000000000E+00 0. -1.
         -2   -1    0    0    0  501 -0.00000000000E+00 -0.00000000000E+00 -0.75664248259E+01  0.75664248259E+01  0.00000000000E+00 0.  1.
         23    2    1    2    0    0  0.00000000000E+00  0.00000000000E+00  0.33736596609E+03  0.35249881574E+03  0.10217445876E+03 0.  0.
        -11    1    3    3    0    0 -0.25938416413E+02 -0.43470638686E+02  0.19243700525E+03  0.19898366482E+03  0.00000000000E+00 0.  1.
         11    1    3    3    0    0  0.25938416413E+02  0.43470638686E+02  0.14492896084E+03  0.15351515092E+03  0.00000000000E+00 0. -1.
<mgrwt>
<rscale>  0 0.10217446E+03</rscale>
<asrwt>0</asrwt>
<pdfrwt beam="1">  1        2 0.53066509E-01 0.10217446E+03</pdfrwt>
<pdfrwt beam="2">  1       -2 0.11640656E-02 0.10217446E+03</pdfrwt>
<totfact> 0.13944122E+05</totfact>
</mgrwt>
</event>
<event>
 5    1  0.1270889E+001  0.9178108E+02  0.7546771E-02  0.1298595E+00
          1   -1    0    0  501    0  0.00000000000E+00  0.00000000000E+00  0.33893132544E+03  0.33893132544E+03  0.00000000000E+00 0. -1.
         -1   -1    0    0    0  501 -0.00000000000E+00 -0.00000000000E+00 -0.62134761627E+01  0.62134761627E+01  0.00000000000E+00 0.  1.
         23    2    1    2    0    0  0.00000000000E+00  0.00000000000E+00  0.33271784928E+03  0.34514480161E+03  0.91781081088E+02 0.  0.
        -13    1    3    3    0    0 -0.19310352275E+02 -0.36098943290E+02  0.24433136619E+03  0.24773744149E+03  0.00000000000E+00 0. -1.
         13    1    3    3    0    0  0.19310352275E+02  0.36098943290E+02  0.88386483087E+02  0.97407360113E+02  0.00000000000E+00 0.  1.
<mgrwt>
<rscale>  0 0.91781081E+02</rscale>
<asrwt>0</asrwt>
<pdfrwt beam="1">  1        1 0.52143266E-01 0.91781081E+02</pdfrwt>
<pdfrwt beam="2">  1       -1 0.95591967E-03 0.91781081E+02</pdfrwt>
<totfact> 0.12878649E+05</totfact>
</mgrwt>
</event>
<event>
 5    1  0.1270889E+001  0.9225693E+02  0.7546771E-02  0.1297476E+00
         -1   -1    0    0    0  501 -0.00000000000E+00  0.00000000000E+00  0.90911556155E+02  0.90911556155E+02  0.00000000000E+00 0.  1.
          1   -1    0    0  501    0  0.00000000000E+00 -0.00000000000E+00 -0.23405555742E+02  0.23405555742E+02  0.00000000000E+00 0. -1.
         23    2    1    2    0    0  0.00000000000E+00  0.00000000000E+00  0.67506000413E+02  0.11431711190E+03  0.92256934594E+02 0.  0.
        -11    1    3    3    0    0  0.27477271836E+02  0.36966381223E+02  0.36868507074E+02  0.58998310334E+02  0.00000000000E+00 0. -1.
         11    1    3    3    0    0 -0.27477271836E+02 -0.36966381223E+02  0.30637493339E+02  0.55318801563E+02  0.00000000000E+00 0.  1.
<mgrwt>
<rscale>  0 0.92256935E+02</rscale>
<asrwt>0</asrwt>
<pdfrwt beam="2">  1        1 0.36008548E-02 0.92256935E+02</pdfrwt>
<pdfrwt beam="1">  1       -1 0.13986393E-01 0.92256935E+02</pdfrwt>
<totfact> 0.80323456E+04</totfact>
</mgrwt>
</event>
<event>
 5    1  0.1270889E+001  0.9115122E+02  0.7546771E-02  0.1300088E+00
          1   -1    0    0  501    0  0.00000000000E+00  0.00000000000E+00  0.41696459738E+02  0.41696459738E+02  0.00000000000E+00 0. -1.
         -1   -1    0    0    0  501 -0.00000000000E+00 -0.00000000000E+00 -0.49815644849E+02  0.49815644849E+02  0.00000000000E+00 0.  1.
         23    2    1    2    0    0  0.00000000000E+00  0.00000000000E+00 -0.81191851110E+01  0.91512104588E+02  0.91151215676E+02 0.  0.
        -13    1    3    3    0    0  0.23386784148E+02  0.68083237522E+01  0.34613577604E+02  0.42324870935E+02  0.00000000000E+00 0. -1.
         13    1    3    3    0    0 -0.23386784148E+02 -0.68083237522E+01 -0.42732762715E+02  0.49187233653E+02  0.00000000000E+00 0.  1.
<mgrwt>
<rscale>  0 0.91151216E+02</rscale>
<asrwt>0</asrwt>
<pdfrwt beam="1">  1        1 0.64148400E-02 0.91151216E+02</pdfrwt>
<pdfrwt beam="2">  1       -1 0.76639453E-02 0.91151216E+02</pdfrwt>
<totfact> 0.91308872E+04</totfact>
</mgrwt>
</event>
<event>
 5    1  0.1270889E+001  0.9338859E+02  0.7546771E-02  0.1294847E+00
          1   -1    0    0  501    0  0.00000000000E+00  0.00000000000E+00  0.37495449858E+02  0.37495449858E+02  0.00000000000E+00 0. -1.
         -1   -1    0    0    0  501 -0.00000000000E+00 -0.00000000000E+00 -0.58149914879E+02  0.58149914879E+02  0.00000000000E+00 0.  1.
         23    2    1    2    0    0  0.00000000000E+00  0.00000000000E+00 -0.20654465021E+02  0.95645364737E+02  0.93388590686E+02 0.  0.
        -13    1    3    3    0    0 -0.39764741949E+02 -0.13388003366E+02 -0.31313476009E+02  0.52354628412E+02  0.00000000000E+00 0.  1.
         13    1    3    3    0    0  0.39764741949E+02  0.13388003366E+02  0.10659010988E+02  0.43290736325E+02  0.00000000000E+00 0. -1.
<mgrwt>
<rscale>  0 0.93388591E+02</rscale>
<asrwt>0</asrwt>
<pdfrwt beam="1">  1        1 0.57685307E-02 0.93388591E+02</pdfrwt>
<pdfrwt beam="2">  1       -1 0.89461408E-02 0.93388591E+02</pdfrwt>
<totfact> 0.83859772E+04</totfact>
</mgrwt>
</event>
<event>
 5    1  0.1270889E+001  0.9124114E+02  0.7546771E-02  0.1299874E+00
         -2   -1    0    0    0  501 -0.00000000000E+00  0.00000000000E+00  0.25629957392E+02  0.25629957392E+02  0.00000000000E+00 0. -1.
          2   -1    0    0  501    0  0.00000000000E+00 -0.00000000000E+00 -0.81203272262E+02  0.81203272262E+02  0.00000000000E+00 0.  1.
         23    2    1    2    0    0  0.00000000000E+00  0.00000000000E+00 -0.55573314870E+02  0.10683322965E+03  0.91241140023E+02 0.  0.
        -13    1    3    3    0    0 -0.36229013649E+02  0.34748267308E+01  0.44206725649E+01  0.36662763081E+02  0.00000000000E+00 0. -1.
         13    1    3    3    0    0  0.36229013649E+02 -0.34748267308E+01 -0.59993987435E+02  0.70170466573E+02  0.00000000000E+00 0.  1.
<mgrwt>
<rscale>  0 0.91241140E+02</rscale>
<asrwt>0</asrwt>
<pdfrwt beam="2">  1        2 0.12492811E-01 0.91241140E+02</pdfrwt>
<pdfrwt beam="1">  1       -2 0.39430704E-02 0.91241140E+02</pdfrwt>
<totfact> 0.11512232E+05</totfact>
</mgrwt>
</event>
<event>
 5    1  0.1270889E+001  0.9136963E+02  0.7546771E-02  0.1299568E+00
         -3   -1    0    0    0  501 -0.00000000000E+00  0.00000000000E+00  0.40594570381E+02  0.40594570381E+02  0.00000000000E+00 0.  1.
          3   -1    0    0  501    0  0.00000000000E+00 -0.00000000000E+00 -0.51413333347E+02  0.51413333347E+02  0.00000000000E+00 0. -1.
         23    2    1    2    0    0  0.00000000000E+00  0.00000000000E+00 -0.10818762967E+02  0.92007903728E+02  0.91369626881E+02 0.  0.
        -13    1    3    3    0    0 -0.15752920561E+02 -0.18074296663E+02  0.33750159291E+02  0.41399371471E+02  0.00000000000E+00 0.  1.
         13    1    3    3    0    0  0.15752920561E+02  0.18074296663E+02 -0.44568922257E+02  0.50608532257E+02  0.00000000000E+00 0. -1.
<mgrwt>
<rscale>  0 0.91369627E+02</rscale>
<asrwt>0</asrwt>
<pdfrwt beam="2">  1        3 0.79097436E-02 0.91369627E+02</pdfrwt>
<pdfrwt beam="1">  1       -3 0.62453185E-02 0.91369627E+02</pdfrwt>
<totfact> 0.35072265E+04</totfact>
</mgrwt>
</event>
<event>
 5    1  0.1270889E+001  0.9234547E+02  0.7546771E-02  0.1297269E+00
         -3   -1    0    0    0  501 -0.00000000000E+00  0.00000000000E+00  0.47172174864E+02  0.47172174864E+02  0.00000000000E+00 0.  1.
          3   -1    0    0  501    0  0.00000000000E+00 -0.00000000000E+00 -0.45194466547E+02  0.45194466547E+02  0.00000000000E+00 0. -1.
         23    2    1    2    0    0  0.00000000000E+00  0.00000000000E+00  0.19777083169E+01  0.92366641411E+02  0.92345466134E+02 0.  0.
        -13    1    3    3    0    0 -0.34631613715E+02 -0.30521484538E+02  0.19948640926E+01  0.46204860887E+02  0.00000000000E+00 0.  1.
         13    1    3    3    0    0  0.34631613715E+02  0.30521484538E+02 -0.17155775651E-01  0.46161780524E+02  0.00000000000E+00 0. -1.
<mgrwt>
<rscale>  0 0.92345466E+02</rscale>
<asrwt>0</asrwt>
<pdfrwt beam="2">  1        3 0.69529949E-02 0.92345466E+02</pdfrwt>
<pdfrwt beam="1">  1       -3 0.72572577E-02 0.92345466E+02</pdfrwt>
<totfact> 0.34042372E+04</totfact>
</mgrwt>
</event>
<event>
 5    1  0.1270889E+001  0.9135593E+02  0.7546771E-02  0.1299601E+00
         -2   -1    0    0    0  501 -0.00000000000E+00  0.00000000000E+00  0.57653107945E+01  0.57653107945E+01  0.00000000000E+00 0.  1.
          2   -1    0    0  501    0  0.00000000000E+00 -0.00000000000E+00 -0.36190181672E+03  0.36190181672E+03  0.00000000000E+00 0. -1.
         23    2    1    2    0    0  0.00000000000E+00  0.00000000000E+00 -0.35613650593E+03  0.36766712752E+03  0.91355929211E+02 0.  0.
        -13    1    3    3    0    0 -0.38463260444E+02  0.24517489367E+02 -0.16825397554E+03  0.17432707757E+03  0.00000000000E+00 0.  1.
         13    1    3    3    0    0  0.38463260444E+02 -0.24517489367E+02 -0.18788253039E+03  0.19334004995E+03  0.00000000000E+00 0. -1.
<mgrwt>
<rscale>  0 0.91355929E+02</rscale>
<asrwt>0</asrwt>
<pdfrwt beam="2">  1        2 0.55677229E-01 0.91355929E+02</pdfrwt>
<pdfrwt beam="1">  1       -2 0.88697048E-03 0.91355929E+02</pdfrwt>
<totfact> 0.19152945E+05</totfact>
</mgrwt>
</event>
<event>
 5    1  0.1270889E+001  0.7140523E+02  0.7546771E-02  0.1355379E+00
         -1   -1    0    0    0  501 -0.00000000000E+00  0.00000000000E+00  0.64785279292E+01  0.64785279292E+01  0.00000000000E+00 0.  1.
          1   -1    0    0  501    0  0.00000000000E+00 -0.00000000000E+00 -0.19675406627E+03  0.19675406627E+03  0.00000000000E+00 0. -1.
         23    2    1    2    0    0  0.00000000000E+00  0.00000000000E+00 -0.19027553834E+03  0.20323259420E+03  0.71405229879E+02 0.  0.
        -11    1    3    3    0    0 -0.21802779812E+02  0.25372036492E+02 -0.13063819980E+03  0.13485340444E+03  0.00000000000E+00 0. -1.
         11    1    3    3    0    0  0.21802779812E+02 -0.25372036492E+02 -0.59637338543E+02  0.68379189756E+02  0.00000000000E+00 0.  1.
<mgrwt>
<rscale>  0 0.71405230E+02</rscale>
<asrwt>0</asrwt>
<pdfrwt beam="2">  1        1 0.30269861E-01 0.71405230E+02</pdfrwt>
<pdfrwt beam="1">  1       -1 0.99669647E-03 0.71405230E+02</pdfrwt>
<totfact> 0.22533424E+05</totfact>
</mgrwt>
</event>
<event>
 5    1  0.1270889E+001  0.9163603E+02  0.7546771E-02  0.1298937E+00
         -2   -1    0    0    0  501 -0.00000000000E+00  0.00000000000E+00  0.63553920812E+02  0.63553920812E+02  0.00000000000E+00 0.  1.
          2   -1    0    0  501    0  0.00000000000E+00 -0.00000000000E+00 -0.33031641567E+02  0.33031641567E+02  0.00000000000E+00 0. -1.
         23    2    1    2    0    0  0.00000000000E+00  0.00000000000E+00  0.30522279245E+02  0.96585562379E+02  0.91636026375E+02 0.  0.
        -11    1    3    3    0    0  0.37303192638E+02 -0.67843538148E+01  0.42374785338E+02  0.56861041761E+02  0.00000000000E+00 0.  1.
         11    1    3    3    0    0 -0.37303192638E+02  0.67843538148E+01 -0.11852506093E+02  0.39724520619E+02  0.00000000000E+00 0. -1.
<mgrwt>
<rscale>  0 0.91636026E+02</rscale>
<asrwt>0</asrwt>
<pdfrwt beam="2">  1        2 0.50817910E-02 0.91636026E+02</pdfrwt>
<pdfrwt beam="1">  1       -2 0.97775263E-02 0.91636026E+02</pdfrwt>
<totfact> 0.89417037E+04</totfact>
</mgrwt>
</event>
<event>
 5    1  0.1270889E+001  0.8864792E+02  0.7546771E-02  0.1306159E+00
          3   -1    0    0  501    0  0.00000000000E+00  0.00000000000E+00  0.74253865027E+02  0.74253865027E+02  0.00000000000E+00 0.  1.
         -3   -1    0    0    0  501 -0.00000000000E+00 -0.00000000000E+00 -0.26458062231E+02  0.26458062231E+02  0.00000000000E+00 0. -1.
         23    2    1    2    0    0  0.00000000000E+00  0.00000000000E+00  0.47795802796E+02  0.10071192726E+03  0.88647918911E+02 0.  0.
        -13    1    3    3    0    0  0.46078553162E+01  0.38649333135E+02  0.47987545915E+02  0.61788411901E+02  0.00000000000E+00 0.  1.
         13    1    3    3    0    0 -0.46078553162E+01 -0.38649333135E+02 -0.19174311873E+00  0.38923515357E+02  0.00000000000E+00 0. -1.
<mgrwt>
<rscale>  0 0.88647919E+02</rscale>
<asrwt>0</asrwt>
<pdfrwt beam="1">  1        3 0.11423671E-01 0.88647919E+02</pdfrwt>
<pdfrwt beam="2">  1       -3 0.40704711E-02 0.88647919E+02</pdfrwt>
<totfact> 0.37363437E+04</totfact>
</mgrwt>
</event>
<event>
 5    1  0.1270889E+001  0.9132106E+02  0.7546771E-02  0.1299684E+00
          1   -1    0    0  501    0  0.00000000000E+00  0.00000000000E+00  0.11393551639E+03  0.11393551639E+03  0.00000000000E+00 0. -1.
         -1   -1    0    0    0  501 -0.00000000000E+00 -0.00000000000E+00 -0.18298808514E+02  0.18298808514E+02  0.00000000000E+00 0.  1.
         23    2    1    2    0    0  0.00000000000E+00  0.00000000000E+00  0.95636707875E+02  0.13223432490E+03  0.91321064324E+02 0.  0.
        -13    1    3    3    0    0 -0.27766402258E+02 -0.35648947492E+01 -0.44147342951E+01  0.28340279600E+02  0.00000000000E+00 0.  1.
         13    1    3    3    0    0  0.27766402258E+02  0.35648947492E+01  0.10005144217E+03  0.10389404530E+03  0.00000000000E+00 0. -1.
<mgrwt>
<rscale>  0 0.91321064E+02</rscale>
<asrwt>0</asrwt>
<pdfrwt beam="1">  1        1 0.17528541E-01 0.91321064E+02</pdfrwt>
<pdfrwt beam="2">  1       -1 0.28152014E-02 0.91321064E+02</pdfrwt>
<totfact> 0.10632083E+05</totfact>
</mgrwt>
</event>
<event>
 5    1  0.1270889E+001  0.9143383E+02  0.7546771E-02  0.1299416E+00
          1   -1    0    0  501    0  0.00000000000E+00  0.00000000000E+00  0.33371470076E+02  0.33371470076E+02  0.00000000000E+00 0. -1.
         -1   -1    0    0    0  501 -0.00000000000E+00 -0.00000000000E+00 -0.62629438778E+02  0.62629438778E+02  0.00000000000E+00 0.  1.
         23    2    1    2    0    0  0.00000000000E+00  0.00000000000E+00 -0.29257968701E+02  0.96000908854E+02  0.91433832733E+02 0.  0.
        -13    1    3    3    0    0 -0.37117238300E+02  0.80538707543E+01 -0.41345655582E+02  0.56142830786E+02  0.00000000000E+00 0.  1.
         13    1    3    3    0    0  0.37117238300E+02 -0.80538707543E+01  0.12087686881E+02  0.39858078068E+02  0.00000000000E+00 0. -1.
<mgrwt>
<rscale>  0 0.91433833E+02</rscale>
<asrwt>0</asrwt>
<pdfrwt beam="1">  1        1 0.51340724E-02 0.91433833E+02</pdfrwt>
<pdfrwt beam="2">  1       -1 0.96352982E-02 0.91433833E+02</pdfrwt>
<totfact> 0.87459373E+04</totfact>
</mgrwt>
</event>
<event>
 5    1  0.1270889E+001  0.9167810E+02  0.7546771E-02  0.1298838E+00
          1   -1    0    0  501    0  0.00000000000E+00  0.00000000000E+00  0.13901994818E+02  0.13901994818E+02  0.00000000000E+00 0. -1.
         -1   -1    0    0    0  501 -0.00000000000E+00 -0.00000000000E+00 -0.15114510744E+03  0.15114510744E+03  0.00000000000E+00 0.  1.
         23    2    1    2    0    0  0.00000000000E+00  0.00000000000E+00 -0.13724311262E+03  0.16504710225E+03  0.91678099902E+02 0.  0.
        -11    1    3    3    0    0  0.43325207988E+01 -0.37578057330E+02 -0.11523262024E+03  0.12128247151E+03  0.00000000000E+00 0.  1.
         11    1    3    3    0    0 -0.43325207988E+01  0.37578057330E+02 -0.22010492379E+02  0.43764630742E+02  0.00000000000E+00 0. -1.
<mgrwt>
<rscale>  0 0.91678100E+02</rscale>
<asrwt>0</asrwt>
<pdfrwt beam="1">  1        1 0.21387683E-02 0.91678100E+02</pdfrwt>
<pdfrwt beam="2">  1       -1 0.23253095E-01 0.91678100E+02</pdfrwt>
<totfact> 0.73599036E+04</totfact>
</mgrwt>
</event>
<event>
 5    1  0.1270889E+001  0.9748533E+02  0.7546771E-02  0.1285675E+00
          2   -1    0    0  501    0  0.00000000000E+00  0.00000000000E+00  0.68003345494E+02  0.68003345494E+02  0.00000000000E+00 0. -1.
         -2   -1    0    0    0  501 -0.00000000000E+00 -0.00000000000E+00 -0.34937211394E+02  0.34937211394E+02  0.00000000000E+00 0.  1.
         23    2    1    2    0    0  0.00000000000E+00  0.00000000000E+00  0.33066134100E+02  0.10294055689E+03  0.97485327246E+02 0.  0.
        -13    1    3    3    0    0 -0.29939447957E+02 -0.35467589223E+02  0.32249733043E+02  0.56518720002E+02  0.00000000000E+00 0.  1.
         13    1    3    3    0    0  0.29939447957E+02  0.35467589223E+02  0.81640105716E+00  0.46421836887E+02  0.00000000000E+00 0. -1.
<mgrwt>
<rscale>  0 0.97485327E+02</rscale>
<asrwt>0</asrwt>
<pdfrwt beam="1">  1        2 0.10462053E-01 0.97485327E+02</pdfrwt>
<pdfrwt beam="2">  1       -2 0.53749556E-02 0.97485327E+02</pdfrwt>
<totfact> 0.90869892E+04</totfact>
</mgrwt>
</event>
<event>
 5    1  0.1270889E+001  0.9081845E+02  0.7546771E-02  0.1300882E+00
         -1   -1    0    0    0  501 -0.00000000000E+00  0.00000000000E+00  0.81841922191E+01  0.81841922191E+01  0.00000000000E+00 0.  1.
          1   -1    0    0  501    0  0.00000000000E+00 -0.00000000000E+00 -0.25194885486E+03  0.25194885486E+03  0.00000000000E+00 0. -1.
         23    2    1    2    0    0  0.00000000000E+00  0.00000000000E+00 -0.24376466265E+03  0.26013304708E+03  0.90818453138E+02 0.  0.
        -11    1    3    3    0    0 -0.40115518988E+01  0.41335614097E+02 -0.17448548419E+03  0.17935972160E+03  0.00000000000E+00 0. -1.
         11    1    3    3    0    0  0.40115518988E+01 -0.41335614097E+02 -0.69279178459E+02  0.80773325481E+02  0.00000000000E+00 0.  1.
<mgrwt>
<rscale>  0 0.90818453E+02</rscale>
<asrwt>0</asrwt>
<pdfrwt beam="2">  1        1 0.38761356E-01 0.90818453E+02</pdfrwt>
<pdfrwt beam="1">  1       -1 0.12591067E-02 0.90818453E+02</pdfrwt>
<totfact> 0.12516650E+05</totfact>
</mgrwt>
</event>
<event>
 5    1  0.1270889E+001  0.9236484E+02  0.7546771E-02  0.1297224E+00
         -1   -1    0    0    0  501 -0.00000000000E+00  0.00000000000E+00  0.65981365685E+02  0.65981365685E+02  0.00000000000E+00 0.  1.
          1   -1    0    0  501    0  0.00000000000E+00 -0.00000000000E+00 -0.32324519348E+02  0.32324519348E+02  0.00000000000E+00 0. -1.
         23    2    1    2    0    0  0.00000000000E+00  0.00000000000E+00  0.33656846337E+02  0.98305885032E+02  0.92364840316E+02 0.  0.
        -13    1    3    3    0    0 -0.35310384642E+02  0.85094176911E+01 -0.13529609725E+02  0.38759305880E+02  0.00000000000E+00 0.  1.
         13    1    3    3    0    0  0.35310384642E+02 -0.85094176911E+01  0.47186456062E+02  0.59546579152E+02  0.00000000000E+00 0. -1.
<mgrwt>
<rscale>  0 0.92364840E+02</rscale>
<asrwt>0</asrwt>
<pdfrwt beam="2">  1        1 0.49730030E-02 0.92364840E+02</pdfrwt>
<pdfrwt beam="1">  1       -1 0.10150979E-01 0.92364840E+02</pdfrwt>
<totfact> 0.84530405E+04</totfact>
</mgrwt>
</event>
<event>
 5    1  0.1270889E+001  0.9326520E+02  0.7546771E-02  0.1295132E+00
         -1   -1    0    0    0  501 -0.00000000000E+00  0.00000000000E+00  0.25469573605E+02  0.25469573605E+02  0.00000000000E+00 0.  1.
          1   -1    0    0  501    0  0.00000000000E+00 -0.00000000000E+00 -0.85380273726E+02  0.85380273726E+02  0.00000000000E+00 0. -1.
         23    2    1    2    0    0  0.00000000000E+00  0.00000000000E+00 -0.59910700121E+02  0.11084984733E+03  0.93265195354E+02 0.  0.
        -13    1    3    3    0    0  0.18003649418E+02  0.28830064490E+02 -0.67901303987E+02  0.75933464915E+02  0.00000000000E+00 0. -1.
         13    1    3    3    0    0 -0.18003649418E+02 -0.28830064490E+02  0.79906038667E+01  0.34916382416E+02  0.00000000000E+00 0.  1.
<mgrwt>
<rscale>  0 0.93265195E+02</rscale>
<asrwt>0</asrwt>
<pdfrwt beam="2">  1        1 0.13135427E-01 0.93265195E+02</pdfrwt>
<pdfrwt beam="1">  1       -1 0.39183960E-02 0.93265195E+02</pdfrwt>
<totfact> 0.95655330E+04</totfact>
</mgrwt>
</event>
<event>
 5    1  0.1270889E+001  0.9446979E+02  0.7546771E-02  0.1292375E+00
         -1   -1    0    0    0  501 -0.00000000000E+00  0.00000000000E+00  0.35772596439E+02  0.35772596439E+02  0.00000000000E+00 0.  1.
          1   -1    0    0  501    0  0.00000000000E+00 -0.00000000000E+00 -0.62369954804E+02  0.62369954804E+02  0.00000000000E+00 0. -1.
         23    2    1    2    0    0  0.00000000000E+00  0.00000000000E+00 -0.26597358366E+02  0.98142551243E+02  0.94469788252E+02 0.  0.
        -11    1    3    3    0    0  0.41472527055E+02  0.21720671792E+02 -0.67795965686E+01  0.47304555944E+02  0.00000000000E+00 0.  1.
         11    1    3    3    0    0 -0.41472527055E+02 -0.21720671792E+02 -0.19817761797E+02  0.50837995299E+02  0.00000000000E+00 0. -1.
<mgrwt>
<rscale>  0 0.94469788E+02</rscale>
<asrwt>0</asrwt>
<pdfrwt beam="2">  1        1 0.95953776E-02 0.94469788E+02</pdfrwt>
<pdfrwt beam="1">  1       -1 0.55034764E-02 0.94469788E+02</pdfrwt>
<totfact> 0.87835910E+04</totfact>
</mgrwt>
</event>
<event>
 5    1  0.1270889E+001  0.9465904E+02  0.7546771E-02  0.1291946E+00
         -1   -1    0    0    0  501 -0.00000000000E+00  0.00000000000E+00  0.23882654315E+03  0.23882654315E+03  0.00000000000E+00 0.  1.
          1   -1    0    0  501    0  0.00000000000E+00 -0.00000000000E+00 -0.93795408069E+01  0.93795408069E+01  0.00000000000E+00 0. -1.
         23    2    1    2    0    0  0.00000000000E+00  0.00000000000E+00  0.22944700235E+03  0.24820608396E+03  0.94659036701E+02 0.  0.
        -13    1    3    3    0    0  0.20582126093E+02  0.34346900647E+02  0.18088948183E+03  0.18526828692E+03  0.00000000000E+00 0.  1.
         13    1    3    3    0    0 -0.20582126093E+02 -0.34346900647E+02  0.48557520514E+02  0.62937797046E+02  0.00000000000E+00 0. -1.
<mgrwt>
<rscale>  0 0.94659037E+02</rscale>
<asrwt>0</asrwt>
<pdfrwt beam="2">  1        1 0.14430065E-02 0.94659037E+02</pdfrwt>
<pdfrwt beam="1">  1       -1 0.36742541E-01 0.94659037E+02</pdfrwt>
<totfact> 0.59618779E+04</totfact>
</mgrwt>
</event>
<event>
 5    1  0.1270889E+001  0.9080346E+02  0.7546771E-02  0.1300918E+00
         -1   -1    0    0    0  501 -0.00000000000E+00  0.00000000000E+00  0.25351015916E+03  0.25351015916E+03  0.00000000000E+00 0.  1.
          1   -1    0    0  501    0  0.00000000000E+00 -0.00000000000E+00 -0.81311028352E+01  0.81311028352E+01  0.00000000000E+00 0. -1.
         23    2    1    2    0    0  0.00000000000E+00  0.00000000000E+00  0.24537905632E+03  0.26164126199E+03  0.90803461914E+02 0.  0.
        -11    1    3    3    0    0  0.62764938867E+01  0.39616622324E+02  0.61399866823E+02  0.73340403501E+02  0.00000000000E+00 0. -1.
         11    1    3    3    0    0 -0.62764938867E+01 -0.39616622324E+02  0.18397918950E+03  0.18830085849E+03  0.00000000000E+00 0.  1.
<mgrwt>
<rscale>  0 0.90803462E+02</rscale>
<asrwt>0</asrwt>
<pdfrwt beam="2">  1        1 0.12509391E-02 0.90803462E+02</pdfrwt>
<pdfrwt beam="1">  1       -1 0.39001557E-01 0.90803462E+02</pdfrwt>
<totfact> 0.65152313E+04</totfact>
</mgrwt>
</event>
<event>
 5    1  0.1270889E+001  0.9185095E+02  0.7546771E-02  0.1298430E+00
         -1   -1    0    0    0  501 -0.00000000000E+00  0.00000000000E+00  0.56323191150E+01  0.56323191150E+01  0.00000000000E+00 0.  1.
          1   -1    0    0  501    0  0.00000000000E+00 -0.00000000000E+00 -0.37447261716E+03  0.37447261716E+03  0.00000000000E+00 0. -1.
         23    2    1    2    0    0  0.00000000000E+00  0.00000000000E+00 -0.36884029804E+03  0.38010493627E+03  0.91850950559E+02 0.  0.
        -13    1    3    3    0    0  0.11459858610E+02  0.41807600671E+02 -0.12166747145E+03  0.12915950388E+03  0.00000000000E+00 0.  1.
         13    1    3    3    0    0 -0.11459858610E+02 -0.41807600671E+02 -0.24717282660E+03  0.25094543240E+03  0.00000000000E+00 0. -1.
<mgrwt>
<rscale>  0 0.91850951E+02</rscale>
<asrwt>0</asrwt>
<pdfrwt beam="2">  1        1 0.57611175E-01 0.91850951E+02</pdfrwt>
<pdfrwt beam="1">  1       -1 0.86651059E-03 0.91850951E+02</pdfrwt>
<totfact> 0.13081379E+05</totfact>
</mgrwt>
</event>
<event>
 5    1  0.1270889E+001  0.9188258E+02  0.7546771E-02  0.1298356E+00
          1   -1    0    0  501    0  0.00000000000E+00  0.00000000000E+00  0.26919275414E+03  0.26919275414E+03  0.00000000000E+00 0. -1.
         -1   -1    0    0    0  501 -0.00000000000E+00 -0.00000000000E+00 -0.78404864918E+01  0.78404864918E+01  0.00000000000E+00 0.  1.
         23    2    1    2    0    0  0.00000000000E+00  0.00000000000E+00  0.26135226765E+03  0.27703324063E+03  0.91882580558E+02 0.  0.
        -11    1    3    3    0    0  0.40108997190E+02  0.77986040365E+01  0.67355722104E+02  0.78780347680E+02  0.00000000000E+00 0.  1.
         11    1    3    3    0    0 -0.40108997190E+02 -0.77986040365E+01  0.19399654554E+03  0.19825289295E+03  0.00000000000E+00 0. -1.
<mgrwt>
<rscale>  0 0.91882581E+02</rscale>
<asrwt>0</asrwt>
<pdfrwt beam="1">  1        1 0.41414263E-01 0.91882581E+02</pdfrwt>
<pdfrwt beam="2">  1       -1 0.12062289E-02 0.91882581E+02</pdfrwt>
<totfact> 0.12291103E+05</totfact>
</mgrwt>
</event>
<event>
 5    1  0.1270889E+001  0.9102547E+02  0.7546771E-02  0.1300387E+00
         -4   -1    0    0    0  501 -0.00000000000E+00  0.00000000000E+00  0.52918282600E+02  0.52918282600E+02  0.00000000000E+00 0.  1.
          4   -1    0    0  501    0  0.00000000000E+00 -0.00000000000E+00 -0.39143543718E+02  0.39143543718E+02  0.00000000000E+00 0. -1.
         23    2    1    2    0    0  0.00000000000E+00  0.00000000000E+00  0.13774738882E+02  0.92061826318E+02  0.91025471346E+02 0.  0.
        -11    1    3    3    0    0  0.43002843678E+01 -0.43313341404E+02 -0.65633375365E+01  0.44018352864E+02  0.00000000000E+00 0. -1.
         11    1    3    3    0    0 -0.43002843678E+01  0.43313341404E+02  0.20338076418E+02  0.48043473455E+02  0.00000000000E+00 0.  1.
<mgrwt>
<rscale>  0 0.91025471E+02</rscale>
<asrwt>0</asrwt>
<pdfrwt beam="2">  1        4 0.60220837E-02 0.91025471E+02</pdfrwt>
<pdfrwt beam="1">  1       -4 0.81412742E-02 0.91025471E+02</pdfrwt>
<totfact> 0.27081704E+04</totfact>
</mgrwt>
</event>
<event>
 5    1  0.1270889E+001  0.8976223E+02  0.7546771E-02  0.1303429E+00
         -2   -1    0    0    0  501 -0.00000000000E+00  0.00000000000E+00  0.79303815004E+02  0.79303815004E+02  0.00000000000E+00 0. -1.
          2   -1    0    0  501    0  0.00000000000E+00 -0.00000000000E+00 -0.25399968424E+02  0.25399968424E+02  0.00000000000E+00 0.  1.
         23    2    1    2    0    0  0.00000000000E+00  0.00000000000E+00  0.53903846579E+02  0.10470378343E+03  0.89762228070E+02 0.  0.
        -11    1    3    3    0    0 -0.20873824489E+02 -0.37859771198E+02  0.41009331365E+02  0.59588959405E+02  0.00000000000E+00 0.  1.
         11    1    3    3    0    0  0.20873824489E+02  0.37859771198E+02  0.12894515214E+02  0.45114824023E+02  0.00000000000E+00 0. -1.
<mgrwt>
<rscale>  0 0.89762228E+02</rscale>
<asrwt>0</asrwt>
<pdfrwt beam="2">  1        2 0.39076875E-02 0.89762228E+02</pdfrwt>
<pdfrwt beam="1">  1       -2 0.12200587E-01 0.89762228E+02</pdfrwt>
<totfact> 0.88620438E+04</totfact>
</mgrwt>
</event>
<event>
 5    1  0.1270889E+001  0.9219382E+02  0.7546771E-02  0.1297624E+00
         -1   -1    0    0    0  501 -0.00000000000E+00  0.00000000000E+00  0.31913895188E+02  0.31913895188E+02  0.00000000000E+00 0.  1.
          1   -1    0    0  501    0  0.00000000000E+00 -0.00000000000E+00 -0.66583075033E+02  0.66583075033E+02  0.00000000000E+00 0. -1.
         23    2    1    2    0    0  0.00000000000E+00  0.00000000000E+00 -0.34669179845E+02  0.98496970221E+02  0.92193823608E+02 0.  0.
        -11    1    3    3    0    0 -0.73541606860E+01 -0.33770984978E+02 -0.49921791467E+02  0.60718599861E+02  0.00000000000E+00 0. -1.
         11    1    3    3    0    0  0.73541606860E+01  0.33770984978E+02  0.15252611622E+02  0.37778370360E+02  0.00000000000E+00 0.  1.
<mgrwt>
<rscale>  0 0.92193824E+02</rscale>
<asrwt>0</asrwt>
<pdfrwt beam="2">  1        1 0.10243550E-01 0.92193824E+02</pdfrwt>
<pdfrwt beam="1">  1       -1 0.49098300E-02 0.92193824E+02</pdfrwt>
<totfact> 0.94950328E+04</totfact>
</mgrwt>
</event>
<event>
 5    1  0.1270889E+001  0.9541061E+02  0.7546771E-02  0.1290254E+00
          2   -1    0    0  501    0  0.00000000000E+00  0.00000000000E+00  0.11623350968E+03  0.11623350968E+03  0.00000000000E+00 0. -1.
         -2   -1    0    0    0  501 -0.00000000000E+00 -0.00000000000E+00 -0.19579517011E+02  0.19579517011E+02  0.00000000000E+00 0.  1.
         23    2    1    2    0    0  0.00000000000E+00  0.00000000000E+00  0.96653992666E+02  0.13581302669E+03  0.95410606956E+02 0.  0.
        -13    1    3    3    0    0  0.32344053573E+02 -0.40171747112E+01  0.97914052387E+02  0.10319611014E+03  0.00000000000E+00 0. -1.
         13    1    3    3    0    0 -0.32344053573E+02  0.40171747112E+01 -0.12600597210E+01  0.32616916542E+02  0.00000000000E+00 0.  1.
<mgrwt>
<rscale>  0 0.95410607E+02</rscale>
<asrwt>0</asrwt>
<pdfrwt beam="1">  1        2 0.17882078E-01 0.95410607E+02</pdfrwt>
<pdfrwt beam="2">  1       -2 0.30122334E-02 0.95410607E+02</pdfrwt>
<totfact> 0.11347569E+05</totfact>
</mgrwt>
</event>
<event>
 5    1  0.1270889E+001  0.9222161E+02  0.7546771E-02  0.1297559E+00
         -2   -1    0    0    0  501 -0.00000000000E+00  0.00000000000E+00  0.16459524760E+03  0.16459524760E+03  0.00000000000E+00 0.  1.
          2   -1    0    0  501    0  0.00000000000E+00 -0.00000000000E+00 -0.12917786137E+02  0.12917786137E+02  0.00000000000E+00 0. -1.
         23    2    1    2    0    0  0.00000000000E+00  0.00000000000E+00  0.15167746147E+03  0.17751303374E+03  0.92221607182E+02 0.  0.
        -11    1    3    3    0    0  0.26203554802E+02 -0.21892474486E+02  0.13548742037E+03  0.13972382690E+03  0.00000000000E+00 0.  1.
         11    1    3    3    0    0 -0.26203554802E+02  0.21892474486E+02  0.16190041095E+02  0.37789206846E+02  0.00000000000E+00 0. -1.
<mgrwt>
<rscale>  0 0.92221607E+02</rscale>
<asrwt>0</asrwt>
<pdfrwt beam="2">  1        2 0.19873518E-02 0.92221607E+02</pdfrwt>
<pdfrwt beam="1">  1       -2 0.25322344E-01 0.92221607E+02</pdfrwt>
<totfact> 0.65547380E+04</totfact>
</mgrwt>
</event>
<event>
 5    1  0.1270889E+001  0.9014925E+02  0.7546771E-02  0.1302491E+00
         -2   -1    0    0    0  501 -0.00000000000E+00  0.00000000000E+00  0.46224370438E+03  0.46224370438E+03  0.00000000000E+00 0.  1.
          2   -1    0    0  501    0  0.00000000000E+00 -0.00000000000E+00 -0.43953477994E+01  0.43953477994E+01  0.00000000000E+00 0. -1.
         23    2    1    2    0    0  0.00000000000E+00  0.00000000000E+00  0.45784835658E+03  0.46663905218E+03  0.90149250664E+02 0.  0.
        -11    1    3    3    0    0 -0.86699609264E+01 -0.43609768965E+02  0.19062600943E+03  0.19574283038E+03  0.00000000000E+00 0. -1.
         11    1    3    3    0    0  0.86699609264E+01  0.43609768965E+02  0.26722234715E+03  0.27089622180E+03  0.00000000000E+00 0.  1.
<mgrwt>
<rscale>  0 0.90149251E+02</rscale>
<asrwt>0</asrwt>
<pdfrwt beam="2">  1        2 0.67620772E-03 0.90149251E+02</pdfrwt>
<pdfrwt beam="1">  1       -2 0.71114378E-01 0.90149251E+02</pdfrwt>
<totfact> 0.39681522E+04</totfact>
</mgrwt>
</event>
<event>
 5    1  0.1270889E+001  0.9894118E+02  0.7546771E-02  0.1282538E+00
         -2   -1    0    0    0  501 -0.00000000000E+00  0.00000000000E+00  0.17772883862E+03  0.17772883862E+03  0.00000000000E+00 0.  1.
          2   -1    0    0  501    0  0.00000000000E+00 -0.00000000000E+00 -0.13770073478E+02  0.13770073478E+02  0.00000000000E+00 0. -1.
         23    2    1    2    0    0  0.00000000000E+00  0.00000000000E+00  0.16395876514E+03  0.19149891210E+03  0.98941177816E+02 0.  0.
        -11    1    3    3    0    0 -0.43495168882E+02  0.18877447857E+02  0.54665657642E+02  0.72363816090E+02  0.00000000000E+00 0. -1.
         11    1    3    3    0    0  0.43495168882E+02 -0.18877447857E+02  0.10929310750E+03  0.11913509601E+03  0.00000000000E+00 0.  1.
<mgrwt>
<rscale>  0 0.98941178E+02</rscale>
<asrwt>0</asrwt>
<pdfrwt beam="2">  1        2 0.21184730E-02 0.98941178E+02</pdfrwt>
<pdfrwt beam="1">  1       -2 0.27342897E-01 0.98941178E+02</pdfrwt>
<totfact> 0.53158494E+04</totfact>
</mgrwt>
</event>
<event>
 5    1  0.1270889E+001  0.8486788E+02  0.7546771E-02  0.1315778E+00
         -1   -1    0    0    0  501 -0.00000000000E+00  0.00000000000E+00  0.33176164119E+03  0.33176164119E+03  0.00000000000E+00 0.  1.
          1   -1    0    0  501    0  0.00000000000E+00 -0.00000000000E+00 -0.54275090271E+01  0.54275090271E+01  0.00000000000E+00 0. -1.
         23    2    1    2    0    0  0.00000000000E+00  0.00000000000E+00  0.32633413217E+03  0.33718915022E+03  0.84867880908E+02 0.  0.
        -13    1    3    3    0    0  0.39735341254E+02  0.14834487997E+02  0.16831668410E+03  0.17357841319E+03  0.00000000000E+00 0.  1.
         13    1    3    3    0    0 -0.39735341254E+02 -0.14834487997E+02  0.15801744806E+03  0.16361073703E+03  0.00000000000E+00 0. -1.
<mgrwt>
<rscale>  0 0.84867881E+02</rscale>
<asrwt>0</asrwt>
<pdfrwt beam="2">  1        1 0.83500165E-03 0.84867881E+02</pdfrwt>
<pdfrwt beam="1">  1       -1 0.51040237E-01 0.84867881E+02</pdfrwt>
<totfact> 0.70093533E+04</totfact>
</mgrwt>
</event>
<event>
 5    1  0.1270889E+001  0.1018853E+03  0.7546771E-02  0.1276381E+00
         -2   -1    0    0    0  501 -0.00000000000E+00  0.00000000000E+00  0.15454518760E+03  0.15454518760E+03  0.00000000000E+00 0.  1.
          2   -1    0    0  501    0  0.00000000000E+00 -0.00000000000E+00 -0.16792186219E+02  0.16792186219E+02  0.00000000000E+00 0. -1.
         23    2    1    2    0    0  0.00000000000E+00  0.00000000000E+00  0.13775300138E+03  0.17133737382E+03  0.10188526036E+03 0.  0.
        -11    1    3    3    0    0 -0.38369111833E+02 -0.20214093277E+02  0.11382314383E+03  0.12180519850E+03  0.00000000000E+00 0.  1.
         11    1    3    3    0    0  0.38369111833E+02  0.20214093277E+02  0.23929857556E+02  0.49532175326E+02  0.00000000000E+00 0. -1.
<mgrwt>
<rscale>  0 0.10188526E+03</rscale>
<asrwt>0</asrwt>
<pdfrwt beam="2">  1        2 0.25834134E-02 0.10188526E+03</pdfrwt>
<pdfrwt beam="1">  1       -2 0.23776182E-01 0.10188526E+03</pdfrwt>
<totfact> 0.52133381E+04</totfact>
</mgrwt>
</event>
<event>
 5    1  0.1270889E+001  0.8989649E+02  0.7546771E-02  0.1303103E+00
          3   -1    0    0  501    0  0.00000000000E+00  0.00000000000E+00  0.15599964494E+03  0.15599964494E+03  0.00000000000E+00 0. -1.
         -3   -1    0    0    0  501 -0.00000000000E+00 -0.00000000000E+00 -0.12950956435E+02  0.12950956435E+02  0.00000000000E+00 0.  1.
         23    2    1    2    0    0  0.00000000000E+00  0.00000000000E+00  0.14304868851E+03  0.16895060138E+03  0.89896487263E+02 0.  0.
        -11    1    3    3    0    0 -0.48079319793E+01 -0.42190455575E+02  0.43826830544E+02  0.61024108573E+02  0.00000000000E+00 0.  1.
         11    1    3    3    0    0  0.48079319793E+01  0.42190455575E+02  0.99221857963E+02  0.10792649281E+03  0.00000000000E+00 0. -1.
<mgrwt>
<rscale>  0 0.89896487E+02</rscale>
<asrwt>0</asrwt>
<pdfrwt beam="1">  1        3 0.23999944E-01 0.89896487E+02</pdfrwt>
<pdfrwt beam="2">  1       -3 0.19924549E-02 0.89896487E+02</pdfrwt>
<totfact> 0.31360552E+04</totfact>
</mgrwt>
</event>
<event>
 5    1  0.1270889E+001  0.9278385E+02  0.7546771E-02  0.1296247E+00
         -3   -1    0    0    0  501 -0.00000000000E+00  0.00000000000E+00  0.26324781208E+03  0.26324781208E+03  0.00000000000E+00 0.  1.
          3   -1    0    0  501    0  0.00000000000E+00 -0.00000000000E+00 -0.81756078295E+01  0.81756078295E+01  0.00000000000E+00 0. -1.
         23    2    1    2    0    0  0.00000000000E+00  0.00000000000E+00  0.25507220425E+03  0.27142341991E+03  0.92783853629E+02 0.  0.
        -11    1    3    3    0    0 -0.39668570820E+02 -0.12035090312E+02  0.18846252091E+03  0.19296777114E+03  0.00000000000E+00 0.  1.
         11    1    3    3    0    0  0.39668570820E+02  0.12035090312E+02  0.66609683342E+02  0.78455648775E+02  0.00000000000E+00 0. -1.
<mgrwt>
<rscale>  0 0.92783854E+02</rscale>
<asrwt>0</asrwt>
<pdfrwt beam="2">  1        3 0.12577860E-02 0.92783854E+02</pdfrwt>
<pdfrwt beam="1">  1       -3 0.40499657E-01 0.92783854E+02</pdfrwt>
<totfact> 0.24017571E+04</totfact>
</mgrwt>
</event>
<event>
 5    1  0.1270889E+001  0.9306382E+02  0.7546771E-02  0.1295597E+00
         -1   -1    0    0    0  501 -0.00000000000E+00  0.00000000000E+00  0.31665174374E+03  0.31665174374E+03  0.00000000000E+00 0.  1.
          1   -1    0    0  501    0  0.00000000000E+00 -0.00000000000E+00 -0.68378541507E+01  0.68378541507E+01  0.00000000000E+00 0. -1.
         23    2    1    2    0    0  0.00000000000E+00  0.00000000000E+00  0.30981388959E+03  0.32348959789E+03  0.93063815530E+02 0.  0.
        -13    1    3    3    0    0  0.37011221582E+02 -0.20177240872E+02  0.86414190297E+02  0.96147614931E+02  0.00000000000E+00 0. -1.
         13    1    3    3    0    0 -0.37011221582E+02  0.20177240872E+02  0.22339969929E+03  0.22734198296E+03  0.00000000000E+00 0.  1.
<mgrwt>
<rscale>  0 0.93063816E+02</rscale>
<asrwt>0</asrwt>
<pdfrwt beam="2">  1        1 0.10519778E-02 0.93063816E+02</pdfrwt>
<pdfrwt beam="1">  1       -1 0.48715641E-01 0.93063816E+02</pdfrwt>
<totfact> 0.56185341E+04</totfact>
</mgrwt>
</event>
<event>
 5    1  0.1270889E+001  0.8610169E+02  0.7546771E-02  0.1312576E+00
         -2   -1    0    0    0  501 -0.00000000000E+00  0.00000000000E+00  0.61921716273E+02  0.61921716273E+02  0.00000000000E+00 0. -1.
          2   -1    0    0  501    0  0.00000000000E+00 -0.00000000000E+00 -0.29930939828E+02  0.29930939828E+02  0.00000000000E+00 0.  1.
         23    2    1    2    0    0  0.00000000000E+00  0.00000000000E+00  0.31990776445E+02  0.91852656101E+02  0.86101687877E+02 0.  0.
        -11    1    3    3    0    0  0.31480311554E+02  0.86602474791E+01 -0.13938847839E+02  0.35500723669E+02  0.00000000000E+00 0.  1.
         11    1    3    3    0    0 -0.31480311554E+02 -0.86602474791E+01  0.45929624284E+02  0.56351932432E+02  0.00000000000E+00 0. -1.
<mgrwt>
<rscale>  0 0.86101688E+02</rscale>
<asrwt>0</asrwt>
<pdfrwt beam="2">  1        2 0.46047600E-02 0.86101688E+02</pdfrwt>
<pdfrwt beam="1">  1       -2 0.95264178E-02 0.86101688E+02</pdfrwt>
<totfact> 0.10465646E+05</totfact>
</mgrwt>
</event>
<event>
 5    1  0.1270889E+001  0.9338971E+02  0.7546771E-02  0.1294845E+00
         -2   -1    0    0    0  501 -0.00000000000E+00  0.00000000000E+00  0.44796386853E+02  0.44796386853E+02  0.00000000000E+00 0.  1.
          2   -1    0    0  501    0  0.00000000000E+00 -0.00000000000E+00 -0.48673785191E+02  0.48673785191E+02  0.00000000000E+00 0. -1.
         23    2    1    2    0    0  0.00000000000E+00  0.00000000000E+00 -0.38773983380E+01  0.93470172043E+02  0.93389714872E+02 0.  0.
        -11    1    3    3    0    0  0.10620918569E+02 -0.33590377670E+02  0.28735581008E+02  0.45462632999E+02  0.00000000000E+00 0.  1.
         11    1    3    3    0    0 -0.10620918569E+02  0.33590377670E+02 -0.32612979346E+02  0.48007539045E+02  0.00000000000E+00 0. -1.
<mgrwt>
<rscale>  0 0.93389715E+02</rscale>
<asrwt>0</asrwt>
<pdfrwt beam="2">  1        2 0.74882747E-02 0.93389715E+02</pdfrwt>
<pdfrwt beam="1">  1       -2 0.68917518E-02 0.93389715E+02</pdfrwt>
<totfact> 0.93701980E+04</totfact>
</mgrwt>
</event>
<event>
 5    1  0.1270889E+001  0.9149648E+02  0.7546771E-02  0.1299268E+00
          2   -1    0    0  501    0  0.00000000000E+00  0.00000000000E+00  0.11473776093E+02  0.11473776093E+02  0.00000000000E+00 0. -1.
         -2   -1    0    0    0  501 -0.00000000000E+00 -0.00000000000E+00 -0.18240736476E+03  0.18240736476E+03  0.00000000000E+00 0.  1.
         23    2    1    2    0    0  0.00000000000E+00  0.00000000000E+00 -0.17093358867E+03  0.19388114086E+03  0.91496475583E+02 0.  0.
        -11    1    3    3    0    0 -0.37353379362E+02  0.33387275910E+01 -0.14098621114E+03  0.14588877195E+03  0.00000000000E+00 0.  1.
         11    1    3    3    0    0  0.37353379362E+02 -0.33387275910E+01 -0.29947377532E+02  0.47992368901E+02  0.00000000000E+00 0. -1.
<mgrwt>
<rscale>  0 0.91496476E+02</rscale>
<asrwt>0</asrwt>
<pdfrwt beam="1">  1        2 0.17651963E-02 0.91496476E+02</pdfrwt>
<pdfrwt beam="2">  1       -2 0.28062672E-01 0.91496476E+02</pdfrwt>
<totfact> 0.64206442E+04</totfact>
</mgrwt>
</event>
<event>
 5    1  0.1270889E+001  0.9444406E+02  0.7546771E-02  0.1292433E+00
          2   -1    0    0  501    0  0.00000000000E+00  0.00000000000E+00  0.50513703594E+02  0.50513703594E+02  0.00000000000E+00 0. -1.
         -2   -1    0    0    0  501 -0.00000000000E+00 -0.00000000000E+00 -0.44144850270E+02  0.44144850270E+02  0.00000000000E+00 0.  1.
         23    2    1    2    0    0  0.00000000000E+00  0.00000000000E+00  0.63688533247E+01  0.94658553864E+02  0.94444055011E+02 0.  0.
        -13    1    3    3    0    0  0.22607650787E+02 -0.18269617692E+02 -0.34116156869E+02  0.44819604687E+02  0.00000000000E+00 0.  1.
         13    1    3    3    0    0 -0.22607650787E+02  0.18269617692E+02  0.40485010194E+02  0.49838949178E+02  0.00000000000E+00 0. -1.
<mgrwt>
<rscale>  0 0.94444055E+02</rscale>
<asrwt>0</asrwt>
<pdfrwt beam="1">  1        2 0.77713390E-02 0.94444055E+02</pdfrwt>
<pdfrwt beam="2">  1       -2 0.67915155E-02 0.94444055E+02</pdfrwt>
<totfact> 0.91630813E+04</totfact>
</mgrwt>
</event>
<event>
 5    1  0.1270889E+001  0.9183015E+02  0.7546771E-02  0.1298479E+00
         -2   -1    0    0    0  501 -0.00000000000E+00  0.00000000000E+00  0.23195419127E+02  0.23195419127E+02  0.00000000000E+00 0.  1.
          2   -1    0    0  501    0  0.00000000000E+00 -0.00000000000E+00 -0.90888377198E+02  0.90888377198E+02  0.00000000000E+00 0. -1.
         23    2    1    2    0    0  0.00000000000E+00  0.00000000000E+00 -0.67692958071E+02  0.11408379632E+03  0.91830147617E+02 0.  0.
        -11    1    3    3    0    0 -0.24479654879E+01 -0.28876863038E+02 -0.78090492402E+02  0.83294602211E+02  0.00000000000E+00 0. -1.
         11    1    3    3    0    0  0.24479654879E+01  0.28876863038E+02  0.10397534331E+02  0.30789194113E+02  0.00000000000E+00 0.  1.
<mgrwt>
<rscale>  0 0.91830148E+02</rscale>
<asrwt>0</asrwt>
<pdfrwt beam="2">  1        2 0.13982827E-01 0.91830148E+02</pdfrwt>
<pdfrwt beam="1">  1       -2 0.35685260E-02 0.91830148E+02</pdfrwt>
<totfact> 0.11687202E+05</totfact>
</mgrwt>
</event>
<event>
 5    1  0.1270889E+001  0.8945316E+02  0.7546771E-02  0.1304181E+00
          2   -1    0    0  501    0  0.00000000000E+00  0.00000000000E+00  0.51466360055E+02  0.51466360055E+02  0.00000000000E+00 0.  1.
         -2   -1    0    0    0  501 -0.00000000000E+00 -0.00000000000E+00 -0.38869405996E+02  0.38869405996E+02  0.00000000000E+00 0. -1.
         23    2    1    2    0    0  0.00000000000E+00  0.00000000000E+00  0.12596954059E+02  0.90335766052E+02  0.89453157443E+02 0.  0.
        -11    1    3    3    0    0  0.35552370612E+02  0.24738395503E+02 -0.49699149578E+01  0.43596551732E+02  0.00000000000E+00 0. -1.
         11    1    3    3    0    0 -0.35552370612E+02 -0.24738395503E+02  0.17566869017E+02  0.46739214320E+02  0.00000000000E+00 0.  1.
<mgrwt>
<rscale>  0 0.89453157E+02</rscale>
<asrwt>0</asrwt>
<pdfrwt beam="1">  1        2 0.79179016E-02 0.89453157E+02</pdfrwt>
<pdfrwt beam="2">  1       -2 0.59799086E-02 0.89453157E+02</pdfrwt>
<totfact> 0.10751613E+05</totfact>
</mgrwt>
</event>
<event>
 5    1  0.1270889E+001  0.9071172E+02  0.7546771E-02  0.1301137E+00
         -3   -1    0    0    0  501 -0.00000000000E+00  0.00000000000E+00  0.99615891591E+01  0.99615891591E+01  0.00000000000E+00 0.  1.
          3   -1    0    0  501    0  0.00000000000E+00 -0.00000000000E+00 -0.20650861846E+03  0.20650861846E+03  0.00000000000E+00 0. -1.
         23    2    1    2    0    0  0.00000000000E+00  0.00000000000E+00 -0.19654702930E+03  0.21647020762E+03  0.90711719527E+02 0.  0.
        -13    1    3    3    0    0 -0.17357135049E+02 -0.39809899773E+02 -0.67062809351E+02  0.79896925191E+02  0.00000000000E+00 0.  1.
         13    1    3    3    0    0  0.17357135049E+02  0.39809899773E+02 -0.12948421995E+03  0.13657328243E+03  0.00000000000E+00 0. -1.
<mgrwt>
<rscale>  0 0.90711720E+02</rscale>
<asrwt>0</asrwt>
<pdfrwt beam="2">  1        3 0.31770555E-01 0.90711720E+02</pdfrwt>
<pdfrwt beam="1">  1       -3 0.15325522E-02 0.90711720E+02</pdfrwt>
<totfact> 0.28052591E+04</totfact>
</mgrwt>
</event>
<event>
 5    1  0.1270889E+001  0.9098346E+02  0.7546771E-02  0.1300487E+00
         -2   -1    0    0    0  501 -0.00000000000E+00  0.00000000000E+00  0.15955997213E+02  0.15955997213E+02  0.00000000000E+00 0.  1.
          2   -1    0    0  501    0  0.00000000000E+00 -0.00000000000E+00 -0.12970030477E+03  0.12970030477E+03  0.00000000000E+00 0. -1.
         23    2    1    2    0    0  0.00000000000E+00  0.00000000000E+00 -0.11374430756E+03  0.14565630198E+03  0.90983464463E+02 0.  0.
        -13    1    3    3    0    0  0.40254270739E+02 -0.21107219792E+02 -0.59899804136E+02  0.75192470206E+02  0.00000000000E+00 0.  1.
         13    1    3    3    0    0 -0.40254270739E+02  0.21107219792E+02 -0.53844503420E+02  0.70463831776E+02  0.00000000000E+00 0. -1.
<mgrwt>
<rscale>  0 0.90983464E+02</rscale>
<asrwt>0</asrwt>
<pdfrwt beam="2">  1        2 0.19953893E-01 0.90983464E+02</pdfrwt>
<pdfrwt beam="1">  1       -2 0.24547688E-02 0.90983464E+02</pdfrwt>
<totfact> 0.13395325E+05</totfact>
</mgrwt>
</event>
<event>
 5    1  0.1270889E+001  0.8632356E+02  0.7546771E-02  0.1312007E+00
          3   -1    0    0  501    0  0.00000000000E+00  0.00000000000E+00  0.67671814729E+02  0.67671814729E+02  0.00000000000E+00 0.  1.
         -3   -1    0    0    0  501 -0.00000000000E+00 -0.00000000000E+00 -0.27529029102E+02  0.27529029102E+02  0.00000000000E+00 0. -1.
         23    2    1    2    0    0  0.00000000000E+00  0.00000000000E+00  0.40142785627E+02  0.95200843831E+02  0.86323562416E+02 0.  0.
        -13    1    3    3    0    0  0.19962888828E+02  0.22573706507E+02  0.54149782538E+02  0.61970058130E+02  0.00000000000E+00 0.  1.
         13    1    3    3    0    0 -0.19962888828E+02 -0.22573706507E+02 -0.14006996911E+02  0.33230785701E+02  0.00000000000E+00 0. -1.
<mgrwt>
<rscale>  0 0.86323562E+02</rscale>
<asrwt>0</asrwt>
<pdfrwt beam="1">  1        3 0.10411048E-01 0.86323562E+02</pdfrwt>
<pdfrwt beam="2">  1       -3 0.42352353E-02 0.86323562E+02</pdfrwt>
<totfact> 0.40629227E+04</totfact>
</mgrwt>
</event>
<event>
 5    1  0.1270889E+001  0.9244966E+02  0.7546771E-02  0.1297026E+00
         -1   -1    0    0    0  501 -0.00000000000E+00  0.00000000000E+00  0.74153684346E+01  0.74153684346E+01  0.00000000000E+00 0.  1.
          1   -1    0    0  501    0  0.00000000000E+00 -0.00000000000E+00 -0.28814949617E+03  0.28814949617E+03  0.00000000000E+00 0. -1.
         23    2    1    2    0    0  0.00000000000E+00  0.00000000000E+00 -0.28073412774E+03  0.29556486461E+03  0.92449655021E+02 0.  0.
        -13    1    3    3    0    0 -0.45115550689E+02 -0.10042170169E+02 -0.13815999109E+03  0.14568610515E+03  0.00000000000E+00 0. -1.
         13    1    3    3    0    0  0.45115550689E+02  0.10042170169E+02 -0.14257413665E+03  0.14987875946E+03  0.00000000000E+00 0.  1.
<mgrwt>
<rscale>  0 0.92449655E+02</rscale>
<asrwt>0</asrwt>
<pdfrwt beam="2">  1        1 0.44330689E-01 0.92449655E+02</pdfrwt>
<pdfrwt beam="1">  1       -1 0.11408260E-02 0.92449655E+02</pdfrwt>
<totfact> 0.12251675E+05</totfact>
</mgrwt>
</event>
<event>
 5    1  0.1270889E+001  0.8805220E+02  0.7546771E-02  0.1307638E+00
         -1   -1    0    0    0  501 -0.00000000000E+00  0.00000000000E+00  0.17089631384E+02  0.17089631384E+02  0.00000000000E+00 0.  1.
          1   -1    0    0  501    0  0.00000000000E+00 -0.00000000000E+00 -0.11341950368E+03  0.11341950368E+03  0.00000000000E+00 0. -1.
         23    2    1    2    0    0  0.00000000000E+00  0.00000000000E+00 -0.96329872300E+02  0.13050913507E+03  0.88052200649E+02 0.  0.
        -11    1    3    3    0    0  0.38429300402E+02 -0.12999023376E+02 -0.22815262595E+02  0.46543763765E+02  0.00000000000E+00 0.  1.
         11    1    3    3    0    0 -0.38429300402E+02  0.12999023376E+02 -0.73514609705E+02  0.83965371304E+02  0.00000000000E+00 0. -1.
<mgrwt>
<rscale>  0 0.88052201E+02</rscale>
<asrwt>0</asrwt>
<pdfrwt beam="2">  1        1 0.17449154E-01 0.88052201E+02</pdfrwt>
<pdfrwt beam="1">  1       -1 0.26291741E-02 0.88052201E+02</pdfrwt>
<totfact> 0.11726233E+05</totfact>
</mgrwt>
</event>
<event>
 5    1  0.1270889E+001  0.9048409E+02  0.7546771E-02  0.1301684E+00
          1   -1    0    0  501    0  0.00000000000E+00  0.00000000000E+00  0.10826940573E+03  0.10826940573E+03  0.00000000000E+00 0.  1.
         -1   -1    0    0    0  501 -0.00000000000E+00 -0.00000000000E+00 -0.18905089127E+02  0.18905089127E+02  0.00000000000E+00 0. -1.
         23    2    1    2    0    0  0.00000000000E+00  0.00000000000E+00  0.89364316602E+02  0.12717449486E+03  0.90484092858E+02 0.  0.
        -13    1    3    3    0    0  0.37060729232E+02  0.25789996163E+02  0.40652245000E+02  0.60755465407E+02  0.00000000000E+00 0. -1.
         13    1    3    3    0    0 -0.37060729232E+02 -0.25789996163E+02  0.48712071602E+02  0.66419029449E+02  0.00000000000E+00 0.  1.
<mgrwt>
<rscale>  0 0.90484093E+02</rscale>
<asrwt>0</asrwt>
<pdfrwt beam="1">  1        1 0.16656831E-01 0.90484093E+02</pdfrwt>
<pdfrwt beam="2">  1       -1 0.29084753E-02 0.90484093E+02</pdfrwt>
<totfact> 0.10807080E+05</totfact>
</mgrwt>
</event>
<event>
 5    1  0.1270889E+001  0.9057484E+02  0.7546771E-02  0.1301466E+00
          3   -1    0    0  501    0  0.00000000000E+00  0.00000000000E+00  0.65946504335E+02  0.65946504335E+02  0.00000000000E+00 0. -1.
         -3   -1    0    0    0  501 -0.00000000000E+00 -0.00000000000E+00 -0.31100217422E+02  0.31100217422E+02  0.00000000000E+00 0.  1.
         23    2    1    2    0    0  0.00000000000E+00  0.00000000000E+00  0.34846286914E+02  0.97046721757E+02  0.90574844698E+02 0.  0.
        -11    1    3    3    0    0  0.20483461804E+02 -0.38156254320E+02  0.32297761885E+01  0.43426989366E+02  0.00000000000E+00 0.  1.
         11    1    3    3    0    0 -0.20483461804E+02  0.38156254320E+02  0.31616510725E+02  0.53619732391E+02  0.00000000000E+00 0. -1.
<mgrwt>
<rscale>  0 0.90574845E+02</rscale>
<asrwt>0</asrwt>
<pdfrwt beam="1">  1        3 0.10145616E-01 0.90574845E+02</pdfrwt>
<pdfrwt beam="2">  1       -3 0.47846488E-02 0.90574845E+02</pdfrwt>
<totfact> 0.35525614E+04</totfact>
</mgrwt>
</event>
<event>
 5    1  0.1270889E+001  0.8801258E+02  0.7546771E-02  0.1307737E+00
          2   -1    0    0  501    0  0.00000000000E+00  0.00000000000E+00  0.28750573035E+02  0.28750573035E+02  0.00000000000E+00 0. -1.
         -2   -1    0    0    0  501 -0.00000000000E+00 -0.00000000000E+00 -0.67357040330E+02  0.67357040330E+02  0.00000000000E+00 0.  1.
         23    2    1    2    0    0  0.00000000000E+00  0.00000000000E+00 -0.38606467295E+02  0.96107613364E+02  0.88012578815E+02 0.  0.
        -13    1    3    3    0    0  0.27894661072E+02  0.26495853546E+02  0.40254998825E+01  0.38682644955E+02  0.00000000000E+00 0. -1.
         13    1    3    3    0    0 -0.27894661072E+02 -0.26495853546E+02 -0.42631967177E+02  0.57424968409E+02  0.00000000000E+00 0.  1.
<mgrwt>
<rscale>  0 0.88012579E+02</rscale>
<asrwt>0</asrwt>
<pdfrwt beam="1">  1        2 0.44231651E-02 0.88012579E+02</pdfrwt>
<pdfrwt beam="2">  1       -2 0.10362621E-01 0.88012579E+02</pdfrwt>
<totfact> 0.97115430E+04</totfact>
</mgrwt>
</event>
<event>
 5    1  0.1270889E+001  0.9206527E+02  0.7546771E-02  0.1297926E+00
         -2   -1    0    0    0  501 -0.00000000000E+00  0.00000000000E+00  0.20438419746E+02  0.20438419746E+02  0.00000000000E+00 0.  1.
          2   -1    0    0  501    0  0.00000000000E+00 -0.00000000000E+00 -0.10367745733E+03  0.10367745733E+03  0.00000000000E+00 0. -1.
         23    2    1    2    0    0  0.00000000000E+00  0.00000000000E+00 -0.83239037582E+02  0.12411587707E+03  0.92065267958E+02 0.  0.
        -11    1    3    3    0    0  0.30081439696E+02  0.23144892085E+02 -0.65053629862E+01  0.38508424940E+02  0.00000000000E+00 0.  1.
         11    1    3    3    0    0 -0.30081439696E+02 -0.23144892085E+02 -0.76733674595E+02  0.85607452133E+02  0.00000000000E+00 0. -1.
<mgrwt>
<rscale>  0 0.92065268E+02</rscale>
<asrwt>0</asrwt>
<pdfrwt beam="2">  1        2 0.15950378E-01 0.92065268E+02</pdfrwt>
<pdfrwt beam="1">  1       -2 0.31443723E-02 0.92065268E+02</pdfrwt>
<totfact> 0.12077149E+05</totfact>
</mgrwt>
</event>
<event>
 5    1  0.1270889E+001  0.9257528E+02  0.7546771E-02  0.1296732E+00
          2   -1    0    0  501    0  0.00000000000E+00  0.00000000000E+00  0.28105341407E+03  0.28105341407E+03  0.00000000000E+00 0.  1.
         -2   -1    0    0    0  501 -0.00000000000E+00 -0.00000000000E+00 -0.76232676063E+01  0.76232676063E+01  0.00000000000E+00 0. -1.
         23    2    1    2    0    0  0.00000000000E+00  0.00000000000E+00  0.27343014646E+03  0.28867668168E+03  0.92575275038E+02 0.  0.
        -11    1    3    3    0    0 -0.26977517531E+02 -0.28449671593E+02  0.21343867420E+03  0.21700976455E+03  0.00000000000E+00 0.  1.
         11    1    3    3    0    0  0.26977517531E+02  0.28449671593E+02  0.59991472260E+02  0.71666917122E+02  0.00000000000E+00 0. -1.
<mgrwt>
<rscale>  0 0.92575275E+02</rscale>
<asrwt>0</asrwt>
<pdfrwt beam="1">  1        2 0.43238979E-01 0.92575275E+02</pdfrwt>
<pdfrwt beam="2">  1       -2 0.11728106E-02 0.92575275E+02</pdfrwt>
<totfact> 0.16834509E+05</totfact>
</mgrwt>
</event>
<event>
 5    1  0.1270889E+001  0.9045106E+02  0.7546771E-02  0.1301763E+00
         -4   -1    0    0    0  501 -0.00000000000E+00  0.00000000000E+00  0.80743006383E+02  0.80743006383E+02  0.00000000000E+00 0.  1.
          4   -1    0    0  501    0  0.00000000000E+00 -0.00000000000E+00 -0.25331586664E+02  0.25331586664E+02  0.00000000000E+00 0. -1.
         23    2    1    2    0    0  0.00000000000E+00  0.00000000000E+00  0.55411419720E+02  0.10607459305E+03  0.90451057787E+02 0.  0.
        -13    1    3    3    0    0 -0.19767755506E+02 -0.37753008586E+02  0.99476840130E+01  0.43760829885E+02  0.00000000000E+00 0.  1.
         13    1    3    3    0    0  0.19767755506E+02  0.37753008586E+02  0.45463735707E+02  0.62313763162E+02  0.00000000000E+00 0. -1.
<mgrwt>
<rscale>  0 0.90451058E+02</rscale>
<asrwt>0</asrwt>
<pdfrwt beam="2">  1        4 0.38971672E-02 0.90451058E+02</pdfrwt>
<pdfrwt beam="1">  1       -4 0.12422001E-01 0.90451058E+02</pdfrwt>
<totfact> 0.26656830E+04</totfact>
</mgrwt>
</event>
<event>
 5    1  0.1270889E+001  0.9146754E+02  0.7546771E-02  0.1299336E+00
          1   -1    0    0  501    0  0.00000000000E+00  0.00000000000E+00  0.17238279861E+03  0.17238279861E+03  0.00000000000E+00 0. -1.
         -1   -1    0    0    0  501 -0.00000000000E+00 -0.00000000000E+00 -0.12133331629E+02  0.12133331629E+02  0.00000000000E+00 0.  1.
         23    2    1    2    0    0  0.00000000000E+00  0.00000000000E+00  0.16024946698E+03  0.18451613023E+03  0.91467538780E+02 0.  0.
        -13    1    3    3    0    0 -0.38665229651E+02  0.73670405932E+01  0.12710212576E+03  0.13305721943E+03  0.00000000000E+00 0. -1.
         13    1    3    3    0    0  0.38665229651E+02 -0.73670405932E+01  0.33147341221E+02  0.51458910804E+02  0.00000000000E+00 0.  1.
<mgrwt>
<rscale>  0 0.91467539E+02</rscale>
<asrwt>0</asrwt>
<pdfrwt beam="1">  1        1 0.26520429E-01 0.91467539E+02</pdfrwt>
<pdfrwt beam="2">  1       -1 0.18666665E-02 0.91467539E+02</pdfrwt>
<totfact> 0.11409511E+05</totfact>
</mgrwt>
</event>
<event>
 5    1  0.1270889E+001  0.9038792E+02  0.7546771E-02  0.1301915E+00
         -1   -1    0    0    0  501 -0.00000000000E+00  0.00000000000E+00  0.83406589701E+01  0.83406589701E+01  0.00000000000E+00 0.  1.
          1   -1    0    0  501    0  0.00000000000E+00 -0.00000000000E+00 -0.24488403515E+03  0.24488403515E+03  0.00000000000E+00 0. -1.
         23    2    1    2    0    0  0.00000000000E+00  0.00000000000E+00 -0.23654337618E+03  0.25322469412E+03  0.90387924512E+02 0.  0.
        -11    1    3    3    0    0  0.27334504812E+02  0.35718330152E+02 -0.13064925058E+03  0.13817453072E+03  0.00000000000E+00 0.  1.
         11    1    3    3    0    0 -0.27334504812E+02 -0.35718330152E+02 -0.10589412559E+03  0.11505016339E+03  0.00000000000E+00 0. -1.
<mgrwt>
<rscale>  0 0.90387925E+02</rscale>
<asrwt>0</asrwt>
<pdfrwt beam="2">  1        1 0.37674468E-01 0.90387925E+02</pdfrwt>
<pdfrwt beam="1">  1       -1 0.12831783E-02 0.90387925E+02</pdfrwt>
<totfact> 0.12606406E+05</totfact>
</mgrwt>
</event>
<event>
 5    1  0.1270889E+001  0.9421633E+02  0.7546771E-02  0.1292951E+00
         -2   -1    0    0    0  501 -0.00000000000E+00  0.00000000000E+00  0.17352095950E+02  0.17352095950E+02  0.00000000000E+00 0.  1.
          2   -1    0    0  501    0  0.00000000000E+00 -0.00000000000E+00 -0.12789113533E+03  0.12789113533E+03  0.00000000000E+00 0. -1.
         23    2    1    2    0    0  0.00000000000E+00  0.00000000000E+00 -0.11053903938E+03  0.14524323128E+03  0.94216330887E+02 0.  0.
        -11    1    3    3    0    0 -0.41508763229E+02 -0.19725632583E+02 -0.39315615621E+02  0.60479712609E+02  0.00000000000E+00 0.  1.
         11    1    3    3    0    0  0.41508763229E+02  0.19725632583E+02 -0.71223423761E+02  0.84763518674E+02  0.00000000000E+00 0. -1.
<mgrwt>
<rscale>  0 0.94216331E+02</rscale>
<asrwt>0</asrwt>
<pdfrwt beam="2">  1        2 0.19675560E-01 0.94216331E+02</pdfrwt>
<pdfrwt beam="1">  1       -2 0.26695531E-02 0.94216331E+02</pdfrwt>
<totfact> 0.12119147E+05</totfact>
</mgrwt>
</event>
<event>
 5    1  0.1270889E+001  0.8642025E+02  0.7546771E-02  0.1311760E+00
         -1   -1    0    0    0  501 -0.00000000000E+00  0.00000000000E+00  0.22729358234E+03  0.22729358234E+03  0.00000000000E+00 0.  1.
          1   -1    0    0  501    0  0.00000000000E+00 -0.00000000000E+00 -0.82145520180E+01  0.82145520180E+01  0.00000000000E+00 0. -1.
         23    2    1    2    0    0  0.00000000000E+00  0.00000000000E+00  0.21907903032E+03  0.23550813436E+03  0.86420251226E+02 0.  0.
        -11    1    3    3    0    0  0.36944985573E+02  0.21295874323E+02  0.90528057826E+02  0.10006885368E+03  0.00000000000E+00 0. -1.
         11    1    3    3    0    0 -0.36944985573E+02 -0.21295874323E+02  0.12855097250E+03  0.13543928068E+03  0.00000000000E+00 0.  1.
<mgrwt>
<rscale>  0 0.86420251E+02</rscale>
<asrwt>0</asrwt>
<pdfrwt beam="2">  1        1 0.12637774E-02 0.86420251E+02</pdfrwt>
<pdfrwt beam="1">  1       -1 0.34968239E-01 0.86420251E+02</pdfrwt>
<totfact> 0.76808521E+04</totfact>
</mgrwt>
</event>
<event>
 5    1  0.1270889E+001  0.9146772E+02  0.7546771E-02  0.1299336E+00
          2   -1    0    0  501    0  0.00000000000E+00  0.00000000000E+00  0.86180882134E+02  0.86180882134E+02  0.00000000000E+00 0. -1.
         -2   -1    0    0    0  501 -0.00000000000E+00 -0.00000000000E+00 -0.24269723151E+02  0.24269723151E+02  0.00000000000E+00 0.  1.
         23    2    1    2    0    0  0.00000000000E+00  0.00000000000E+00  0.61911158983E+02  0.11045060529E+03  0.91467724369E+02 0.  0.
        -13    1    3    3    0    0 -0.34751863739E+02  0.29723696099E+02  0.31715471304E+02  0.55651246735E+02  0.00000000000E+00 0. -1.
         13    1    3    3    0    0  0.34751863739E+02 -0.29723696099E+02  0.30195687679E+02  0.54799358550E+02  0.00000000000E+00 0.  1.
<mgrwt>
<rscale>  0 0.91467724E+02</rscale>
<asrwt>0</asrwt>
<pdfrwt beam="1">  1        2 0.13258597E-01 0.91467724E+02</pdfrwt>
<pdfrwt beam="2">  1       -2 0.37338036E-02 0.91467724E+02</pdfrwt>
<totfact> 0.11632091E+05</totfact>
</mgrwt>
</event>
<event>
 5    1  0.1270889E+001  0.9187738E+02  0.7546771E-02  0.1298368E+00
         -2   -1    0    0    0  501 -0.00000000000E+00  0.00000000000E+00  0.22455732733E+03  0.22455732733E+03  0.00000000000E+00 0.  1.
          2   -1    0    0  501    0  0.00000000000E+00 -0.00000000000E+00 -0.93978809845E+01  0.93978809845E+01  0.00000000000E+00 0. -1.
         23    2    1    2    0    0  0.00000000000E+00  0.00000000000E+00  0.21515944635E+03  0.23395520832E+03  0.91877375593E+02 0.  0.
        -13    1    3    3    0    0  0.22787541191E+01 -0.45670907639E+02  0.96381847060E+02  0.10667935586E+03  0.00000000000E+00 0. -1.
         13    1    3    3    0    0 -0.22787541191E+01  0.45670907639E+02  0.11877759929E+03  0.12727585245E+03  0.00000000000E+00 0.  1.
<mgrwt>
<rscale>  0 0.91877376E+02</rscale>
<asrwt>0</asrwt>
<pdfrwt beam="2">  1        2 0.14458280E-02 0.91877376E+02</pdfrwt>
<pdfrwt beam="1">  1       -2 0.34547277E-01 0.91877376E+02</pdfrwt>
<totfact> 0.58011422E+04</totfact>
</mgrwt>
</event>
<event>
 5    1  0.1270889E+001  0.9075251E+02  0.7546771E-02  0.1301040E+00
          1   -1    0    0  501    0  0.00000000000E+00  0.00000000000E+00  0.25465876216E+03  0.25465876216E+03  0.00000000000E+00 0. -1.
         -1   -1    0    0    0  501 -0.00000000000E+00 -0.00000000000E+00 -0.80853464443E+01  0.80853464443E+01  0.00000000000E+00 0.  1.
         23    2    1    2    0    0  0.00000000000E+00  0.00000000000E+00  0.24657341571E+03  0.26274410860E+03  0.90752505577E+02 0.  0.
        -11    1    3    3    0    0 -0.18107581763E+02 -0.41040647332E+02  0.10348384465E+03  0.11278796635E+03  0.00000000000E+00 0.  1.
         11    1    3    3    0    0  0.18107581763E+02  0.41040647332E+02  0.14308957107E+03  0.14995614225E+03  0.00000000000E+00 0. -1.
<mgrwt>
<rscale>  0 0.90752506E+02</rscale>
<asrwt>0</asrwt>
<pdfrwt beam="1">  1        1 0.39178265E-01 0.90752506E+02</pdfrwt>
<pdfrwt beam="2">  1       -1 0.12438996E-02 0.90752506E+02</pdfrwt>
<totfact> 0.12567036E+05</totfact>
</mgrwt>
</event>
<event>
 5    1  0.1270889E+001  0.9241443E+02  0.7546771E-02  0.1297108E+00
         -1   -1    0    0    0  501 -0.00000000000E+00  0.00000000000E+00  0.31427209317E+02  0.31427209317E+02  0.00000000000E+00 0.  1.
          1   -1    0    0  501    0  0.00000000000E+00 -0.00000000000E+00 -0.67938162516E+02  0.67938162516E+02  0.00000000000E+00 0. -1.
         23    2    1    2    0    0  0.00000000000E+00  0.00000000000E+00 -0.36510953199E+02  0.99365371834E+02  0.92414432943E+02 0.  0.
        -11    1    3    3    0    0  0.14019552460E+02  0.30148342095E+02  0.16245963093E+02  0.37005427968E+02  0.00000000000E+00 0.  1.
         11    1    3    3    0    0 -0.14019552460E+02 -0.30148342095E+02 -0.52756916293E+02  0.62359943866E+02  0.00000000000E+00 0. -1.
<mgrwt>
<rscale>  0 0.92414433E+02</rscale>
<asrwt>0</asrwt>
<pdfrwt beam="2">  1        1 0.10452025E-01 0.92414433E+02</pdfrwt>
<pdfrwt beam="1">  1       -1 0.48349553E-02 0.92414433E+02</pdfrwt>
<totfact> 0.94618354E+04</totfact>
</mgrwt>
</event>
<event>
 5    1  0.1270889E+001  0.9175605E+02  0.7546771E-02  0.1298654E+00
         -1   -1    0    0    0  501 -0.00000000000E+00  0.00000000000E+00  0.40763259175E+02  0.40763259175E+02  0.00000000000E+00 0.  1.
          1   -1    0    0  501    0  0.00000000000E+00 -0.00000000000E+00 -0.51634566873E+02  0.51634566873E+02  0.00000000000E+00 0. -1.
         23    2    1    2    0    0  0.00000000000E+00  0.00000000000E+00 -0.10871307698E+02  0.92397826048E+02  0.91756051175E+02 0.  0.
        -13    1    3    3    0    0  0.10592174233E+02 -0.86007961803E+00 -0.50378065302E+02  0.51486729897E+02  0.00000000000E+00 0. -1.
         13    1    3    3    0    0 -0.10592174233E+02  0.86007961803E+00  0.39506757603E+02  0.40911096151E+02  0.00000000000E+00 0.  1.
<mgrwt>
<rscale>  0 0.91756051E+02</rscale>
<asrwt>0</asrwt>
<pdfrwt beam="2">  1        1 0.79437795E-02 0.91756051E+02</pdfrwt>
<pdfrwt beam="1">  1       -1 0.62712707E-02 0.91756051E+02</pdfrwt>
<totfact> 0.92564542E+04</totfact>
</mgrwt>
</event>
<event>
 5    1  0.1270889E+001  0.9097019E+02  0.7546771E-02  0.1300519E+00
         -2   -1    0    0    0  501 -0.00000000000E+00  0.00000000000E+00  0.27804891665E+02  0.27804891665E+02  0.00000000000E+00 0. -1.
          2   -1    0    0  501    0  0.00000000000E+00 -0.00000000000E+00 -0.74407556062E+02  0.74407556062E+02  0.00000000000E+00 0.  1.
         23    2    1    2    0    0  0.00000000000E+00  0.00000000000E+00 -0.46602664397E+02  0.10221244773E+03  0.90970193698E+02 0.  0.
        -11    1    3    3    0    0  0.39267434522E+02 -0.22445862859E+02 -0.17895764031E+02  0.48641613292E+02  0.00000000000E+00 0. -1.
         11    1    3    3    0    0 -0.39267434522E+02  0.22445862859E+02 -0.28706900366E+02  0.53570834435E+02  0.00000000000E+00 0.  1.
<mgrwt>
<rscale>  0 0.90970194E+02</rscale>
<asrwt>0</asrwt>
<pdfrwt beam="2">  1        2 0.11447316E-01 0.90970194E+02</pdfrwt>
<pdfrwt beam="1">  1       -2 0.42776758E-02 0.90970194E+02</pdfrwt>
<totfact> 0.11323496E+05</totfact>
</mgrwt>
</event>
<event>
 5    1  0.1270889E+001  0.9036760E+02  0.7546771E-02  0.1301964E+00
         -3   -1    0    0    0  501 -0.00000000000E+00  0.00000000000E+00  0.99066530996E+02  0.99066530996E+02  0.00000000000E+00 0.  1.
          3   -1    0    0  501    0  0.00000000000E+00 -0.00000000000E+00 -0.20608126333E+02  0.20608126333E+02  0.00000000000E+00 0. -1.
         23    2    1    2    0    0  0.00000000000E+00  0.00000000000E+00  0.78458404663E+02  0.11967465733E+03  0.90367595656E+02 0.  0.
        -11    1    3    3    0    0 -0.21770978998E+02  0.73583633799E+01 -0.12290596257E+02  0.26061078154E+02  0.00000000000E+00 0. -1.
         11    1    3    3    0    0  0.21770978998E+02 -0.73583633799E+01  0.90749000920E+02  0.93613579176E+02  0.00000000000E+00 0.  1.
<mgrwt>
<rscale>  0 0.90367596E+02</rscale>
<asrwt>0</asrwt>
<pdfrwt beam="2">  1        3 0.31704810E-02 0.90367596E+02</pdfrwt>
<pdfrwt beam="1">  1       -3 0.15241004E-01 0.90367596E+02</pdfrwt>
<totfact> 0.34084334E+04</totfact>
</mgrwt>
</event>
<event>
 5    1  0.1270889E+001  0.9065374E+02  0.7546771E-02  0.1301276E+00
         -2   -1    0    0    0  501 -0.00000000000E+00  0.00000000000E+00  0.41052226390E+02  0.41052226390E+02  0.00000000000E+00 0. -1.
          2   -1    0    0  501    0  0.00000000000E+00 -0.00000000000E+00 -0.50046622395E+02  0.50046622395E+02  0.00000000000E+00 0.  1.
         23    2    1    2    0    0  0.00000000000E+00  0.00000000000E+00 -0.89943960055E+01  0.91098848785E+02  0.90653742838E+02 0.  0.
        -11    1    3    3    0    0 -0.17741535142E+02 -0.46915119054E+01 -0.46146477891E+02  0.49661552281E+02  0.00000000000E+00 0.  1.
         11    1    3    3    0    0  0.17741535142E+02  0.46915119054E+01  0.37152081886E+02  0.41437296504E+02  0.00000000000E+00 0. -1.
<mgrwt>
<rscale>  0 0.90653743E+02</rscale>
<asrwt>0</asrwt>
<pdfrwt beam="2">  1        2 0.76994804E-02 0.90653743E+02</pdfrwt>
<pdfrwt beam="1">  1       -2 0.63157271E-02 0.90653743E+02</pdfrwt>
<totfact> 0.10277286E+05</totfact>
</mgrwt>
</event>
<event>
 5    1  0.1270889E+001  0.9653879E+02  0.7546771E-02  0.1287747E+00
          2   -1    0    0  501    0  0.00000000000E+00  0.00000000000E+00  0.95227610768E+02  0.95227610768E+02  0.00000000000E+00 0.  1.
         -2   -1    0    0    0  501 -0.00000000000E+00 -0.00000000000E+00 -0.24467004767E+02  0.24467004767E+02  0.00000000000E+00 0. -1.
         23    2    1    2    0    0  0.00000000000E+00  0.00000000000E+00  0.70760606001E+02  0.11969461554E+03  0.96538788197E+02 0.  0.
        -11    1    3    3    0    0  0.22517836654E+02 -0.17395961511E+02 -0.12962517563E+02  0.31268183607E+02  0.00000000000E+00 0. -1.
         11    1    3    3    0    0 -0.22517836654E+02  0.17395961511E+02  0.83723123563E+02  0.88426431929E+02  0.00000000000E+00 0.  1.
<mgrwt>
<rscale>  0 0.96538788E+02</rscale>
<asrwt>0</asrwt>
<pdfrwt beam="1">  1        2 0.14650401E-01 0.96538788E+02</pdfrwt>
<pdfrwt beam="2">  1       -2 0.37641546E-02 0.96538788E+02</pdfrwt>
<totfact> 0.10316489E+05</totfact>
</mgrwt>
</event>
<event>
 5    1  0.1270889E+001  0.8790435E+02  0.7546771E-02  0.1308007E+00
          4   -1    0    0  501    0  0.00000000000E+00  0.00000000000E+00  0.21351204885E+02  0.21351204885E+02  0.00000000000E+00 0. -1.
         -4   -1    0    0    0  501 -0.00000000000E+00 -0.00000000000E+00 -0.90477025922E+02  0.90477025922E+02  0.00000000000E+00 0.  1.
         23    2    1    2    0    0  0.00000000000E+00  0.00000000000E+00 -0.69125821037E+02  0.11182823081E+03  0.87904346147E+02 0.  0.
        -11    1    3    3    0    0  0.39557499310E+02  0.16026556810E+02 -0.47914344784E+02  0.64167209001E+02  0.00000000000E+00 0.  1.
         11    1    3    3    0    0 -0.39557499310E+02 -0.16026556810E+02 -0.21211476253E+02  0.47661021807E+02  0.00000000000E+00 0. -1.
<mgrwt>
<rscale>  0 0.87904346E+02</rscale>
<asrwt>0</asrwt>
<pdfrwt beam="1">  1        4 0.32848008E-02 0.87904346E+02</pdfrwt>
<pdfrwt beam="2">  1       -4 0.13919542E-01 0.87904346E+02</pdfrwt>
<totfact> 0.28407937E+04</totfact>
</mgrwt>
</event>
<event>
 5    1  0.1270889E+001  0.9604360E+02  0.7546771E-02  0.1288843E+00
          1   -1    0    0  501    0  0.00000000000E+00  0.00000000000E+00  0.19380500417E+03  0.19380500417E+03  0.00000000000E+00 0. -1.
         -1   -1    0    0    0  501 -0.00000000000E+00 -0.00000000000E+00 -0.11899039105E+02  0.11899039105E+02  0.00000000000E+00 0.  1.
         23    2    1    2    0    0  0.00000000000E+00  0.00000000000E+00  0.18190596506E+03  0.20570404327E+03  0.96043601002E+02 0.  0.
        -11    1    3    3    0    0  0.97610542659E+01  0.36413005398E+02  0.27240650981E+02  0.46510624682E+02  0.00000000000E+00 0. -1.
         11    1    3    3    0    0 -0.97610542659E+01 -0.36413005398E+02  0.15466531408E+03  0.15919341859E+03  0.00000000000E+00 0.  1.
<mgrwt>
<rscale>  0 0.96043601E+02</rscale>
<asrwt>0</asrwt>
<pdfrwt beam="1">  1        1 0.29816152E-01 0.96043601E+02</pdfrwt>
<pdfrwt beam="2">  1       -1 0.18306215E-02 0.96043601E+02</pdfrwt>
<totfact> 0.10230824E+05</totfact>
</mgrwt>
</event>
<event>
 4    1  0.1270889E+001  0.1391866E+03  0.7546771E-02  0.1214428E+00
         -1   -1    0    0    0  501 -0.00000000000E+00  0.00000000000E+00  0.25424452045E+03  0.25424452045E+03  0.00000000000E+00 0.  1.
          1   -1    0    0  501    0  0.00000000000E+00 -0.00000000000E+00 -0.19049491748E+02  0.19049491748E+02  0.00000000000E+00 0. -1.
        -13    1    1    2    0    0  0.14704657423E+02  0.57337517679E+02  0.18945790204E+03  0.19848958293E+03  0.00000000000E+00 0.  1.
         13    1    1    2    0    0 -0.14704657423E+02 -0.57337517679E+02  0.45737126656E+02  0.74804429269E+02  0.00000000000E+00 0. -1.
<mgrwt>
<rscale>  0 0.13918662E+03</rscale>
<asrwt>0</asrwt>
<pdfrwt beam="2">  1        1 0.29306912E-02 0.13918662E+03</pdfrwt>
<pdfrwt beam="1">  1       -1 0.39114539E-01 0.13918662E+03</pdfrwt>
<totfact> 0.21051808E+04</totfact>
</mgrwt>
</event>
<event>
 5    1  0.1270889E+001  0.9099130E+02  0.7546771E-02  0.1300469E+00
         -2   -1    0    0    0  501 -0.00000000000E+00  0.00000000000E+00  0.41130491027E+02  0.41130491027E+02  0.00000000000E+00 0.  1.
          2   -1    0    0  501    0  0.00000000000E+00 -0.00000000000E+00 -0.50324077018E+02  0.50324077018E+02  0.00000000000E+00 0. -1.
         23    2    1    2    0    0  0.00000000000E+00  0.00000000000E+00 -0.91935859909E+01  0.91454568044E+02  0.90991296248E+02 0.  0.
        -13    1    3    3    0    0 -0.43732760897E+02  0.10322035576E+01  0.79662132219E+01  0.44464371951E+02  0.00000000000E+00 0.  1.
         13    1    3    3    0    0  0.43732760897E+02 -0.10322035576E+01 -0.17159799213E+02  0.46990196094E+02  0.00000000000E+00 0. -1.
<mgrwt>
<rscale>  0 0.90991296E+02</rscale>
<asrwt>0</asrwt>
<pdfrwt beam="2">  1        2 0.77421657E-02 0.90991296E+02</pdfrwt>
<pdfrwt beam="1">  1       -2 0.63277678E-02 0.90991296E+02</pdfrwt>
<totfact> 0.10183806E+05</totfact>
</mgrwt>
</event>
<event>
 5    1  0.1270889E+001  0.8623711E+02  0.7546771E-02  0.1312229E+00
         -1   -1    0    0    0  501 -0.00000000000E+00  0.00000000000E+00  0.18200297682E+03  0.18200297682E+03  0.00000000000E+00 0.  1.
          1   -1    0    0  501    0  0.00000000000E+00 -0.00000000000E+00 -0.10215271239E+02  0.10215271239E+02  0.00000000000E+00 0. -1.
         23    2    1    2    0    0  0.00000000000E+00  0.00000000000E+00  0.17178770558E+03  0.19221824806E+03  0.86237109749E+02 0.  0.
        -11    1    3    3    0    0 -0.26234136318E+02 -0.13338378156E+02  0.15613471178E+03  0.15888420457E+03  0.00000000000E+00 0.  1.
         11    1    3    3    0    0  0.26234136318E+02  0.13338378156E+02  0.15652993802E+02  0.33334043486E+02  0.00000000000E+00 0. -1.
<mgrwt>
<rscale>  0 0.86237110E+02</rscale>
<asrwt>0</asrwt>
<pdfrwt beam="2">  1        1 0.15715803E-02 0.86237110E+02</pdfrwt>
<pdfrwt beam="1">  1       -1 0.28000456E-01 0.86237110E+02</pdfrwt>
<totfact> 0.82347345E+04</totfact>
</mgrwt>
</event>
<event>
 5    1  0.1270889E+001  0.9231245E+02  0.7546771E-02  0.1297346E+00
         -2   -1    0    0    0  501 -0.00000000000E+00  0.00000000000E+00  0.91147134109E+02  0.91147134109E+02  0.00000000000E+00 0. -1.
          2   -1    0    0  501    0  0.00000000000E+00 -0.00000000000E+00 -0.23373164687E+02  0.23373164687E+02  0.00000000000E+00 0.  1.
         23    2    1    2    0    0  0.00000000000E+00  0.00000000000E+00  0.67773969422E+02  0.11452029880E+03  0.92312447184E+02 0.  0.
        -13    1    3    3    0    0 -0.24189882399E+02  0.16561874413E+02  0.78113894108E+02  0.83433965190E+02  0.00000000000E+00 0. -1.
         13    1    3    3    0    0  0.24189882399E+02 -0.16561874413E+02 -0.10339924686E+02  0.31086333606E+02  0.00000000000E+00 0.  1.
<mgrwt>
<rscale>  0 0.92312447E+02</rscale>
<asrwt>0</asrwt>
<pdfrwt beam="2">  1        2 0.35958715E-02 0.92312447E+02</pdfrwt>
<pdfrwt beam="1">  1       -2 0.14022636E-01 0.92312447E+02</pdfrwt>
<totfact> 0.79527856E+04</totfact>
</mgrwt>
</event>
<event>
 5    1  0.1270889E+001  0.9099654E+02  0.7546771E-02  0.1300456E+00
         -1   -1    0    0    0  501 -0.00000000000E+00  0.00000000000E+00  0.11558422612E+03  0.11558422612E+03  0.00000000000E+00 0.  1.
          1   -1    0    0  501    0  0.00000000000E+00 -0.00000000000E+00 -0.17909818213E+02  0.17909818213E+02  0.00000000000E+00 0. -1.
         23    2    1    2    0    0  0.00000000000E+00  0.00000000000E+00  0.97674407908E+02  0.13349404433E+03  0.90996537915E+02 0.  0.
        -11    1    3    3    0    0  0.44354205663E+02 -0.55258753341E+01  0.61307904993E+02  0.75871536645E+02  0.00000000000E+00 0. -1.
         11    1    3    3    0    0 -0.44354205663E+02  0.55258753341E+01  0.36366502915E+02  0.57622507689E+02  0.00000000000E+00 0.  1.
<mgrwt>
<rscale>  0 0.90996538E+02</rscale>
<asrwt>0</asrwt>
<pdfrwt beam="2">  1        1 0.27553567E-02 0.90996538E+02</pdfrwt>
<pdfrwt beam="1">  1       -1 0.17782188E-01 0.90996538E+02</pdfrwt>
<totfact> 0.79534766E+04</totfact>
</mgrwt>
</event>
<event>
 5    1  0.1270889E+001  0.9061005E+02  0.7546771E-02  0.1301381E+00
          1   -1    0    0  501    0  0.00000000000E+00  0.00000000000E+00  0.14227288836E+03  0.14227288836E+03  0.00000000000E+00 0. -1.
         -1   -1    0    0    0  501 -0.00000000000E+00 -0.00000000000E+00 -0.14426818082E+02  0.14426818082E+02  0.00000000000E+00 0.  1.
         23    2    1    2    0    0  0.00000000000E+00  0.00000000000E+00  0.12784607028E+03  0.15669970644E+03  0.90610045323E+02 0.  0.
        -13    1    3    3    0    0 -0.15508416622E+02 -0.36283490128E+02  0.25425558766E+02  0.46941044732E+02  0.00000000000E+00 0.  1.
         13    1    3    3    0    0  0.15508416622E+02  0.36283490128E+02  0.10242051151E+03  0.10975866171E+03  0.00000000000E+00 0. -1.
<mgrwt>
<rscale>  0 0.90610045E+02</rscale>
<asrwt>0</asrwt>
<pdfrwt beam="1">  1        1 0.21888136E-01 0.90610045E+02</pdfrwt>
<pdfrwt beam="2">  1       -1 0.22195106E-02 0.90610045E+02</pdfrwt>
<totfact> 0.11293871E+05</totfact>
</mgrwt>
</event>
<event>
 5    1  0.1270889E+001  0.9113884E+02  0.7546771E-02  0.1300117E+00
         -4   -1    0    0    0  501 -0.00000000000E+00  0.00000000000E+00  0.24298554207E+02  0.24298554207E+02  0.00000000000E+00 0.  1.
          4   -1    0    0  501    0  0.00000000000E+00 -0.00000000000E+00 -0.85460719252E+02  0.85460719252E+02  0.00000000000E+00 0. -1.
         23    2    1    2    0    0  0.00000000000E+00  0.00000000000E+00 -0.61162165045E+02  0.10975927346E+03  0.91138837372E+02 0.  0.
        -11    1    3    3    0    0 -0.28060669766E+02 -0.15604595647E+02 -0.69524540182E+02  0.76580456257E+02  0.00000000000E+00 0. -1.
         11    1    3    3    0    0  0.28060669766E+02  0.15604595647E+02  0.83623751370E+01  0.33178817203E+02  0.00000000000E+00 0.  1.
<mgrwt>
<rscale>  0 0.91138837E+02</rscale>
<asrwt>0</asrwt>
<pdfrwt beam="2">  1        4 0.13147803E-01 0.91138837E+02</pdfrwt>
<pdfrwt beam="1">  1       -4 0.37382390E-02 0.91138837E+02</pdfrwt>
<totfact> 0.25896285E+04</totfact>
</mgrwt>
</event>
<event>
 5    1  0.1270889E+001  0.9247277E+02  0.7546771E-02  0.1296972E+00
         -1   -1    0    0    0  501 -0.00000000000E+00  0.00000000000E+00  0.12864936029E+03  0.12864936029E+03  0.00000000000E+00 0.  1.
          1   -1    0    0  501    0  0.00000000000E+00 -0.00000000000E+00 -0.16617286452E+02  0.16617286452E+02  0.00000000000E+00 0. -1.
         23    2    1    2    0    0  0.00000000000E+00  0.00000000000E+00  0.11203207384E+03  0.14526664675E+03  0.92472769438E+02 0.  0.
        -13    1    3    3    0    0 -0.13225744134E+01  0.29008089935E+02  0.11253800779E+03  0.11622401508E+03  0.00000000000E+00 0.  1.
         13    1    3    3    0    0  0.13225744134E+01 -0.29008089935E+02 -0.50593394808E+00  0.29042631663E+02  0.00000000000E+00 0. -1.
<mgrwt>
<rscale>  0 0.92472769E+02</rscale>
<asrwt>0</asrwt>
<pdfrwt beam="2">  1        1 0.25565057E-02 0.92472769E+02</pdfrwt>
<pdfrwt beam="1">  1       -1 0.19792209E-01 0.92472769E+02</pdfrwt>
<totfact> 0.74617377E+04</totfact>
</mgrwt>
</event>
<event>
 5    1  0.1270889E+001  0.9361920E+02  0.7546771E-02  0.1294317E+00
         -1   -1    0    0    0  501 -0.00000000000E+00  0.00000000000E+00  0.21230787759E+03  0.21230787759E+03  0.00000000000E+00 0.  1.
          1   -1    0    0  501    0  0.00000000000E+00 -0.00000000000E+00 -0.10320571165E+02  0.10320571165E+02  0.00000000000E+00 0. -1.
         23    2    1    2    0    0  0.00000000000E+00  0.00000000000E+00  0.20198730643E+03  0.22262844876E+03  0.93619198020E+02 0.  0.
        -11    1    3    3    0    0  0.32179106790E+02  0.33796795337E+02  0.92282084228E+02  0.10341035421E+03  0.00000000000E+00 0. -1.
         11    1    3    3    0    0 -0.32179106790E+02 -0.33796795337E+02  0.10970522220E+03  0.11921809454E+03  0.00000000000E+00 0.  1.
<mgrwt>
<rscale>  0 0.93619198E+02</rscale>
<asrwt>0</asrwt>
<pdfrwt beam="2">  1        1 0.15877803E-02 0.93619198E+02</pdfrwt>
<pdfrwt beam="1">  1       -1 0.32662747E-01 0.93619198E+02</pdfrwt>
<totfact> 0.63672368E+04</totfact>
</mgrwt>
</event>
<event>
 5    1  0.1270889E+001  0.9094593E+02  0.7546771E-02  0.1300577E+00
          1   -1    0    0  501    0  0.00000000000E+00  0.00000000000E+00  0.28327833182E+03  0.28327833182E+03  0.00000000000E+00 0. -1.
         -1   -1    0    0    0  501 -0.00000000000E+00 -0.00000000000E+00 -0.72995016820E+01  0.72995016820E+01  0.00000000000E+00 0.  1.
         23    2    1    2    0    0  0.00000000000E+00  0.00000000000E+00  0.27597883014E+03  0.29057783351E+03  0.90945932501E+02 0.  0.
        -11    1    3    3    0    0  0.33379105819E+02  0.28162245033E+02  0.97509878038E+02  0.10684312362E+03  0.00000000000E+00 0. -1.
         11    1    3    3    0    0 -0.33379105819E+02 -0.28162245033E+02  0.17846895210E+03  0.18373470988E+03  0.00000000000E+00 0.  1.
<mgrwt>
<rscale>  0 0.90945933E+02</rscale>
<asrwt>0</asrwt>
<pdfrwt beam="1">  1        1 0.43581273E-01 0.90945933E+02</pdfrwt>
<pdfrwt beam="2">  1       -1 0.11230005E-02 0.90945933E+02</pdfrwt>
<totfact> 0.12757810E+05</totfact>
</mgrwt>
</event>
<event>
 5    1  0.1270889E+001  0.9292952E+02  0.7546771E-02  0.1295909E+00
          1   -1    0    0  501    0  0.00000000000E+00  0.00000000000E+00  0.27058119834E+03  0.27058119834E+03  0.00000000000E+00 0. -1.
         -1   -1    0    0    0  501 -0.00000000000E+00 -0.00000000000E+00 -0.79790243185E+01  0.79790243185E+01  0.00000000000E+00 0.  1.
         23    2    1    2    0    0  0.00000000000E+00  0.00000000000E+00  0.26260217402E+03  0.27856022266E+03  0.92929520857E+02 0.  0.
        -13    1    3    3    0    0 -0.18907406175E+02  0.36708884904E+02  0.67435713915E+02  0.79073432646E+02  0.00000000000E+00 0.  1.
         13    1    3    3    0    0  0.18907406175E+02 -0.36708884904E+02  0.19516646011E+03  0.19948679001E+03  0.00000000000E+00 0. -1.
<mgrwt>
<rscale>  0 0.92929521E+02</rscale>
<asrwt>0</asrwt>
<pdfrwt beam="1">  1        1 0.41627870E-01 0.92929521E+02</pdfrwt>
<pdfrwt beam="2">  1       -1 0.12275424E-02 0.92929521E+02</pdfrwt>
<totfact> 0.11936333E+05</totfact>
</mgrwt>
</event>
<event>
 5    1  0.1270889E+001  0.9020291E+02  0.7546771E-02  0.1302361E+00
         -1   -1    0    0    0  501 -0.00000000000E+00  0.00000000000E+00  0.13681014053E+03  0.13681014053E+03  0.00000000000E+00 0.  1.
          1   -1    0    0  501    0  0.00000000000E+00 -0.00000000000E+00 -0.14868351269E+02  0.14868351269E+02  0.00000000000E+00 0. -1.
         23    2    1    2    0    0  0.00000000000E+00  0.00000000000E+00  0.12194178926E+03  0.15167849180E+03  0.90202909634E+02 0.  0.
        -11    1    3    3    0    0 -0.40842098403E+02 -0.17362521315E+02  0.47455040206E+02  0.64973186696E+02  0.00000000000E+00 0. -1.
         11    1    3    3    0    0  0.40842098403E+02  0.17362521315E+02  0.74486749057E+02  0.86705305105E+02  0.00000000000E+00 0.  1.
<mgrwt>
<rscale>  0 0.90202910E+02</rscale>
<asrwt>0</asrwt>
<pdfrwt beam="2">  1        1 0.22874387E-02 0.90202910E+02</pdfrwt>
<pdfrwt beam="1">  1       -1 0.21047713E-01 0.90202910E+02</pdfrwt>
<totfact> 0.78524302E+04</totfact>
</mgrwt>
</event>
<event>
 5    1  0.1270889E+001  0.9033964E+02  0.7546771E-02  0.1302031E+00
          2   -1    0    0  501    0  0.00000000000E+00  0.00000000000E+00  0.19897665099E+03  0.19897665099E+03  0.00000000000E+00 0.  1.
         -2   -1    0    0    0  501 -0.00000000000E+00 -0.00000000000E+00 -0.10254031518E+02  0.10254031518E+02  0.00000000000E+00 0. -1.
         23    2    1    2    0    0  0.00000000000E+00  0.00000000000E+00  0.18872261947E+03  0.20923068250E+03  0.90339644688E+02 0.  0.
        -11    1    3    3    0    0 -0.24477470694E+02 -0.37823888332E+02  0.10187320827E+03  0.11139094964E+03  0.00000000000E+00 0.  1.
         11    1    3    3    0    0  0.24477470694E+02  0.37823888332E+02  0.86849411200E+02  0.97839732859E+02  0.00000000000E+00 0. -1.
<mgrwt>
<rscale>  0 0.90339645E+02</rscale>
<asrwt>0</asrwt>
<pdfrwt beam="1">  1        2 0.30611790E-01 0.90339645E+02</pdfrwt>
<pdfrwt beam="2">  1       -2 0.15775435E-02 0.90339645E+02</pdfrwt>
<totfact> 0.15827182E+05</totfact>
</mgrwt>
</event>
<event>
 5    1  0.1270889E+001  0.9213966E+02  0.7546771E-02  0.1297751E+00
          2   -1    0    0  501    0  0.00000000000E+00  0.00000000000E+00  0.16480626341E+03  0.16480626341E+03  0.00000000000E+00 0. -1.
         -2   -1    0    0    0  501 -0.00000000000E+00 -0.00000000000E+00 -0.12878329608E+02  0.12878329608E+02  0.00000000000E+00 0.  1.
         23    2    1    2    0    0  0.00000000000E+00  0.00000000000E+00  0.15192793380E+03  0.17768459302E+03  0.92139663158E+02 0.  0.
        -13    1    3    3    0    0 -0.20159695291E+02 -0.36132258752E+02  0.36893643388E+02  0.55435497284E+02  0.00000000000E+00 0.  1.
         13    1    3    3    0    0  0.20159695291E+02  0.36132258752E+02  0.11503429041E+03  0.12224909573E+03  0.00000000000E+00 0. -1.
<mgrwt>
<rscale>  0 0.92139663E+02</rscale>
<asrwt>0</asrwt>
<pdfrwt beam="1">  1        2 0.25354808E-01 0.92139663E+02</pdfrwt>
<pdfrwt beam="2">  1       -2 0.19812816E-02 0.92139663E+02</pdfrwt>
<totfact> 0.14035504E+05</totfact>
</mgrwt>
</event>
<event>
 5    1  0.1270889E+001  0.9089264E+02  0.7546771E-02  0.1300704E+00
         -1   -1    0    0    0  501 -0.00000000000E+00  0.00000000000E+00  0.97301593445E+01  0.97301593445E+01  0.00000000000E+00 0.  1.
          1   -1    0    0  501    0  0.00000000000E+00 -0.00000000000E+00 -0.21226457844E+03  0.21226457844E+03  0.00000000000E+00 0. -1.
         23    2    1    2    0    0  0.00000000000E+00  0.00000000000E+00 -0.20253441910E+03  0.22199473779E+03  0.90892643739E+02 0.  0.
        -13    1    3    3    0    0 -0.41493250639E+02 -0.10586911845E+01 -0.14647160670E+03  0.15223909566E+03  0.00000000000E+00 0. -1.
         13    1    3    3    0    0  0.41493250639E+02  0.10586911845E+01 -0.56062812395E+02  0.69755642132E+02  0.00000000000E+00 0.  1.
<mgrwt>
<rscale>  0 0.90892644E+02</rscale>
<asrwt>0</asrwt>
<pdfrwt beam="2">  1        1 0.32656084E-01 0.90892644E+02</pdfrwt>
<pdfrwt beam="1">  1       -1 0.14969478E-02 0.90892644E+02</pdfrwt>
<totfact> 0.12079001E+05</totfact>
</mgrwt>
</event>
<event>
 5    1  0.1270889E+001  0.9351332E+02  0.7546771E-02  0.1294560E+00
          4   -1    0    0  501    0  0.00000000000E+00  0.00000000000E+00  0.36151093839E+02  0.36151093839E+02  0.00000000000E+00 0.  1.
         -4   -1    0    0    0  501 -0.00000000000E+00 -0.00000000000E+00 -0.60473557166E+02  0.60473557166E+02  0.00000000000E+00 0. -1.
         23    2    1    2    0    0  0.00000000000E+00  0.00000000000E+00 -0.24322463327E+02  0.96624651005E+02  0.93513319690E+02 0.  0.
        -11    1    3    3    0    0  0.34945601234E+02  0.18499311010E+02 -0.37946805547E+02  0.54803098495E+02  0.00000000000E+00 0. -1.
         11    1    3    3    0    0 -0.34945601234E+02 -0.18499311010E+02  0.13624342220E+02  0.41821552510E+02  0.00000000000E+00 0.  1.
<mgrwt>
<rscale>  0 0.93513320E+02</rscale>
<asrwt>0</asrwt>
<pdfrwt beam="1">  1        4 0.55617068E-02 0.93513320E+02</pdfrwt>
<pdfrwt beam="2">  1       -4 0.93036241E-02 0.93513320E+02</pdfrwt>
<totfact> 0.24894543E+04</totfact>
</mgrwt>
</event>
<event>
 5    1  0.1270889E+001  0.9104992E+02  0.7546771E-02  0.1300329E+00
          1   -1    0    0  501    0  0.00000000000E+00  0.00000000000E+00  0.24259480759E+02  0.24259480759E+02  0.00000000000E+00 0. -1.
         -1   -1    0    0    0  501 -0.00000000000E+00 -0.00000000000E+00 -0.85431423385E+02  0.85431423385E+02  0.00000000000E+00 0.  1.
         23    2    1    2    0    0  0.00000000000E+00  0.00000000000E+00 -0.61171942626E+02  0.10969090414E+03  0.91049919756E+02 0.  0.
        -11    1    3    3    0    0  0.38773579859E+01  0.44877251510E+02 -0.38533595221E+02  0.59277648137E+02  0.00000000000E+00 0.  1.
         11    1    3    3    0    0 -0.38773579859E+01 -0.44877251510E+02 -0.22638347405E+02  0.50413256007E+02  0.00000000000E+00 0. -1.
<mgrwt>
<rscale>  0 0.91049920E+02</rscale>
<asrwt>0</asrwt>
<pdfrwt beam="1">  1        1 0.37322279E-02 0.91049920E+02</pdfrwt>
<pdfrwt beam="2">  1       -1 0.13143296E-01 0.91049920E+02</pdfrwt>
<totfact> 0.84003626E+04</totfact>
</mgrwt>
</event>
<event>
 5    1  0.1270889E+001  0.9236431E+02  0.7546771E-02  0.1297225E+00
         -3   -1    0    0    0  501 -0.00000000000E+00  0.00000000000E+00  0.15444720729E+02  0.15444720729E+02  0.00000000000E+00 0.  1.
          3   -1    0    0  501    0  0.00000000000E+00 -0.00000000000E+00 -0.13809195426E+03  0.13809195426E+03  0.00000000000E+00 0. -1.
         23    2    1    2    0    0  0.00000000000E+00  0.00000000000E+00 -0.12264723353E+03  0.15353667499E+03  0.92364314938E+02 0.  0.
        -11    1    3    3    0    0  0.36449791272E+01  0.23895134714E+02  0.40898996061E+01  0.24515109925E+02  0.00000000000E+00 0.  1.
         11    1    3    3    0    0 -0.36449791272E+01 -0.23895134714E+02 -0.12673713314E+03  0.12902156506E+03  0.00000000000E+00 0. -1.
<mgrwt>
<rscale>  0 0.92364315E+02</rscale>
<asrwt>0</asrwt>
<pdfrwt beam="2">  1        3 0.21244916E-01 0.92364315E+02</pdfrwt>
<pdfrwt beam="1">  1       -3 0.23761109E-02 0.92364315E+02</pdfrwt>
<totfact> 0.30019274E+04</totfact>
</mgrwt>
</event>
<event>
 5    1  0.1270889E+001  0.1059436E+03  0.7546771E-02  0.1268272E+00
         -1   -1    0    0    0  501 -0.00000000000E+00  0.00000000000E+00  0.80155786355E+01  0.80155786355E+01  0.00000000000E+00 0.  1.
          1   -1    0    0  501    0  0.00000000000E+00 -0.00000000000E+00 -0.35006964641E+03  0.35006964641E+03  0.00000000000E+00 0. -1.
         23    2    1    2    0    0  0.00000000000E+00  0.00000000000E+00 -0.34205406778E+03  0.35808522505E+03  0.10594358459E+03 0.  0.
        -13    1    3    3    0    0  0.47268264069E+02 -0.26012162992E+01 -0.25136464665E+03  0.25578358177E+03  0.00000000000E+00 0. -1.
         13    1    3    3    0    0 -0.47268264069E+02  0.26012162992E+01 -0.90689421124E+02  0.10230164328E+03  0.00000000000E+00 0.  1.
<mgrwt>
<rscale>  0 0.10594358E+03</rscale>
<asrwt>0</asrwt>
<pdfrwt beam="2">  1        1 0.53856859E-01 0.10594358E+03</pdfrwt>
<pdfrwt beam="1">  1       -1 0.12331662E-02 0.10594358E+03</pdfrwt>
<totfact> 0.88166971E+04</totfact>
</mgrwt>
</event>
<event>
 5    1  0.1270889E+001  0.8924883E+02  0.7546771E-02  0.1304681E+00
         -2   -1    0    0    0  501 -0.00000000000E+00  0.00000000000E+00  0.59415154282E+01  0.59415154282E+01  0.00000000000E+00 0.  1.
          2   -1    0    0  501    0  0.00000000000E+00 -0.00000000000E+00 -0.33515663558E+03  0.33515663558E+03  0.00000000000E+00 0. -1.
         23    2    1    2    0    0  0.00000000000E+00  0.00000000000E+00 -0.32921512015E+03  0.34109815101E+03  0.89248827917E+02 0.  0.
        -11    1    3    3    0    0 -0.42601370453E+02 -0.55855048600E+01 -0.11854422453E+03  0.12609047465E+03  0.00000000000E+00 0.  1.
         11    1    3    3    0    0  0.42601370453E+02  0.55855048600E+01 -0.21067089562E+03  0.21500767636E+03  0.00000000000E+00 0. -1.
<mgrwt>
<rscale>  0 0.89248828E+02</rscale>
<asrwt>0</asrwt>
<pdfrwt beam="2">  1        2 0.51562560E-01 0.89248828E+02</pdfrwt>
<pdfrwt beam="1">  1       -2 0.91407928E-03 0.89248828E+02</pdfrwt>
<totfact> 0.19813648E+05</totfact>
</mgrwt>
</event>
<event>
 5    1  0.1270889E+001  0.8947868E+02  0.7546771E-02  0.1304119E+00
         -1   -1    0    0    0  501 -0.00000000000E+00  0.00000000000E+00  0.19183634164E+02  0.19183634164E+02  0.00000000000E+00 0.  1.
          1   -1    0    0  501    0  0.00000000000E+00 -0.00000000000E+00 -0.10433938991E+03  0.10433938991E+03  0.00000000000E+00 0. -1.
         23    2    1    2    0    0  0.00000000000E+00  0.00000000000E+00 -0.85155755748E+02  0.12352302408E+03  0.89478683158E+02 0.  0.
        -13    1    3    3    0    0  0.17398951307E+02 -0.31781456093E+02 -0.63466929079E+01  0.36784031438E+02  0.00000000000E+00 0.  1.
         13    1    3    3    0    0 -0.17398951307E+02  0.31781456093E+02 -0.78809062840E+02  0.86738992637E+02  0.00000000000E+00 0. -1.
<mgrwt>
<rscale>  0 0.89478683E+02</rscale>
<asrwt>0</asrwt>
<pdfrwt beam="2">  1        1 0.16052214E-01 0.89478683E+02</pdfrwt>
<pdfrwt beam="1">  1       -1 0.29513284E-02 0.89478683E+02</pdfrwt>
<totfact> 0.11070983E+05</totfact>
</mgrwt>
</event>
<event>
 5    1  0.1270889E+001  0.9321776E+02  0.7546771E-02  0.1295241E+00
         -1   -1    0    0    0  501 -0.00000000000E+00  0.00000000000E+00  0.18187932862E+03  0.18187932862E+03  0.00000000000E+00 0.  1.
          1   -1    0    0  501    0  0.00000000000E+00 -0.00000000000E+00 -0.11944114931E+02  0.11944114931E+02  0.00000000000E+00 0. -1.
         23    2    1    2    0    0  0.00000000000E+00  0.00000000000E+00  0.16993521369E+03  0.19382344355E+03  0.93217758065E+02 0.  0.
        -11    1    3    3    0    0  0.30329761217E+02  0.62976973787E+01  0.15737918459E+03  0.16039876293E+03  0.00000000000E+00 0.  1.
         11    1    3    3    0    0 -0.30329761217E+02 -0.62976973787E+01  0.12556029098E+02  0.33424680619E+02  0.00000000000E+00 0. -1.
<mgrwt>
<rscale>  0 0.93217758E+02</rscale>
<asrwt>0</asrwt>
<pdfrwt beam="2">  1        1 0.18375563E-02 0.93217758E+02</pdfrwt>
<pdfrwt beam="1">  1       -1 0.27981433E-01 0.93217758E+02</pdfrwt>
<totfact> 0.67276447E+04</totfact>
</mgrwt>
</event>
<event>
 5    1  0.1270889E+001  0.9190677E+02  0.7546771E-02  0.1298299E+00
          2   -1    0    0  501    0  0.00000000000E+00  0.00000000000E+00  0.10963015995E+02  0.10963015995E+02  0.00000000000E+00 0. -1.
         -2   -1    0    0    0  501 -0.00000000000E+00 -0.00000000000E+00 -0.19262161097E+03  0.19262161097E+03  0.00000000000E+00 0.  1.
         23    2    1    2    0    0  0.00000000000E+00  0.00000000000E+00 -0.18165859497E+03  0.20358462696E+03  0.91906774548E+02 0.  0.
        -11    1    3    3    0    0 -0.32742649142E+02  0.31533112866E+02 -0.10573749338E+03  0.11509489904E+03  0.00000000000E+00 0.  1.
         11    1    3    3    0    0  0.32742649142E+02 -0.31533112866E+02 -0.75921101599E+02  0.88489727923E+02  0.00000000000E+00 0. -1.
<mgrwt>
<rscale>  0 0.91906775E+02</rscale>
<asrwt>0</asrwt>
<pdfrwt beam="1">  1        2 0.16866180E-02 0.91906775E+02</pdfrwt>
<pdfrwt beam="2">  1       -2 0.29634091E-01 0.91906775E+02</pdfrwt>
<totfact> 0.62053430E+04</totfact>
</mgrwt>
</event>
<event>
 5    1  0.1270889E+001  0.1153530E+03  0.7546771E-02  0.1250966E+00
          1   -1    0    0  501    0  0.00000000000E+00  0.00000000000E+00  0.23924809422E+03  0.23924809422E+03  0.00000000000E+00 0. -1.
         -1   -1    0    0    0  501 -0.00000000000E+00 -0.00000000000E+00 -0.13904313911E+02  0.13904313911E+02  0.00000000000E+00 0.  1.
         23    2    1    2    0    0  0.00000000000E+00  0.00000000000E+00  0.22534378031E+03  0.25315240813E+03  0.11535303385E+03 0.  0.
        -13    1    3    3    0    0 -0.18375968609E+02  0.36447424251E+02  0.23244382326E+02  0.46972249963E+02  0.00000000000E+00 0.  1.
         13    1    3    3    0    0  0.18375968609E+02 -0.36447424251E+02  0.20209939798E+03  0.20618015817E+03  0.00000000000E+00 0. -1.
<mgrwt>
<rscale>  0 0.11535303E+03</rscale>
<asrwt>0</asrwt>
<pdfrwt beam="1">  1        1 0.36807396E-01 0.11535303E+03</pdfrwt>
<pdfrwt beam="2">  1       -1 0.21391254E-02 0.11535303E+03</pdfrwt>
<totfact> 0.64838211E+04</totfact>
</mgrwt>
</event>
<event>
 5    1  0.1270889E+001  0.9508738E+02  0.7546771E-02  0.1290979E+00
          1   -1    0    0  501    0  0.00000000000E+00  0.00000000000E+00  0.23792313098E+03  0.23792313098E+03  0.00000000000E+00 0. -1.
         -1   -1    0    0    0  501 -0.00000000000E+00 -0.00000000000E+00 -0.95005571049E+01  0.95005571049E+01  0.00000000000E+00 0.  1.
         23    2    1    2    0    0  0.00000000000E+00  0.00000000000E+00  0.22842257387E+03  0.24742368808E+03  0.95087376500E+02 0.  0.
        -13    1    3    3    0    0  0.12794897639E+02  0.43712320967E+02  0.14969167300E+03  0.15646748344E+03  0.00000000000E+00 0. -1.
         13    1    3    3    0    0 -0.12794897639E+02 -0.43712320967E+02  0.78730900877E+02  0.90956204641E+02  0.00000000000E+00 0.  1.
<mgrwt>
<rscale>  0 0.95087377E+02</rscale>
<asrwt>0</asrwt>
<pdfrwt beam="1">  1        1 0.36603554E-01 0.95087377E+02</pdfrwt>
<pdfrwt beam="2">  1       -1 0.14616243E-02 0.95087377E+02</pdfrwt>
<totfact> 0.10943751E+05</totfact>
</mgrwt>
</event>
<event>
 5    1  0.1270889E+001  0.8398036E+02  0.7546771E-02  0.1318121E+00
          1   -1    0    0  501    0  0.00000000000E+00  0.00000000000E+00  0.40319827115E+02  0.40319827115E+02  0.00000000000E+00 0. -1.
         -1   -1    0    0    0  501 -0.00000000000E+00 -0.00000000000E+00 -0.43729726863E+02  0.43729726863E+02  0.00000000000E+00 0.  1.
         23    2    1    2    0    0  0.00000000000E+00  0.00000000000E+00 -0.34098997482E+01  0.84049553978E+02  0.83980355486E+02 0.  0.
        -13    1    3    3    0    0  0.30909359682E+02 -0.10528205185E+02 -0.28126388528E+02  0.43096697692E+02  0.00000000000E+00 0.  1.
         13    1    3    3    0    0 -0.30909359682E+02  0.10528205185E+02  0.24716488780E+02  0.40952856286E+02  0.00000000000E+00 0. -1.
<mgrwt>
<rscale>  0 0.83980355E+02</rscale>
<asrwt>0</asrwt>
<pdfrwt beam="1">  1        1 0.62030504E-02 0.83980355E+02</pdfrwt>
<pdfrwt beam="2">  1       -1 0.67276502E-02 0.83980355E+02</pdfrwt>
<totfact> 0.11429021E+05</totfact>
</mgrwt>
</event>
<event>
 5    1  0.1270889E+001  0.9190197E+02  0.7546771E-02  0.1298310E+00
          2   -1    0    0  501    0  0.00000000000E+00  0.00000000000E+00  0.28597920526E+02  0.28597920526E+02  0.00000000000E+00 0. -1.
         -2   -1    0    0    0  501 -0.00000000000E+00 -0.00000000000E+00 -0.73833792525E+02  0.73833792525E+02  0.00000000000E+00 0.  1.
         23    2    1    2    0    0  0.00000000000E+00  0.00000000000E+00 -0.45235871999E+02  0.10243171305E+03  0.91901968005E+02 0.  0.
        -11    1    3    3    0    0 -0.26775025451E+02  0.37341370195E+02 -0.22103519903E+02  0.50988680195E+02  0.00000000000E+00 0.  1.
         11    1    3    3    0    0  0.26775025451E+02 -0.37341370195E+02 -0.23132352096E+02  0.51443032856E+02  0.00000000000E+00 0. -1.
<mgrwt>
<rscale>  0 0.91901968E+02</rscale>
<asrwt>0</asrwt>
<pdfrwt beam="1">  1        2 0.43996801E-02 0.91901968E+02</pdfrwt>
<pdfrwt beam="2">  1       -2 0.11359045E-01 0.91901968E+02</pdfrwt>
<totfact> 0.85295178E+04</totfact>
</mgrwt>
</event>
<event>
 5    1  0.1270889E+001  0.1007419E+03  0.7546771E-02  0.1278743E+00
         -2   -1    0    0    0  501 -0.00000000000E+00  0.00000000000E+00  0.29784181392E+02  0.29784181392E+02  0.00000000000E+00 0. -1.
          2   -1    0    0  501    0  0.00000000000E+00 -0.00000000000E+00 -0.85187286232E+02  0.85187286232E+02  0.00000000000E+00 0.  1.
         23    2    1    2    0    0  0.00000000000E+00  0.00000000000E+00 -0.55403104839E+02  0.11497146762E+03  0.10074191949E+03 0.  0.
        -11    1    3    3    0    0 -0.26747434326E+02  0.14263487267E+00  0.21009641244E+02  0.34012506713E+02  0.00000000000E+00 0. -1.
         11    1    3    3    0    0  0.26747434326E+02 -0.14263487267E+00 -0.76412746083E+02  0.80958960911E+02  0.00000000000E+00 0.  1.
<mgrwt>
<rscale>  0 0.10074192E+03</rscale>
<asrwt>0</asrwt>
<pdfrwt beam="2">  1        2 0.13105736E-01 0.10074192E+03</pdfrwt>
<pdfrwt beam="1">  1       -2 0.45821819E-02 0.10074192E+03</pdfrwt>
<totfact> 0.88492414E+04</totfact>
</mgrwt>
</event>
<event>
 5    1  0.1270889E+001  0.1134722E+03  0.7546771E-02  0.1254272E+00
          3   -1    0    0  501    0  0.00000000000E+00  0.00000000000E+00  0.90771138759E+02  0.90771138759E+02  0.00000000000E+00 0. -1.
         -3   -1    0    0    0  501 -0.00000000000E+00 -0.00000000000E+00 -0.35462641127E+02  0.35462641127E+02  0.00000000000E+00 0.  1.
         23    2    1    2    0    0  0.00000000000E+00  0.00000000000E+00  0.55308497633E+02  0.12623377989E+03  0.11347218723E+03 0.  0.
        -13    1    3    3    0    0  0.21076100108E+02  0.21391090013E+02  0.81205331654E+02  0.86579943501E+02  0.00000000000E+00 0. -1.
         13    1    3    3    0    0 -0.21076100108E+02 -0.21391090013E+02 -0.25896834021E+02  0.39653836385E+02  0.00000000000E+00 0.  1.
<mgrwt>
<rscale>  0 0.11347219E+03</rscale>
<asrwt>0</asrwt>
<pdfrwt beam="1">  1        3 0.13964791E-01 0.11347219E+03</pdfrwt>
<pdfrwt beam="2">  1       -3 0.54557910E-02 0.11347219E+03</pdfrwt>
<totfact> 0.17978555E+04</totfact>
</mgrwt>
</event>
<event>
 5    1  0.1270889E+001  0.9082071E+02  0.7546771E-02  0.1300876E+00
          1   -1    0    0  501    0  0.00000000000E+00  0.00000000000E+00  0.16736407736E+03  0.16736407736E+03  0.00000000000E+00 0. -1.
         -1   -1    0    0    0  501 -0.00000000000E+00 -0.00000000000E+00 -0.12321045414E+02  0.12321045414E+02  0.00000000000E+00 0.  1.
         23    2    1    2    0    0  0.00000000000E+00  0.00000000000E+00  0.15504303194E+03  0.17968512277E+03  0.90820711246E+02 0.  0.
        -13    1    3    3    0    0  0.27133117176E+02  0.15180684236E+02  0.14300348842E+03  0.14634430950E+03  0.00000000000E+00 0. -1.
         13    1    3    3    0    0 -0.27133117176E+02 -0.15180684236E+02  0.12039543521E+02  0.33340813274E+02  0.00000000000E+00 0.  1.
<mgrwt>
<rscale>  0 0.90820711E+02</rscale>
<asrwt>0</asrwt>
<pdfrwt beam="1">  1        1 0.25748318E-01 0.90820711E+02</pdfrwt>
<pdfrwt beam="2">  1       -1 0.18955456E-02 0.90820711E+02</pdfrwt>
<totfact> 0.11564991E+05</totfact>
</mgrwt>
</event>
<event>
 5    1  0.1270889E+001  0.9003077E+02  0.7546771E-02  0.1302777E+00
         -4   -1    0    0    0  501 -0.00000000000E+00  0.00000000000E+00  0.88245060899E+02  0.88245060899E+02  0.00000000000E+00 0.  1.
          4   -1    0    0  501    0  0.00000000000E+00 -0.00000000000E+00 -0.22963154610E+02  0.22963154610E+02  0.00000000000E+00 0. -1.
         23    2    1    2    0    0  0.00000000000E+00  0.00000000000E+00  0.65281906289E+02  0.11120821551E+03  0.90030772006E+02 0.  0.
        -13    1    3    3    0    0 -0.21166372960E+02  0.26568315802E+02 -0.38451245894E+01  0.34185899607E+02  0.00000000000E+00 0. -1.
         13    1    3    3    0    0  0.21166372960E+02 -0.26568315802E+02  0.69127030878E+02  0.77022315902E+02  0.00000000000E+00 0.  1.
<mgrwt>
<rscale>  0 0.90030772E+02</rscale>
<asrwt>0</asrwt>
<pdfrwt beam="2">  1        4 0.35327931E-02 0.90030772E+02</pdfrwt>
<pdfrwt beam="1">  1       -4 0.13576163E-01 0.90030772E+02</pdfrwt>
<totfact> 0.26676383E+04</totfact>
</mgrwt>
</event>
<event>
 5    1  0.1270889E+001  0.9246301E+02  0.7546771E-02  0.1296994E+00
          2   -1    0    0  501    0  0.00000000000E+00  0.00000000000E+00  0.16135473780E+02  0.16135473780E+02  0.00000000000E+00 0. -1.
         -2   -1    0    0    0  501 -0.00000000000E+00 -0.00000000000E+00 -0.13246292029E+03  0.13246292029E+03  0.00000000000E+00 0.  1.
         23    2    1    2    0    0  0.00000000000E+00  0.00000000000E+00 -0.11632744651E+03  0.14859839407E+03  0.92463008326E+02 0.  0.
        -13    1    3    3    0    0  0.48643166020E+01  0.41203289164E+02 -0.25385758076E+02  0.48639586008E+02  0.00000000000E+00 0. -1.
         13    1    3    3    0    0 -0.48643166020E+01 -0.41203289164E+02 -0.90941688435E+02  0.99958808063E+02  0.00000000000E+00 0.  1.
<mgrwt>
<rscale>  0 0.92463008E+02</rscale>
<asrwt>0</asrwt>
<pdfrwt beam="1">  1        2 0.24823806E-02 0.92463008E+02</pdfrwt>
<pdfrwt beam="2">  1       -2 0.20378911E-01 0.92463008E+02</pdfrwt>
<totfact> 0.70448503E+04</totfact>
</mgrwt>
</event>
<event>
 5    1  0.1270889E+001  0.9438836E+02  0.7546771E-02  0.1292560E+00
          2   -1    0    0  501    0  0.00000000000E+00  0.00000000000E+00  0.62609226161E+02  0.62609226161E+02  0.00000000000E+00 0. -1.
         -2   -1    0    0    0  501 -0.00000000000E+00 -0.00000000000E+00 -0.35574479450E+02  0.35574479450E+02  0.00000000000E+00 0.  1.
         23    2    1    2    0    0  0.00000000000E+00  0.00000000000E+00  0.27034746711E+02  0.98183705611E+02  0.94388360076E+02 0.  0.
        -11    1    3    3    0    0  0.18450852217E+02 -0.39592078311E+02  0.32105549117E+02  0.54210081135E+02  0.00000000000E+00 0. -1.
         11    1    3    3    0    0 -0.18450852217E+02  0.39592078311E+02 -0.50708024067E+01  0.43973624476E+02  0.00000000000E+00 0.  1.
<mgrwt>
<rscale>  0 0.94388360E+02</rscale>
<asrwt>0</asrwt>
<pdfrwt beam="1">  1        2 0.96321886E-02 0.94388360E+02</pdfrwt>
<pdfrwt beam="2">  1       -2 0.54729969E-02 0.94388360E+02</pdfrwt>
<totfact> 0.97296224E+04</totfact>
</mgrwt>
</event>
<event>
 5    1  0.1270889E+001  0.9104547E+02  0.7546771E-02  0.1300340E+00
          4   -1    0    0  501    0  0.00000000000E+00  0.00000000000E+00  0.14529203835E+02  0.14529203835E+02  0.00000000000E+00 0.  1.
         -4   -1    0    0    0  501 -0.00000000000E+00 -0.00000000000E+00 -0.14263131290E+03  0.14263131290E+03  0.00000000000E+00 0. -1.
         23    2    1    2    0    0  0.00000000000E+00  0.00000000000E+00 -0.12810210907E+03  0.15716051674E+03  0.91045470362E+02 0.  0.
        -13    1    3    3    0    0  0.65953513005E+01  0.42072730342E+02 -0.91815465007E+02  0.10121113037E+03  0.00000000000E+00 0. -1.
         13    1    3    3    0    0 -0.65953513005E+01 -0.42072730342E+02 -0.36286644059E+02  0.55949386362E+02  0.00000000000E+00 0.  1.
<mgrwt>
<rscale>  0 0.91045470E+02</rscale>
<asrwt>0</asrwt>
<pdfrwt beam="1">  1        4 0.22352621E-02 0.91045470E+02</pdfrwt>
<pdfrwt beam="2">  1       -4 0.21943279E-01 0.91045470E+02</pdfrwt>
<totfact> 0.23409530E+04</totfact>
</mgrwt>
</event>
<event>
 5    1  0.1270889E+001  0.1017374E+03  0.7546771E-02  0.1276684E+00
         -1   -1    0    0    0  501 -0.00000000000E+00  0.00000000000E+00  0.62161917402E+02  0.62161917402E+02  0.00000000000E+00 0.  1.
          1   -1    0    0  501    0  0.00000000000E+00 -0.00000000000E+00 -0.41627171478E+02  0.41627171478E+02  0.00000000000E+00 0. -1.
         23    2    1    2    0    0  0.00000000000E+00  0.00000000000E+00  0.20534745924E+02  0.10378908888E+03  0.10173740306E+03 0.  0.
        -13    1    3    3    0    0 -0.43457721126E+02  0.69089824487E+00  0.37230933404E+02  0.57229304277E+02  0.00000000000E+00 0.  1.
         13    1    3    3    0    0  0.43457721126E+02 -0.69089824487E+00 -0.16696187480E+02  0.46559784603E+02  0.00000000000E+00 0. -1.
<mgrwt>
<rscale>  0 0.10173740E+03</rscale>
<asrwt>0</asrwt>
<pdfrwt beam="2">  1        1 0.64041802E-02 0.10173740E+03</pdfrwt>
<pdfrwt beam="1">  1       -1 0.95633719E-02 0.10173740E+03</pdfrwt>
<totfact> 0.66758237E+04</totfact>
</mgrwt>
</event>
<event>
 5    1  0.1270889E+001  0.9294344E+02  0.7546771E-02  0.1295876E+00
          2   -1    0    0  501    0  0.00000000000E+00  0.00000000000E+00  0.10904064414E+03  0.10904064414E+03  0.00000000000E+00 0. -1.
         -2   -1    0    0    0  501 -0.00000000000E+00 -0.00000000000E+00 -0.19805647578E+02  0.19805647578E+02  0.00000000000E+00 0.  1.
         23    2    1    2    0    0  0.00000000000E+00  0.00000000000E+00  0.89234996562E+02  0.12884629172E+03  0.92943435905E+02 0.  0.
        -13    1    3    3    0    0  0.47260939542E+01  0.32882070621E+02 -0.43265479827E+00  0.33222789205E+02  0.00000000000E+00 0.  1.
         13    1    3    3    0    0 -0.47260939542E+01 -0.32882070621E+02  0.89667651360E+02  0.95623502513E+02  0.00000000000E+00 0. -1.
<mgrwt>
<rscale>  0 0.92943436E+02</rscale>
<asrwt>0</asrwt>
<pdfrwt beam="1">  1        2 0.16775483E-01 0.92943436E+02</pdfrwt>
<pdfrwt beam="2">  1       -2 0.30470228E-02 0.92943436E+02</pdfrwt>
<totfact> 0.11951620E+05</totfact>
</mgrwt>
</event>
<event>
 5    1  0.1270889E+001  0.9128268E+02  0.7546771E-02  0.1299775E+00
         -4   -1    0    0    0  501 -0.00000000000E+00  0.00000000000E+00  0.13991781389E+02  0.13991781389E+02  0.00000000000E+00 0. -1.
          4   -1    0    0  501    0  0.00000000000E+00 -0.00000000000E+00 -0.14888254717E+03  0.14888254717E+03  0.00000000000E+00 0.  1.
         23    2    1    2    0    0  0.00000000000E+00  0.00000000000E+00 -0.13489076578E+03  0.16287432855E+03  0.91282682970E+02 0.  0.
        -11    1    3    3    0    0  0.36479756345E+02  0.27384732486E+02 -0.70230157617E+02  0.83743484733E+02  0.00000000000E+00 0.  1.
         11    1    3    3    0    0 -0.36479756345E+02 -0.27384732486E+02 -0.64660608160E+02  0.79130843822E+02  0.00000000000E+00 0. -1.
<mgrwt>
<rscale>  0 0.91282683E+02</rscale>
<asrwt>0</asrwt>
<pdfrwt beam="2">  1        4 0.22905007E-01 0.91282683E+02</pdfrwt>
<pdfrwt beam="1">  1       -4 0.21525818E-02 0.91282683E+02</pdfrwt>
<totfact> 0.22971200E+04</totfact>
</mgrwt>
</event>
<event>
 5    1  0.1270889E+001  0.7696519E+02  0.7546771E-02  0.1337891E+00
         -3   -1    0    0    0  501 -0.00000000000E+00  0.00000000000E+00  0.20752665417E+02  0.20752665417E+02  0.00000000000E+00 0.  1.
          3   -1    0    0  501    0  0.00000000000E+00 -0.00000000000E+00 -0.71359987784E+02  0.71359987784E+02  0.00000000000E+00 0. -1.
         23    2    1    2    0    0  0.00000000000E+00  0.00000000000E+00 -0.50607322368E+02  0.92112653201E+02  0.76965185652E+02 0.  0.
        -13    1    3    3    0    0 -0.30486531266E+02  0.23602902668E+01  0.26594604190E+01  0.30693196127E+02  0.00000000000E+00 0.  1.
         13    1    3    3    0    0  0.30486531266E+02 -0.23602902668E+01 -0.53266782787E+02  0.61419457074E+02  0.00000000000E+00 0. -1.
<mgrwt>
<rscale>  0 0.76965186E+02</rscale>
<asrwt>0</asrwt>
<pdfrwt beam="2">  1        3 0.10978460E-01 0.76965186E+02</pdfrwt>
<pdfrwt beam="1">  1       -3 0.31927178E-02 0.76965186E+02</pdfrwt>
<totfact> 0.55670881E+04</totfact>
</mgrwt>
</event>
<event>
 5    1  0.1270889E+001  0.8966060E+02  0.7546771E-02  0.1303676E+00
          4   -1    0    0  501    0  0.00000000000E+00  0.00000000000E+00  0.41454654952E+02  0.41454654952E+02  0.00000000000E+00 0. -1.
         -4   -1    0    0    0  501 -0.00000000000E+00 -0.00000000000E+00 -0.48480826258E+02  0.48480826258E+02  0.00000000000E+00 0.  1.
         23    2    1    2    0    0  0.00000000000E+00  0.00000000000E+00 -0.70261713053E+01  0.89935481210E+02  0.89660602816E+02 0.  0.
        -11    1    3    3    0    0  0.10863481784E+02  0.13307471222E+02 -0.45048389373E+02  0.48212668583E+02  0.00000000000E+00 0.  1.
         11    1    3    3    0    0 -0.10863481784E+02 -0.13307471222E+02  0.38022218067E+02  0.41722812628E+02  0.00000000000E+00 0. -1.
<mgrwt>
<rscale>  0 0.89660603E+02</rscale>
<asrwt>0</asrwt>
<pdfrwt beam="1">  1        4 0.63776392E-02 0.89660603E+02</pdfrwt>
<pdfrwt beam="2">  1       -4 0.74585887E-02 0.89660603E+02</pdfrwt>
<totfact> 0.28355326E+04</totfact>
</mgrwt>
</event>
<event>
 5    1  0.1270889E+001  0.9878050E+02  0.7546771E-02  0.1282881E+00
         -2   -1    0    0    0  501 -0.00000000000E+00  0.00000000000E+00  0.19522598225E+02  0.19522598225E+02  0.00000000000E+00 0.  1.
          2   -1    0    0  501    0  0.00000000000E+00 -0.00000000000E+00 -0.12495247851E+03  0.12495247851E+03  0.00000000000E+00 0. -1.
         23    2    1    2    0    0  0.00000000000E+00  0.00000000000E+00 -0.10542988028E+03  0.14447507673E+03  0.98780504861E+02 0.  0.
        -11    1    3    3    0    0  0.20064734869E+02  0.21226615706E+02  0.55363236167E+01  0.29729004001E+02  0.00000000000E+00 0.  1.
         11    1    3    3    0    0 -0.20064734869E+02 -0.21226615706E+02 -0.11096620390E+03  0.11474607273E+03  0.00000000000E+00 0. -1.
<mgrwt>
<rscale>  0 0.98780505E+02</rscale>
<asrwt>0</asrwt>
<pdfrwt beam="2">  1        2 0.19223459E-01 0.98780505E+02</pdfrwt>
<pdfrwt beam="1">  1       -2 0.30034766E-02 0.98780505E+02</pdfrwt>
<totfact> 0.10558142E+05</totfact>
</mgrwt>
</event>
<event>
 5    1  0.1270889E+001  0.9167387E+02  0.7546771E-02  0.1298848E+00
         -1   -1    0    0    0  501 -0.00000000000E+00  0.00000000000E+00  0.21692777393E+02  0.21692777393E+02  0.00000000000E+00 0.  1.
          1   -1    0    0  501    0  0.00000000000E+00 -0.00000000000E+00 -0.96853642036E+02  0.96853642036E+02  0.00000000000E+00 0. -1.
         23    2    1    2    0    0  0.00000000000E+00  0.00000000000E+00 -0.75160864642E+02  0.11854641943E+03  0.91673867518E+02 0.  0.
        -11    1    3    3    0    0  0.23039892583E+02  0.21043461275E+02  0.58380171947E+01  0.31745020987E+02  0.00000000000E+00 0.  1.
         11    1    3    3    0    0 -0.23039892583E+02 -0.21043461275E+02 -0.80998881837E+02  0.86801398442E+02  0.00000000000E+00 0. -1.
<mgrwt>
<rscale>  0 0.91673868E+02</rscale>
<asrwt>0</asrwt>
<pdfrwt beam="2">  1        1 0.14900560E-01 0.91673868E+02</pdfrwt>
<pdfrwt beam="1">  1       -1 0.33373504E-02 0.91673868E+02</pdfrwt>
<totfact> 0.10236830E+05</totfact>
</mgrwt>
</event>
<event>
 5    1  0.1270889E+001  0.9120428E+02  0.7546771E-02  0.1299961E+00
         -2   -1    0    0    0  501 -0.00000000000E+00  0.00000000000E+00  0.20250233340E+03  0.20250233340E+03  0.00000000000E+00 0.  1.
          2   -1    0    0  501    0  0.00000000000E+00 -0.00000000000E+00 -0.10269289257E+02  0.10269289257E+02  0.00000000000E+00 0. -1.
         23    2    1    2    0    0  0.00000000000E+00  0.00000000000E+00  0.19223304414E+03  0.21277162266E+03  0.91204277025E+02 0.  0.
        -11    1    3    3    0    0  0.21177165090E+02 -0.29256513353E+02  0.16106789485E+03  0.16506750936E+03  0.00000000000E+00 0.  1.
         11    1    3    3    0    0 -0.21177165090E+02  0.29256513353E+02  0.31165149286E+02  0.47704113291E+02  0.00000000000E+00 0. -1.
<mgrwt>
<rscale>  0 0.91204277E+02</rscale>
<asrwt>0</asrwt>
<pdfrwt beam="2">  1        2 0.15798908E-02 0.91204277E+02</pdfrwt>
<pdfrwt beam="1">  1       -2 0.31154202E-01 0.91204277E+02</pdfrwt>
<totfact> 0.61935657E+04</totfact>
</mgrwt>
</event>
<event>
 4    1  0.1270889E+001  0.3406592E+02  0.7546771E-02  0.1557055E+00
          4   -1    0    0  501    0  0.00000000000E+00  0.00000000000E+00  0.12373112688E+02  0.12373112688E+02  0.00000000000E+00 0.  1.
         -4   -1    0    0    0  501 -0.00000000000E+00 -0.00000000000E+00 -0.23447755695E+02  0.23447755695E+02  0.00000000000E+00 0. -1.
        -11    1    1    2    0    0 -0.71274396456E+01  0.11676169364E+02  0.51338018019E+01  0.14611271261E+02  0.00000000000E+00 0.  1.
         11    1    1    2    0    0  0.71274396456E+01 -0.11676169364E+02 -0.16208444809E+02  0.21209597122E+02  0.00000000000E+00 0. -1.
<mgrwt>
<rscale>  0 0.34065920E+02</rscale>
<asrwt>0</asrwt>
<pdfrwt beam="1">  1        4 0.19035558E-02 0.34065920E+02</pdfrwt>
<pdfrwt beam="2">  1       -4 0.36073470E-02 0.34065920E+02</pdfrwt>
<totfact> 0.38045433E+05</totfact>
</mgrwt>
</event>
<event>
 5    1  0.1270889E+001  0.9213644E+02  0.7546771E-02  0.1297759E+00
         -2   -1    0    0    0  501 -0.00000000000E+00  0.00000000000E+00  0.69658684047E+01  0.69658684047E+01  0.00000000000E+00 0.  1.
          2   -1    0    0  501    0  0.00000000000E+00 -0.00000000000E+00 -0.30466855235E+03  0.30466855235E+03  0.00000000000E+00 0. -1.
         23    2    1    2    0    0  0.00000000000E+00  0.00000000000E+00 -0.29770268395E+03  0.31163442075E+03  0.92136443229E+02 0.  0.
        -11    1    3    3    0    0  0.37995136153E+02 -0.84615358227E+01 -0.65516366490E+02  0.76207757071E+02  0.00000000000E+00 0. -1.
         11    1    3    3    0    0 -0.37995136153E+02  0.84615358227E+01 -0.23218631746E+03  0.23542666368E+03  0.00000000000E+00 0.  1.
<mgrwt>
<rscale>  0 0.92136443E+02</rscale>
<asrwt>0</asrwt>
<pdfrwt beam="2">  1        2 0.46872090E-01 0.92136443E+02</pdfrwt>
<pdfrwt beam="1">  1       -2 0.10716719E-02 0.92136443E+02</pdfrwt>
<totfact> 0.17571334E+05</totfact>
</mgrwt>
</event>
<event>
 5    1  0.1270889E+001  0.9152150E+02  0.7546771E-02  0.1299208E+00
         -2   -1    0    0    0  501 -0.00000000000E+00  0.00000000000E+00  0.61083517895E+01  0.61083517895E+01  0.00000000000E+00 0.  1.
          2   -1    0    0  501    0  0.00000000000E+00 -0.00000000000E+00 -0.34281687472E+03  0.34281687472E+03  0.00000000000E+00 0. -1.
         23    2    1    2    0    0  0.00000000000E+00  0.00000000000E+00 -0.33670852293E+03  0.34892522651E+03  0.91521496277E+02 0.  0.
        -13    1    3    3    0    0  0.39615192203E+01 -0.45186480428E+02 -0.19139839478E+03  0.19669991655E+03  0.00000000000E+00 0.  1.
         13    1    3    3    0    0 -0.39615192203E+01  0.45186480428E+02 -0.14531012816E+03  0.15222530996E+03  0.00000000000E+00 0. -1.
<mgrwt>
<rscale>  0 0.91521496E+02</rscale>
<asrwt>0</asrwt>
<pdfrwt beam="2">  1        2 0.52741070E-01 0.91521496E+02</pdfrwt>
<pdfrwt beam="1">  1       -2 0.93974620E-03 0.91521496E+02</pdfrwt>
<totfact> 0.18686898E+05</totfact>
</mgrwt>
</event>
<event>
 5    1  0.1270889E+001  0.8711291E+02  0.7546771E-02  0.1309998E+00
         -2   -1    0    0    0  501 -0.00000000000E+00  0.00000000000E+00  0.37634369554E+02  0.37634369554E+02  0.00000000000E+00 0.  1.
          2   -1    0    0  501    0  0.00000000000E+00 -0.00000000000E+00 -0.50410435432E+02  0.50410435432E+02  0.00000000000E+00 0. -1.
         23    2    1    2    0    0  0.00000000000E+00  0.00000000000E+00 -0.12776065878E+02  0.88044804987E+02  0.87112914231E+02 0.  0.
        -13    1    3    3    0    0  0.99826094971E+01  0.22262386046E+02 -0.42855850920E+02  0.49314199608E+02  0.00000000000E+00 0. -1.
         13    1    3    3    0    0 -0.99826094971E+01 -0.22262386046E+02  0.30079785042E+02  0.38730605379E+02  0.00000000000E+00 0.  1.
<mgrwt>
<rscale>  0 0.87112914E+02</rscale>
<asrwt>0</asrwt>
<pdfrwt beam="2">  1        2 0.77554516E-02 0.87112914E+02</pdfrwt>
<pdfrwt beam="1">  1       -2 0.57899030E-02 0.87112914E+02</pdfrwt>
<totfact> 0.11527398E+05</totfact>
</mgrwt>
</event>
<event>
 5    1  0.1270889E+001  0.8933454E+02  0.7546771E-02  0.1304471E+00
         -2   -1    0    0    0  501 -0.00000000000E+00  0.00000000000E+00  0.46723026863E+01  0.46723026863E+01  0.00000000000E+00 0.  1.
          2   -1    0    0  501    0  0.00000000000E+00 -0.00000000000E+00 -0.42701965715E+03  0.42701965715E+03  0.00000000000E+00 0. -1.
         23    2    1    2    0    0  0.00000000000E+00  0.00000000000E+00 -0.42234735446E+03  0.43169195983E+03  0.89334541835E+02 0.  0.
        -11    1    3    3    0    0 -0.26395091354E+02  0.35377853499E+02 -0.24425706812E+03  0.24821323230E+03  0.00000000000E+00 0. -1.
         11    1    3    3    0    0  0.26395091354E+02 -0.35377853499E+02 -0.17809028634E+03  0.18347872753E+03  0.00000000000E+00 0.  1.
<mgrwt>
<rscale>  0 0.89334542E+02</rscale>
<asrwt>0</asrwt>
<pdfrwt beam="2">  1        2 0.65695353E-01 0.89334542E+02</pdfrwt>
<pdfrwt beam="1">  1       -2 0.71881557E-03 0.89334542E+02</pdfrwt>
<totfact> 0.21564436E+05</totfact>
</mgrwt>
</event>
<event>
 5    1  0.1270889E+001  0.1001413E+03  0.7546771E-02  0.1279999E+00
          2   -1    0    0  501    0  0.00000000000E+00  0.00000000000E+00  0.21247346345E+03  0.21247346345E+03  0.00000000000E+00 0. -1.
         -2   -1    0    0    0  501 -0.00000000000E+00 -0.00000000000E+00 -0.11799449490E+02  0.11799449490E+02  0.00000000000E+00 0.  1.
         23    2    1    2    0    0  0.00000000000E+00  0.00000000000E+00  0.20067401396E+03  0.22427291294E+03  0.10014129817E+03 0.  0.
        -11    1    3    3    0    0  0.28920006066E+02  0.38484120367E+02  0.69493100833E+02  0.84538070328E+02  0.00000000000E+00 0.  1.
         11    1    3    3    0    0 -0.28920006066E+02 -0.38484120367E+02  0.13118091313E+03  0.13973484262E+03  0.00000000000E+00 0. -1.
<mgrwt>
<rscale>  0 0.10014130E+03</rscale>
<asrwt>0</asrwt>
<pdfrwt beam="1">  1        2 0.32688222E-01 0.10014130E+03</pdfrwt>
<pdfrwt beam="2">  1       -2 0.18153001E-02 0.10014130E+03</pdfrwt>
<totfact> 0.12269025E+05</totfact>
</mgrwt>
</event>
<event>
 5    1  0.1270889E+001  0.9285579E+02  0.7546771E-02  0.1296080E+00
         -3   -1    0    0    0  501 -0.00000000000E+00  0.00000000000E+00  0.23551759685E+02  0.23551759685E+02  0.00000000000E+00 0.  1.
          3   -1    0    0  501    0  0.00000000000E+00 -0.00000000000E+00 -0.91523920209E+02  0.91523920209E+02  0.00000000000E+00 0. -1.
         23    2    1    2    0    0  0.00000000000E+00  0.00000000000E+00 -0.67972160524E+02  0.11507567989E+03  0.92855788709E+02 0.  0.
        -13    1    3    3    0    0  0.27160480047E+02 -0.86288899198E+01 -0.79409228473E+02  0.84368092217E+02  0.00000000000E+00 0. -1.
         13    1    3    3    0    0 -0.27160480047E+02  0.86288899198E+01  0.11437067949E+02  0.30707587677E+02  0.00000000000E+00 0.  1.
<mgrwt>
<rscale>  0 0.92855789E+02</rscale>
<asrwt>0</asrwt>
<pdfrwt beam="2">  1        3 0.14080603E-01 0.92855789E+02</pdfrwt>
<pdfrwt beam="1">  1       -3 0.36233476E-02 0.92855789E+02</pdfrwt>
<totfact> 0.31957822E+04</totfact>
</mgrwt>
</event>
<event>
 5    1  0.1270889E+001  0.8778502E+02  0.7546771E-02  0.1308306E+00
          1   -1    0    0  501    0  0.00000000000E+00  0.00000000000E+00  0.11572825631E+02  0.11572825631E+02  0.00000000000E+00 0. -1.
         -1   -1    0    0    0  501 -0.00000000000E+00 -0.00000000000E+00 -0.16647210308E+03  0.16647210308E+03  0.00000000000E+00 0.  1.
         23    2    1    2    0    0  0.00000000000E+00  0.00000000000E+00 -0.15489927745E+03  0.17804492871E+03  0.87785024265E+02 0.  0.
        -13    1    3    3    0    0  0.37099333157E+02 -0.15656789763E+02 -0.42025467618E+02  0.58203397795E+02  0.00000000000E+00 0.  1.
         13    1    3    3    0    0 -0.37099333157E+02  0.15656789763E+02 -0.11287380983E+03  0.11984153091E+03  0.00000000000E+00 0. -1.
<mgrwt>
<rscale>  0 0.87785024E+02</rscale>
<asrwt>0</asrwt>
<pdfrwt beam="1">  1        1 0.17804349E-02 0.87785024E+02</pdfrwt>
<pdfrwt beam="2">  1       -1 0.25611090E-01 0.87785024E+02</pdfrwt>
<totfact> 0.80461394E+04</totfact>
</mgrwt>
</event>
<event>
 5    1  0.1270889E+001  0.9524579E+02  0.7546771E-02  0.1290623E+00
         -4   -1    0    0    0  501 -0.00000000000E+00  0.00000000000E+00  0.10358112535E+02  0.10358112535E+02  0.00000000000E+00 0. -1.
          4   -1    0    0  501    0  0.00000000000E+00 -0.00000000000E+00 -0.21895301516E+03  0.21895301516E+03  0.00000000000E+00 0.  1.
         23    2    1    2    0    0  0.00000000000E+00  0.00000000000E+00 -0.20859490263E+03  0.22931112770E+03  0.95245786699E+02 0.  0.
        -13    1    3    3    0    0  0.30574068946E+02 -0.36494129932E+02 -0.10708936308E+03  0.11719525117E+03  0.00000000000E+00 0. -1.
         13    1    3    3    0    0 -0.30574068946E+02  0.36494129932E+02 -0.10150553955E+03  0.11211587653E+03  0.00000000000E+00 0.  1.
<mgrwt>
<rscale>  0 0.95245787E+02</rscale>
<asrwt>0</asrwt>
<pdfrwt beam="2">  1        4 0.33685077E-01 0.95245787E+02</pdfrwt>
<pdfrwt beam="1">  1       -4 0.15935559E-02 0.95245787E+02</pdfrwt>
<totfact> 0.17986073E+04</totfact>
</mgrwt>
</event>
<event>
 5    1  0.1270889E+001  0.9330396E+02  0.7546771E-02  0.1295042E+00
          1   -1    0    0  501    0  0.00000000000E+00  0.00000000000E+00  0.40659159800E+02  0.40659159800E+02  0.00000000000E+00 0. -1.
         -1   -1    0    0    0  501 -0.00000000000E+00 -0.00000000000E+00 -0.53528088625E+02  0.53528088625E+02  0.00000000000E+00 0.  1.
         23    2    1    2    0    0  0.00000000000E+00  0.00000000000E+00 -0.12868928825E+02  0.94187248425E+02  0.93303957241E+02 0.  0.
        -13    1    3    3    0    0 -0.45162357190E+02  0.39152369917E+01  0.46898196413E+01  0.45573698510E+02  0.00000000000E+00 0.  1.
         13    1    3    3    0    0  0.45162357190E+02 -0.39152369917E+01 -0.17558748466E+02  0.48613549915E+02  0.00000000000E+00 0. -1.
<mgrwt>
<rscale>  0 0.93303957E+02</rscale>
<asrwt>0</asrwt>
<pdfrwt beam="1">  1        1 0.62552554E-02 0.93303957E+02</pdfrwt>
<pdfrwt beam="2">  1       -1 0.82350905E-02 0.93303957E+02</pdfrwt>
<totfact> 0.85145264E+04</totfact>
</mgrwt>
</event>
<event>
 5    1  0.1270889E+001  0.9012916E+02  0.7546771E-02  0.1302539E+00
         -3   -1    0    0    0  501 -0.00000000000E+00  0.00000000000E+00  0.10375663117E+03  0.10375663117E+03  0.00000000000E+00 0.  1.
          3   -1    0    0  501    0  0.00000000000E+00 -0.00000000000E+00 -0.19572884531E+02  0.19572884531E+02  0.00000000000E+00 0. -1.
         23    2    1    2    0    0  0.00000000000E+00  0.00000000000E+00  0.84183746639E+02  0.12332951570E+03  0.90129164231E+02 0.  0.
        -13    1    3    3    0    0 -0.23040014706E+02  0.38345262890E+02  0.49538477434E+02  0.66747750600E+02  0.00000000000E+00 0.  1.
         13    1    3    3    0    0  0.23040014706E+02 -0.38345262890E+02  0.34645269205E+02  0.56581765101E+02  0.00000000000E+00 0. -1.
<mgrwt>
<rscale>  0 0.90129164E+02</rscale>
<asrwt>0</asrwt>
<pdfrwt beam="2">  1        3 0.30112131E-02 0.90129164E+02</pdfrwt>
<pdfrwt beam="1">  1       -3 0.15962558E-01 0.90129164E+02</pdfrwt>
<totfact> 0.34072359E+04</totfact>
</mgrwt>
</event>
<event>
 5    1  0.1270889E+001  0.9272368E+02  0.7546771E-02  0.1296387E+00
         -1   -1    0    0    0  501 -0.00000000000E+00  0.00000000000E+00  0.45637921692E+02  0.45637921692E+02  0.00000000000E+00 0.  1.
          1   -1    0    0  501    0  0.00000000000E+00 -0.00000000000E+00 -0.47097244832E+02  0.47097244832E+02  0.00000000000E+00 0. -1.
         23    2    1    2    0    0  0.00000000000E+00  0.00000000000E+00 -0.14593231407E+01  0.92735166524E+02  0.92723683524E+02 0.  0.
        -13    1    3    3    0    0 -0.37929009278E+02 -0.13158669802E+02  0.22460707397E+02  0.46002648973E+02  0.00000000000E+00 0.  1.
         13    1    3    3    0    0  0.37929009278E+02  0.13158669802E+02 -0.23920030538E+02  0.46732517551E+02  0.00000000000E+00 0. -1.
<mgrwt>
<rscale>  0 0.92723684E+02</rscale>
<asrwt>0</asrwt>
<pdfrwt beam="2">  1        1 0.72457299E-02 0.92723684E+02</pdfrwt>
<pdfrwt beam="1">  1       -1 0.70212188E-02 0.92723684E+02</pdfrwt>
<totfact> 0.88636317E+04</totfact>
</mgrwt>
</event>
<event>
 5    1  0.1270889E+001  0.8897942E+02  0.7546771E-02  0.1305342E+00
         -1   -1    0    0    0  501 -0.00000000000E+00  0.00000000000E+00  0.88556086097E+01  0.88556086097E+01  0.00000000000E+00 0.  1.
          1   -1    0    0  501    0  0.00000000000E+00 -0.00000000000E+00 -0.22351192674E+03  0.22351192674E+03  0.00000000000E+00 0. -1.
         23    2    1    2    0    0  0.00000000000E+00  0.00000000000E+00 -0.21465631813E+03  0.23236753535E+03  0.88979416560E+02 0.  0.
        -13    1    3    3    0    0  0.38892916743E+02 -0.20491421491E+02 -0.12518897205E+03  0.13268321692E+03  0.00000000000E+00 0.  1.
         13    1    3    3    0    0 -0.38892916743E+02  0.20491421491E+02 -0.89467346081E+02  0.99684318437E+02  0.00000000000E+00 0. -1.
<mgrwt>
<rscale>  0 0.88979417E+02</rscale>
<asrwt>0</asrwt>
<pdfrwt beam="2">  1        1 0.34386446E-01 0.88979417E+02</pdfrwt>
<pdfrwt beam="1">  1       -1 0.13624015E-02 0.88979417E+02</pdfrwt>
<totfact> 0.12914476E+05</totfact>
</mgrwt>
</event>
<event>
 5    1  0.1270889E+001  0.9162236E+02  0.7546771E-02  0.1298970E+00
          2   -1    0    0  501    0  0.00000000000E+00  0.00000000000E+00  0.13980793596E+03  0.13980793596E+03  0.00000000000E+00 0. -1.
         -2   -1    0    0    0  501 -0.00000000000E+00 -0.00000000000E+00 -0.15011051120E+02  0.15011051120E+02  0.00000000000E+00 0.  1.
         23    2    1    2    0    0  0.00000000000E+00  0.00000000000E+00  0.12479688484E+03  0.15481898708E+03  0.91622356959E+02 0.  0.
        -13    1    3    3    0    0  0.21808502399E+02  0.39309664846E+02  0.47493769190E+02  0.65395096445E+02  0.00000000000E+00 0.  1.
         13    1    3    3    0    0 -0.21808502399E+02 -0.39309664846E+02  0.77303115653E+02  0.89423890638E+02  0.00000000000E+00 0. -1.
<mgrwt>
<rscale>  0 0.91622357E+02</rscale>
<asrwt>0</asrwt>
<pdfrwt beam="1">  1        2 0.21508912E-01 0.91622357E+02</pdfrwt>
<pdfrwt beam="2">  1       -2 0.23093926E-02 0.91622357E+02</pdfrwt>
<totfact> 0.13473029E+05</totfact>
</mgrwt>
</event>
<event>
 5    1  0.1270889E+001  0.9084764E+02  0.7546771E-02  0.1300812E+00
         -4   -1    0    0    0  501 -0.00000000000E+00  0.00000000000E+00  0.42966611793E+02  0.42966611793E+02  0.00000000000E+00 0.  1.
          4   -1    0    0  501    0  0.00000000000E+00 -0.00000000000E+00 -0.48021558207E+02  0.48021558207E+02  0.00000000000E+00 0. -1.
         23    2    1    2    0    0  0.00000000000E+00  0.00000000000E+00 -0.50549464148E+01  0.90988170000E+02  0.90847644971E+02 0.  0.
        -13    1    3    3    0    0  0.41964792809E+02  0.16516581447E+02 -0.79656373620E+01  0.45796208105E+02  0.00000000000E+00 0. -1.
         13    1    3    3    0    0 -0.41964792809E+02 -0.16516581447E+02  0.29106909472E+01  0.45191961895E+02  0.00000000000E+00 0.  1.
<mgrwt>
<rscale>  0 0.90847645E+02</rscale>
<asrwt>0</asrwt>
<pdfrwt beam="2">  1        4 0.73879321E-02 0.90847645E+02</pdfrwt>
<pdfrwt beam="1">  1       -4 0.66102479E-02 0.90847645E+02</pdfrwt>
<totfact> 0.27295017E+04</totfact>
</mgrwt>
</event>
<event>
 5    1  0.1270889E+001  0.9809685E+02  0.7546771E-02  0.1284350E+00
          3   -1    0    0  501    0  0.00000000000E+00  0.00000000000E+00  0.19865932294E+02  0.19865932294E+02  0.00000000000E+00 0. -1.
         -3   -1    0    0    0  501 -0.00000000000E+00 -0.00000000000E+00 -0.12109918368E+03  0.12109918368E+03  0.00000000000E+00 0.  1.
         23    2    1    2    0    0  0.00000000000E+00  0.00000000000E+00 -0.10123325139E+03  0.14096511598E+03  0.98096853851E+02 0.  0.
        -11    1    3    3    0    0 -0.40716402233E+02 -0.36387204752E+01 -0.89566532022E+02  0.98454199281E+02  0.00000000000E+00 0.  1.
         11    1    3    3    0    0  0.40716402233E+02  0.36387204752E+01 -0.11666719366E+02  0.42510916695E+02  0.00000000000E+00 0. -1.
<mgrwt>
<rscale>  0 0.98096854E+02</rscale>
<asrwt>0</asrwt>
<pdfrwt beam="1">  1        3 0.30562972E-02 0.98096854E+02</pdfrwt>
<pdfrwt beam="2">  1       -3 0.18630644E-01 0.98096854E+02</pdfrwt>
<totfact> 0.26109784E+04</totfact>
</mgrwt>
</event>
<event>
 5    1  0.1270889E+001  0.9013182E+02  0.7546771E-02  0.1302533E+00
         -1   -1    0    0    0  501 -0.00000000000E+00  0.00000000000E+00  0.13119721136E+02  0.13119721136E+02  0.00000000000E+00 0.  1.
          1   -1    0    0  501    0  0.00000000000E+00 -0.00000000000E+00 -0.15480025206E+03  0.15480025206E+03  0.00000000000E+00 0. -1.
         23    2    1    2    0    0  0.00000000000E+00  0.00000000000E+00 -0.14168053092E+03  0.16791997320E+03  0.90131817662E+02 0.  0.
        -11    1    3    3    0    0 -0.33519246385E+02 -0.86149309862E+01 -0.17063652803E+02  0.38586593023E+02  0.00000000000E+00 0.  1.
         11    1    3    3    0    0  0.33519246385E+02  0.86149309862E+01 -0.12461687812E+03  0.12933338017E+03  0.00000000000E+00 0. -1.
<mgrwt>
<rscale>  0 0.90131818E+02</rscale>
<asrwt>0</asrwt>
<pdfrwt beam="2">  1        1 0.23815423E-01 0.90131818E+02</pdfrwt>
<pdfrwt beam="1">  1       -1 0.20184187E-02 0.90131818E+02</pdfrwt>
<totfact> 0.11634163E+05</totfact>
</mgrwt>
</event>
<event>
 5    1  0.1270889E+001  0.1045712E+03  0.7546771E-02  0.1270967E+00
          2   -1    0    0  501    0  0.00000000000E+00  0.00000000000E+00  0.37610779215E+03  0.37610779215E+03  0.00000000000E+00 0. -1.
         -2   -1    0    0    0  501 -0.00000000000E+00 -0.00000000000E+00 -0.72686214057E+01  0.72686214057E+01  0.00000000000E+00 0.  1.
         23    2    1    2    0    0  0.00000000000E+00  0.00000000000E+00  0.36883917075E+03  0.38337641356E+03  0.10457122260E+03 0.  0.
        -11    1    3    3    0    0 -0.20875926446E+02  0.42881151541E+02  0.10585834687E+03  0.11610593036E+03  0.00000000000E+00 0.  1.
         11    1    3    3    0    0  0.20875926446E+02 -0.42881151541E+02  0.26298082388E+03  0.26727048320E+03  0.00000000000E+00 0. -1.
<mgrwt>
<rscale>  0 0.10457122E+03</rscale>
<asrwt>0</asrwt>
<pdfrwt beam="1">  1        2 0.57862722E-01 0.10457122E+03</pdfrwt>
<pdfrwt beam="2">  1       -2 0.11182497E-02 0.10457122E+03</pdfrwt>
<totfact> 0.13525914E+05</totfact>
</mgrwt>
</event>
<event>
 5    1  0.1270889E+001  0.9029598E+02  0.7546771E-02  0.1302137E+00
         -1   -1    0    0    0  501 -0.00000000000E+00  0.00000000000E+00  0.27949520658E+02  0.27949520658E+02  0.00000000000E+00 0.  1.
          1   -1    0    0  501    0  0.00000000000E+00 -0.00000000000E+00 -0.72929373257E+02  0.72929373257E+02  0.00000000000E+00 0. -1.
         23    2    1    2    0    0  0.00000000000E+00  0.00000000000E+00 -0.44979852599E+02  0.10087889392E+03  0.90295980519E+02 0.  0.
        -11    1    3    3    0    0  0.15781736880E+02  0.11804291162E+02  0.22890180180E+02  0.30205377956E+02  0.00000000000E+00 0.  1.
         11    1    3    3    0    0 -0.15781736880E+02 -0.11804291162E+02 -0.67870032778E+02  0.70673515960E+02  0.00000000000E+00 0. -1.
<mgrwt>
<rscale>  0 0.90295981E+02</rscale>
<asrwt>0</asrwt>
<pdfrwt beam="2">  1        1 0.11219904E-01 0.90295981E+02</pdfrwt>
<pdfrwt beam="1">  1       -1 0.42999263E-02 0.90295981E+02</pdfrwt>
<totfact> 0.10198205E+05</totfact>
</mgrwt>
</event>
<event>
 5    1  0.1270889E+001  0.8276528E+02  0.7546771E-02  0.1321382E+00
         -2   -1    0    0    0  501 -0.00000000000E+00  0.00000000000E+00  0.47682787707E+01  0.47682787707E+01  0.00000000000E+00 0.  1.
          2   -1    0    0  501    0  0.00000000000E+00 -0.00000000000E+00 -0.35914906750E+03  0.35914906750E+03  0.00000000000E+00 0. -1.
         23    2    1    2    0    0  0.00000000000E+00  0.00000000000E+00 -0.35438078873E+03  0.36391734627E+03  0.82765279534E+02 0.  0.
        -13    1    3    3    0    0 -0.14411824038E+02 -0.37461430969E+02 -0.22148075929E+03  0.22508839645E+03  0.00000000000E+00 0. -1.
         13    1    3    3    0    0  0.14411824038E+02  0.37461430969E+02 -0.13290002944E+03  0.13882894982E+03  0.00000000000E+00 0.  1.
<mgrwt>
<rscale>  0 0.82765280E+02</rscale>
<asrwt>0</asrwt>
<pdfrwt beam="2">  1        2 0.55253710E-01 0.82765280E+02</pdfrwt>
<pdfrwt beam="1">  1       -2 0.73358126E-03 0.82765280E+02</pdfrwt>
<totfact> 0.24800818E+05</totfact>
</mgrwt>
</event>
<event>
 5    1  0.1270889E+001  0.9185016E+02  0.7546771E-02  0.1298432E+00
         -2   -1    0    0    0  501 -0.00000000000E+00  0.00000000000E+00  0.28918963756E+02  0.28918963756E+02  0.00000000000E+00 0.  1.
          2   -1    0    0  501    0  0.00000000000E+00 -0.00000000000E+00 -0.72931836970E+02  0.72931836970E+02  0.00000000000E+00 0. -1.
         23    2    1    2    0    0  0.00000000000E+00  0.00000000000E+00 -0.44012873214E+02  0.10185080073E+03  0.91850163854E+02 0.  0.
        -11    1    3    3    0    0 -0.89904481780E+01  0.95538501067E+01  0.26796990997E+02  0.29835933650E+02  0.00000000000E+00 0.  1.
         11    1    3    3    0    0  0.89904481780E+01 -0.95538501067E+01 -0.70809864211E+02  0.72014867076E+02  0.00000000000E+00 0. -1.
<mgrwt>
<rscale>  0 0.91850164E+02</rscale>
<asrwt>0</asrwt>
<pdfrwt beam="2">  1        2 0.11220283E-01 0.91850164E+02</pdfrwt>
<pdfrwt beam="1">  1       -2 0.44490713E-02 0.91850164E+02</pdfrwt>
<totfact> 0.10961159E+05</totfact>
</mgrwt>
</event>
<event>
 5    1  0.1270889E+001  0.8547469E+02  0.7546771E-02  0.1314196E+00
         -2   -1    0    0    0  501 -0.00000000000E+00  0.00000000000E+00  0.12612691140E+02  0.12612691140E+02  0.00000000000E+00 0.  1.
          2   -1    0    0  501    0  0.00000000000E+00 -0.00000000000E+00 -0.14481291382E+03  0.14481291382E+03  0.00000000000E+00 0. -1.
         23    2    1    2    0    0  0.00000000000E+00  0.00000000000E+00 -0.13220022268E+03  0.15742560496E+03  0.85474687601E+02 0.  0.
        -11    1    3    3    0    0 -0.27668372895E+02  0.20032935017E+02 -0.11340279857E+03  0.11843585635E+03  0.00000000000E+00 0. -1.
         11    1    3    3    0    0  0.27668372895E+02 -0.20032935017E+02 -0.18797424106E+02  0.38989748615E+02  0.00000000000E+00 0.  1.
<mgrwt>
<rscale>  0 0.85474688E+02</rscale>
<asrwt>0</asrwt>
<pdfrwt beam="2">  1        2 0.22278909E-01 0.85474688E+02</pdfrwt>
<pdfrwt beam="1">  1       -2 0.19404141E-02 0.85474688E+02</pdfrwt>
<totfact> 0.16451082E+05</totfact>
</mgrwt>
</event>
<event>
 5    1  0.1270889E+001  0.9082465E+02  0.7546771E-02  0.1300867E+00
         -3   -1    0    0    0  501 -0.00000000000E+00  0.00000000000E+00  0.59065430349E+02  0.59065430349E+02  0.00000000000E+00 0.  1.
          3   -1    0    0  501    0  0.00000000000E+00 -0.00000000000E+00 -0.34915163020E+02  0.34915163020E+02  0.00000000000E+00 0. -1.
         23    2    1    2    0    0  0.00000000000E+00  0.00000000000E+00  0.24150267329E+02  0.93980593369E+02  0.90824647084E+02 0.  0.
        -13    1    3    3    0    0  0.25739347867E+02 -0.44483368129E+01  0.50513989387E+02  0.56867959809E+02  0.00000000000E+00 0.  1.
         13    1    3    3    0    0 -0.25739347867E+02  0.44483368129E+01 -0.26363722058E+02  0.37112633560E+02  0.00000000000E+00 0. -1.
<mgrwt>
<rscale>  0 0.90824647E+02</rscale>
<asrwt>0</asrwt>
<pdfrwt beam="2">  1        3 0.53715636E-02 0.90824647E+02</pdfrwt>
<pdfrwt beam="1">  1       -3 0.90869892E-02 0.90824647E+02</pdfrwt>
<totfact> 0.35496931E+04</totfact>
</mgrwt>
</event>
<event>
 5    1  0.1270889E+001  0.9137132E+02  0.7546771E-02  0.1299564E+00
          2   -1    0    0  501    0  0.00000000000E+00  0.00000000000E+00  0.44275087849E+02  0.44275087849E+02  0.00000000000E+00 0. -1.
         -2   -1    0    0    0  501 -0.00000000000E+00 -0.00000000000E+00 -0.47141168443E+02  0.47141168443E+02  0.00000000000E+00 0.  1.
         23    2    1    2    0    0  0.00000000000E+00  0.00000000000E+00 -0.28660805933E+01  0.91416256292E+02  0.91371316596E+02 0.  0.
        -13    1    3    3    0    0 -0.26001769922E+02 -0.36701588303E+02  0.65759422242E+01  0.45457030690E+02  0.00000000000E+00 0. -1.
         13    1    3    3    0    0  0.26001769922E+02  0.36701588303E+02 -0.94420228175E+01  0.45959225602E+02  0.00000000000E+00 0.  1.
<mgrwt>
<rscale>  0 0.91371317E+02</rscale>
<asrwt>0</asrwt>
<pdfrwt beam="1">  1        2 0.68115519E-02 0.91371317E+02</pdfrwt>
<pdfrwt beam="2">  1       -2 0.72524875E-02 0.91371317E+02</pdfrwt>
<totfact> 0.97330418E+04</totfact>
</mgrwt>
</event>
<event>
 5    1  0.1270889E+001  0.8954209E+02  0.7546771E-02  0.1303964E+00
         -3   -1    0    0    0  501 -0.00000000000E+00  0.00000000000E+00  0.10343331417E+02  0.10343331417E+02  0.00000000000E+00 0.  1.
          3   -1    0    0  501    0  0.00000000000E+00 -0.00000000000E+00 -0.19379118424E+03  0.19379118424E+03  0.00000000000E+00 0. -1.
         23    2    1    2    0    0  0.00000000000E+00  0.00000000000E+00 -0.18344785282E+03  0.20413451565E+03  0.89542089415E+02 0.  0.
        -13    1    3    3    0    0  0.30708320154E+02 -0.13382470980E+02 -0.24004871092E+02  0.41210742438E+02  0.00000000000E+00 0.  1.
         13    1    3    3    0    0 -0.30708320154E+02  0.13382470980E+02 -0.15944298173E+03  0.16292377322E+03  0.00000000000E+00 0. -1.
<mgrwt>
<rscale>  0 0.89542089E+02</rscale>
<asrwt>0</asrwt>
<pdfrwt beam="2">  1        3 0.29814027E-01 0.89542089E+02</pdfrwt>
<pdfrwt beam="1">  1       -3 0.15912819E-02 0.89542089E+02</pdfrwt>
<totfact> 0.29697319E+04</totfact>
</mgrwt>
</event>
<event>
 5    1  0.1270889E+001  0.9050590E+02  0.7546771E-02  0.1301631E+00
         -2   -1    0    0    0  501 -0.00000000000E+00  0.00000000000E+00  0.81723122196E+01  0.81723122196E+01  0.00000000000E+00 0.  1.
          2   -1    0    0  501    0  0.00000000000E+00 -0.00000000000E+00 -0.25058137871E+03  0.25058137871E+03  0.00000000000E+00 0. -1.
         23    2    1    2    0    0  0.00000000000E+00  0.00000000000E+00 -0.24240906649E+03  0.25875369093E+03  0.90505895129E+02 0.  0.
        -13    1    3    3    0    0  0.40846662759E+02 -0.10586943102E+02 -0.74462677788E+02  0.85587520154E+02  0.00000000000E+00 0.  1.
         13    1    3    3    0    0 -0.40846662759E+02  0.10586943102E+02 -0.16794638870E+03  0.17316617078E+03  0.00000000000E+00 0. -1.
<mgrwt>
<rscale>  0 0.90505895E+02</rscale>
<asrwt>0</asrwt>
<pdfrwt beam="2">  1        2 0.38550981E-01 0.90505895E+02</pdfrwt>
<pdfrwt beam="1">  1       -2 0.12572788E-02 0.90505895E+02</pdfrwt>
<totfact> 0.17135796E+05</totfact>
</mgrwt>
</event>
<event>
 5    1  0.1270889E+001  0.9146733E+02  0.7546771E-02  0.1299337E+00
         -1   -1    0    0    0  501 -0.00000000000E+00  0.00000000000E+00  0.18546355635E+03  0.18546355635E+03  0.00000000000E+00 0.  1.
          1   -1    0    0  501    0  0.00000000000E+00 -0.00000000000E+00 -0.11277514753E+02  0.11277514753E+02  0.00000000000E+00 0. -1.
         23    2    1    2    0    0  0.00000000000E+00  0.00000000000E+00  0.17418604160E+03  0.19674107110E+03  0.91467327343E+02 0.  0.
        -11    1    3    3    0    0 -0.21502769473E+02 -0.39881101508E+02  0.73712726295E+02  0.86524201067E+02  0.00000000000E+00 0.  1.
         11    1    3    3    0    0  0.21502769473E+02  0.39881101508E+02  0.10047331530E+03  0.11021687003E+03  0.00000000000E+00 0. -1.
<mgrwt>
<rscale>  0 0.91467327E+02</rscale>
<asrwt>0</asrwt>
<pdfrwt beam="2">  1        1 0.17350024E-02 0.91467327E+02</pdfrwt>
<pdfrwt beam="1">  1       -1 0.28532853E-01 0.91467327E+02</pdfrwt>
<totfact> 0.70313407E+04</totfact>
</mgrwt>
</event>
<event>
 5    1  0.1270889E+001  0.8870625E+02  0.7546771E-02  0.1306015E+00
         -4   -1    0    0    0  501 -0.00000000000E+00  0.00000000000E+00  0.11352129743E+02  0.11352129743E+02  0.00000000000E+00 0. -1.
          4   -1    0    0  501    0  0.00000000000E+00 -0.00000000000E+00 -0.17328902694E+03  0.17328902694E+03  0.00000000000E+00 0.  1.
         23    2    1    2    0    0  0.00000000000E+00  0.00000000000E+00 -0.16193689719E+03  0.18464115668E+03  0.88706245934E+02 0.  0.
        -11    1    3    3    0    0  0.10059617261E+02 -0.36622434060E+02 -0.12865233168E+03  0.13414104898E+03  0.00000000000E+00 0.  1.
         11    1    3    3    0    0 -0.10059617261E+02  0.36622434060E+02 -0.33284565515E+02  0.50500107697E+02  0.00000000000E+00 0. -1.
<mgrwt>
<rscale>  0 0.88706246E+02</rscale>
<asrwt>0</asrwt>
<pdfrwt beam="2">  1        4 0.26659848E-01 0.88706246E+02</pdfrwt>
<pdfrwt beam="1">  1       -4 0.17464817E-02 0.88706246E+02</pdfrwt>
<totfact> 0.23723635E+04</totfact>
</mgrwt>
</event>
<event>
 5    1  0.1270889E+001  0.9230576E+02  0.7546771E-02  0.1297362E+00
         -2   -1    0    0    0  501 -0.00000000000E+00  0.00000000000E+00  0.18617088446E+03  0.18617088446E+03  0.00000000000E+00 0.  1.
          2   -1    0    0  501    0  0.00000000000E+00 -0.00000000000E+00 -0.11441576571E+02  0.11441576571E+02  0.00000000000E+00 0. -1.
         23    2    1    2    0    0  0.00000000000E+00  0.00000000000E+00  0.17472930789E+03  0.19761246103E+03  0.92305762112E+02 0.  0.
        -13    1    3    3    0    0 -0.35782500605E+01 -0.36326191612E+02  0.26899769037E+02  0.45343066116E+02  0.00000000000E+00 0.  1.
         13    1    3    3    0    0  0.35782500605E+01  0.36326191612E+02  0.14782953885E+03  0.15226939492E+03  0.00000000000E+00 0. -1.
<mgrwt>
<rscale>  0 0.92305762E+02</rscale>
<asrwt>0</asrwt>
<pdfrwt beam="2">  1        2 0.17602427E-02 0.92305762E+02</pdfrwt>
<pdfrwt beam="1">  1       -2 0.28641672E-01 0.92305762E+02</pdfrwt>
<totfact> 0.62253991E+04</totfact>
</mgrwt>
</event>
<event>
 5    1  0.1270889E+001  0.9237154E+02  0.7546771E-02  0.1297208E+00
         -2   -1    0    0    0  501 -0.00000000000E+00  0.00000000000E+00  0.80391478855E+02  0.80391478855E+02  0.00000000000E+00 0.  1.
          2   -1    0    0  501    0  0.00000000000E+00 -0.00000000000E+00 -0.26534221093E+02  0.26534221093E+02  0.00000000000E+00 0. -1.
         23    2    1    2    0    0  0.00000000000E+00  0.00000000000E+00  0.53857257762E+02  0.10692569995E+03  0.92371538343E+02 0.  0.
        -13    1    3    3    0    0  0.45760343556E+02  0.35319888397E+01  0.20953854347E+02  0.50453424061E+02  0.00000000000E+00 0. -1.
         13    1    3    3    0    0 -0.45760343556E+02 -0.35319888397E+01  0.32903403416E+02  0.56472275887E+02  0.00000000000E+00 0.  1.
<mgrwt>
<rscale>  0 0.92371538E+02</rscale>
<asrwt>0</asrwt>
<pdfrwt beam="2">  1        2 0.40821879E-02 0.92371538E+02</pdfrwt>
<pdfrwt beam="1">  1       -2 0.12367920E-01 0.92371538E+02</pdfrwt>
<totfact> 0.82286678E+04</totfact>
</mgrwt>
</event>
<event>
 5    1  0.1270889E+001  0.9344186E+02  0.7546771E-02  0.1294724E+00
         -2   -1    0    0    0  501 -0.00000000000E+00  0.00000000000E+00  0.57999507668E+02  0.57999507668E+02  0.00000000000E+00 0.  1.
          2   -1    0    0  501    0  0.00000000000E+00 -0.00000000000E+00 -0.37635582564E+02  0.37635582564E+02  0.00000000000E+00 0. -1.
         23    2    1    2    0    0  0.00000000000E+00  0.00000000000E+00  0.20363925104E+02  0.95635090232E+02  0.93441859132E+02 0.  0.
        -13    1    3    3    0    0  0.21286557608E+02  0.19946933266E+02  0.47533033958E+02  0.55770843626E+02  0.00000000000E+00 0.  1.
         13    1    3    3    0    0 -0.21286557608E+02 -0.19946933266E+02 -0.27169108854E+02  0.39864246606E+02  0.00000000000E+00 0. -1.
<mgrwt>
<rscale>  0 0.93441859E+02</rscale>
<asrwt>0</asrwt>
<pdfrwt beam="2">  1        2 0.57900896E-02 0.93441859E+02</pdfrwt>
<pdfrwt beam="1">  1       -2 0.89230012E-02 0.93441859E+02</pdfrwt>
<totfact> 0.87400179E+04</totfact>
</mgrwt>
</event>
<event>
 5    1  0.1270889E+001  0.9061673E+02  0.7546771E-02  0.1301365E+00
          2   -1    0    0  501    0  0.00000000000E+00  0.00000000000E+00  0.18843807839E+03  0.18843807839E+03  0.00000000000E+00 0. -1.
         -2   -1    0    0    0  501 -0.00000000000E+00 -0.00000000000E+00 -0.10894018991E+02  0.10894018991E+02  0.00000000000E+00 0.  1.
         23    2    1    2    0    0  0.00000000000E+00  0.00000000000E+00  0.17754405940E+03  0.19933209738E+03  0.90616731447E+02 0.  0.
        -13    1    3    3    0    0 -0.87196047529E+01 -0.44230901082E+02  0.98718078349E+02  0.10852494234E+03  0.00000000000E+00 0.  1.
         13    1    3    3    0    0  0.87196047529E+01  0.44230901082E+02  0.78825981050E+02  0.90807155038E+02  0.00000000000E+00 0. -1.
<mgrwt>
<rscale>  0 0.90616731E+02</rscale>
<asrwt>0</asrwt>
<pdfrwt beam="1">  1        2 0.28990471E-01 0.90616731E+02</pdfrwt>
<pdfrwt beam="2">  1       -2 0.16760031E-02 0.90616731E+02</pdfrwt>
<totfact> 0.15393458E+05</totfact>
</mgrwt>
</event>
<event>
 5    1  0.1270889E+001  0.9630039E+02  0.7546771E-02  0.1288274E+00
          1   -1    0    0  501    0  0.00000000000E+00  0.00000000000E+00  0.47600548966E+02  0.47600548966E+02  0.00000000000E+00 0. -1.
         -1   -1    0    0    0  501 -0.00000000000E+00 -0.00000000000E+00 -0.48706183560E+02  0.48706183560E+02  0.00000000000E+00 0.  1.
         23    2    1    2    0    0  0.00000000000E+00  0.00000000000E+00 -0.11056345935E+01  0.96306732526E+02  0.96300385784E+02 0.  0.
        -13    1    3    3    0    0  0.14246490722E+02  0.23657922137E+01 -0.46489292133E+02  0.48680732880E+02  0.00000000000E+00 0.  1.
         13    1    3    3    0    0 -0.14246490722E+02 -0.23657922137E+01  0.45383657539E+02  0.47625999647E+02  0.00000000000E+00 0. -1.
<mgrwt>
<rscale>  0 0.96300386E+02</rscale>
<asrwt>0</asrwt>
<pdfrwt beam="1">  1        1 0.73231614E-02 0.96300386E+02</pdfrwt>
<pdfrwt beam="2">  1       -1 0.74932590E-02 0.96300386E+02</pdfrwt>
<totfact> 0.79792646E+04</totfact>
</mgrwt>
</event>
<event>
 5    1  0.1270889E+001  0.9017811E+02  0.7546771E-02  0.1302421E+00
         -1   -1    0    0    0  501 -0.00000000000E+00  0.00000000000E+00  0.42932688398E+02  0.42932688398E+02  0.00000000000E+00 0.  1.
          1   -1    0    0  501    0  0.00000000000E+00 -0.00000000000E+00 -0.47353724401E+02  0.47353724401E+02  0.00000000000E+00 0. -1.
         23    2    1    2    0    0  0.00000000000E+00  0.00000000000E+00 -0.44210360033E+01  0.90286412798E+02  0.90178105861E+02 0.  0.
        -11    1    3    3    0    0 -0.34263775894E+02 -0.12052640806E+02 -0.28958708798E+02  0.46452979497E+02  0.00000000000E+00 0.  1.
         11    1    3    3    0    0  0.34263775894E+02  0.12052640806E+02  0.24537672794E+02  0.43833433302E+02  0.00000000000E+00 0. -1.
<mgrwt>
<rscale>  0 0.90178106E+02</rscale>
<asrwt>0</asrwt>
<pdfrwt beam="2">  1        1 0.72851884E-02 0.90178106E+02</pdfrwt>
<pdfrwt beam="1">  1       -1 0.66050290E-02 0.90178106E+02</pdfrwt>
<totfact> 0.95911867E+04</totfact>
</mgrwt>
</event>
<event>
 5    1  0.1270889E+001  0.9082497E+02  0.7546771E-02  0.1300866E+00
         -2   -1    0    0    0  501 -0.00000000000E+00  0.00000000000E+00  0.52997288149E+02  0.52997288149E+02  0.00000000000E+00 0.  1.
          2   -1    0    0  501    0  0.00000000000E+00 -0.00000000000E+00 -0.38913197934E+02  0.38913197934E+02  0.00000000000E+00 0. -1.
         23    2    1    2    0    0  0.00000000000E+00  0.00000000000E+00  0.14084090215E+02  0.91910486083E+02  0.90824973740E+02 0.  0.
        -13    1    3    3    0    0  0.45071952849E+02 -0.13018823723E+01  0.15814303253E+01  0.45118474633E+02  0.00000000000E+00 0. -1.
         13    1    3    3    0    0 -0.45071952849E+02  0.13018823723E+01  0.12502659889E+02  0.46792011451E+02  0.00000000000E+00 0.  1.
<mgrwt>
<rscale>  0 0.90824974E+02</rscale>
<asrwt>0</asrwt>
<pdfrwt beam="2">  1        2 0.59866458E-02 0.90824974E+02</pdfrwt>
<pdfrwt beam="1">  1       -2 0.81534290E-02 0.90824974E+02</pdfrwt>
<totfact> 0.95778856E+04</totfact>
</mgrwt>
</event>
<event>
 5    1  0.1270889E+001  0.9068888E+02  0.7546771E-02  0.1301192E+00
         -3   -1    0    0    0  501 -0.00000000000E+00  0.00000000000E+00  0.28100297596E+03  0.28100297596E+03  0.00000000000E+00 0.  1.
          3   -1    0    0  501    0  0.00000000000E+00 -0.00000000000E+00 -0.73170700317E+01  0.73170700317E+01  0.00000000000E+00 0. -1.
         23    2    1    2    0    0  0.00000000000E+00  0.00000000000E+00  0.27368590593E+03  0.28832004599E+03  0.90688884748E+02 0.  0.
        -13    1    3    3    0    0 -0.36828742204E+02  0.24338371649E+01  0.22058624279E+03  0.22365278966E+03  0.00000000000E+00 0.  1.
         13    1    3    3    0    0  0.36828742204E+02 -0.24338371649E+01  0.53099663135E+02  0.64667256326E+02  0.00000000000E+00 0. -1.
<mgrwt>
<rscale>  0 0.90688885E+02</rscale>
<asrwt>0</asrwt>
<pdfrwt beam="2">  1        3 0.11257033E-02 0.90688885E+02</pdfrwt>
<pdfrwt beam="1">  1       -3 0.43231219E-01 0.90688885E+02</pdfrwt>
<totfact> 0.24838337E+04</totfact>
</mgrwt>
</event>
<event>
 5    1  0.1270889E+001  0.9123815E+02  0.7546771E-02  0.1299881E+00
          2   -1    0    0  501    0  0.00000000000E+00  0.00000000000E+00  0.29868626458E+02  0.29868626458E+02  0.00000000000E+00 0. -1.
         -2   -1    0    0    0  501 -0.00000000000E+00 -0.00000000000E+00 -0.69675109134E+02  0.69675109134E+02  0.00000000000E+00 0.  1.
         23    2    1    2    0    0  0.00000000000E+00  0.00000000000E+00 -0.39806482676E+02  0.99543735592E+02  0.91238145710E+02 0.  0.
        -13    1    3    3    0    0  0.38329010661E+02  0.24548472837E+02 -0.23241020300E+02  0.51106610154E+02  0.00000000000E+00 0.  1.
         13    1    3    3    0    0 -0.38329010661E+02 -0.24548472837E+02 -0.16565462376E+02  0.48437125437E+02  0.00000000000E+00 0. -1.
<mgrwt>
<rscale>  0 0.91238146E+02</rscale>
<asrwt>0</asrwt>
<pdfrwt beam="1">  1        2 0.45951733E-02 0.91238146E+02</pdfrwt>
<pdfrwt beam="2">  1       -2 0.10719248E-01 0.91238146E+02</pdfrwt>
<totfact> 0.88186033E+04</totfact>
</mgrwt>
</event>
<event>
 5    1  0.1270889E+001  0.8932342E+02  0.7546771E-02  0.1304498E+00
          1   -1    0    0  501    0  0.00000000000E+00  0.00000000000E+00  0.27525515558E+02  0.27525515558E+02  0.00000000000E+00 0. -1.
         -1   -1    0    0    0  501 -0.00000000000E+00 -0.00000000000E+00 -0.72466154517E+02  0.72466154517E+02  0.00000000000E+00 0.  1.
         23    2    1    2    0    0  0.00000000000E+00  0.00000000000E+00 -0.44940638959E+02  0.99991670074E+02  0.89323418286E+02 0.  0.
        -11    1    3    3    0    0  0.14289957824E+02  0.24428990185E+02  0.16205919076E+02  0.32613038331E+02  0.00000000000E+00 0. -1.
         11    1    3    3    0    0 -0.14289957824E+02 -0.24428990185E+02 -0.61146558035E+02  0.67378631743E+02  0.00000000000E+00 0.  1.
<mgrwt>
<rscale>  0 0.89323418E+02</rscale>
<asrwt>0</asrwt>
<pdfrwt beam="1">  1        1 0.42346948E-02 0.89323418E+02</pdfrwt>
<pdfrwt beam="2">  1       -1 0.11148639E-01 0.89323418E+02</pdfrwt>
<totfact> 0.90679271E+04</totfact>
</mgrwt>
</event>
<event>
 5    1  0.1270889E+001  0.9061113E+02  0.7546771E-02  0.1301378E+00
          2   -1    0    0  501    0  0.00000000000E+00  0.00000000000E+00  0.22519413441E+03  0.22519413441E+03  0.00000000000E+00 0. -1.
         -2   -1    0    0    0  501 -0.00000000000E+00 -0.00000000000E+00 -0.91147763810E+01  0.91147763810E+01  0.00000000000E+00 0.  1.
         23    2    1    2    0    0  0.00000000000E+00  0.00000000000E+00  0.21607935803E+03  0.23430891080E+03  0.90611129063E+02 0.  0.
        -11    1    3    3    0    0 -0.43185919825E+02  0.58123141752E+00  0.72656399284E+02  0.84524043077E+02  0.00000000000E+00 0.  1.
         11    1    3    3    0    0  0.43185919825E+02 -0.58123141752E+00  0.14342295875E+03  0.14978486772E+03  0.00000000000E+00 0. -1.
<mgrwt>
<rscale>  0 0.90611129E+02</rscale>
<asrwt>0</asrwt>
<pdfrwt beam="1">  1        2 0.34645247E-01 0.90611129E+02</pdfrwt>
<pdfrwt beam="2">  1       -2 0.14022735E-02 0.90611129E+02</pdfrwt>
<totfact> 0.16423566E+05</totfact>
</mgrwt>
</event>
<event>
 5    1  0.1270889E+001  0.8966074E+02  0.7546771E-02  0.1303675E+00
         -2   -1    0    0    0  501 -0.00000000000E+00  0.00000000000E+00  0.50300086378E+02  0.50300086378E+02  0.00000000000E+00 0.  1.
          2   -1    0    0  501    0  0.00000000000E+00 -0.00000000000E+00 -0.39955439951E+02  0.39955439951E+02  0.00000000000E+00 0. -1.
         23    2    1    2    0    0  0.00000000000E+00  0.00000000000E+00  0.10344646427E+02  0.90255526329E+02  0.89660740144E+02 0.  0.
        -11    1    3    3    0    0  0.20440694952E+02  0.34578210789E+02  0.25211349764E+02  0.47424538252E+02  0.00000000000E+00 0.  1.
         11    1    3    3    0    0 -0.20440694952E+02 -0.34578210789E+02 -0.14866703338E+02  0.42830988077E+02  0.00000000000E+00 0. -1.
<mgrwt>
<rscale>  0 0.89660740E+02</rscale>
<asrwt>0</asrwt>
<pdfrwt beam="2">  1        2 0.61469908E-02 0.89660740E+02</pdfrwt>
<pdfrwt beam="1">  1       -2 0.77384748E-02 0.89660740E+02</pdfrwt>
<totfact> 0.10009484E+05</totfact>
</mgrwt>
</event>
<event>
 5    1  0.1270889E+001  0.8967533E+02  0.7546771E-02  0.1303640E+00
         -1   -1    0    0    0  501 -0.00000000000E+00  0.00000000000E+00  0.69631188747E+02  0.69631188747E+02  0.00000000000E+00 0.  1.
          1   -1    0    0  501    0  0.00000000000E+00 -0.00000000000E+00 -0.28872349243E+02  0.28872349243E+02  0.00000000000E+00 0. -1.
         23    2    1    2    0    0  0.00000000000E+00  0.00000000000E+00  0.40758839504E+02  0.98503537990E+02  0.89675325474E+02 0.  0.
        -11    1    3    3    0    0  0.36350957413E+02  0.25046501002E+02  0.29007412542E+02  0.52821863842E+02  0.00000000000E+00 0. -1.
         11    1    3    3    0    0 -0.36350957413E+02 -0.25046501002E+02  0.11751426962E+02  0.45681674148E+02  0.00000000000E+00 0.  1.
<mgrwt>
<rscale>  0 0.89675325E+02</rscale>
<asrwt>0</asrwt>
<pdfrwt beam="2">  1        1 0.44418999E-02 0.89675325E+02</pdfrwt>
<pdfrwt beam="1">  1       -1 0.10712490E-01 0.89675325E+02</pdfrwt>
<totfact> 0.90354005E+04</totfact>
</mgrwt>
</event>
<event>
 5    1  0.1270889E+001  0.8925704E+02  0.7546771E-02  0.1304661E+00
         -3   -1    0    0    0  501 -0.00000000000E+00  0.00000000000E+00  0.39002116661E+03  0.39002116661E+03  0.00000000000E+00 0.  1.
          3   -1    0    0  501    0  0.00000000000E+00 -0.00000000000E+00 -0.51066581370E+01  0.51066581370E+01  0.00000000000E+00 0. -1.
         23    2    1    2    0    0  0.00000000000E+00  0.00000000000E+00  0.38491450847E+03  0.39512782475E+03  0.89257039253E+02 0.  0.
        -11    1    3    3    0    0 -0.36497317701E+02  0.21672187149E+02  0.13144261200E+03  0.13812638468E+03  0.00000000000E+00 0.  1.
         11    1    3    3    0    0  0.36497317701E+02 -0.21672187149E+02  0.25347189647E+03  0.25700144007E+03  0.00000000000E+00 0. -1.
<mgrwt>
<rscale>  0 0.89257039E+02</rscale>
<asrwt>0</asrwt>
<pdfrwt beam="2">  1        3 0.78564002E-03 0.89257039E+02</pdfrwt>
<pdfrwt beam="1">  1       -3 0.60003233E-01 0.89257039E+02</pdfrwt>
<totfact> 0.21960867E+04</totfact>
</mgrwt>
</event>
<event>
 5    1  0.1270889E+001  0.9047500E+02  0.7546771E-02  0.1301705E+00
          1   -1    0    0  501    0  0.00000000000E+00  0.00000000000E+00  0.23202868016E+02  0.23202868016E+02  0.00000000000E+00 0. -1.
         -1   -1    0    0    0  501 -0.00000000000E+00 -0.00000000000E+00 -0.88197346524E+02  0.88197346524E+02  0.00000000000E+00 0.  1.
         23    2    1    2    0    0  0.00000000000E+00  0.00000000000E+00 -0.64994478508E+02  0.11140021454E+03  0.90474999657E+02 0.  0.
        -11    1    3    3    0    0  0.38834947639E+02  0.21154371819E+02 -0.44228116332E+02  0.62544279351E+02  0.00000000000E+00 0.  1.
         11    1    3    3    0    0 -0.38834947639E+02 -0.21154371819E+02 -0.20766362176E+02  0.48855935189E+02  0.00000000000E+00 0. -1.
<mgrwt>
<rscale>  0 0.90475000E+02</rscale>
<asrwt>0</asrwt>
<pdfrwt beam="1">  1        1 0.35696720E-02 0.90475000E+02</pdfrwt>
<pdfrwt beam="2">  1       -1 0.13568822E-01 0.90475000E+02</pdfrwt>
<totfact> 0.84905333E+04</totfact>
</mgrwt>
</event>
<event>
 5    1  0.1270889E+001  0.8943689E+02  0.7546771E-02  0.1304221E+00
         -4   -1    0    0    0  501 -0.00000000000E+00  0.00000000000E+00  0.29326211365E+02  0.29326211365E+02  0.00000000000E+00 0.  1.
          4   -1    0    0  501    0  0.00000000000E+00 -0.00000000000E+00 -0.68189493063E+02  0.68189493063E+02  0.00000000000E+00 0. -1.
         23    2    1    2    0    0  0.00000000000E+00  0.00000000000E+00 -0.38863281698E+02  0.97515704427E+02  0.89436893649E+02 0.  0.
        -11    1    3    3    0    0  0.35406448498E+02 -0.28904859610E+01 -0.49047051390E+02  0.60560587468E+02  0.00000000000E+00 0. -1.
         11    1    3    3    0    0 -0.35406448498E+02  0.28904859610E+01  0.10183769692E+02  0.36955116960E+02  0.00000000000E+00 0.  1.
<mgrwt>
<rscale>  0 0.89436894E+02</rscale>
<asrwt>0</asrwt>
<pdfrwt beam="2">  1        4 0.10490691E-01 0.89436894E+02</pdfrwt>
<pdfrwt beam="1">  1       -4 0.45117249E-02 0.89436894E+02</pdfrwt>
<totfact> 0.28035797E+04</totfact>
</mgrwt>
</event>
<event>
 5    1  0.1270889E+001  0.9137611E+02  0.7546771E-02  0.1299553E+00
          2   -1    0    0  501    0  0.00000000000E+00  0.00000000000E+00  0.77146062421E+02  0.77146062421E+02  0.00000000000E+00 0. -1.
         -2   -1    0    0    0  501 -0.00000000000E+00 -0.00000000000E+00 -0.27057744667E+02  0.27057744667E+02  0.00000000000E+00 0.  1.
         23    2    1    2    0    0  0.00000000000E+00  0.00000000000E+00  0.50088317754E+02  0.10420380709E+03  0.91376111957E+02 0.  0.
        -13    1    3    3    0    0  0.11693607559E+02  0.30443207883E+02  0.61534097126E+02  0.69641758113E+02  0.00000000000E+00 0. -1.
         13    1    3    3    0    0 -0.11693607559E+02 -0.30443207883E+02 -0.11445779372E+02  0.34562048975E+02  0.00000000000E+00 0.  1.
<mgrwt>
<rscale>  0 0.91376112E+02</rscale>
<asrwt>0</asrwt>
<pdfrwt beam="1">  1        2 0.11868625E-01 0.91376112E+02</pdfrwt>
<pdfrwt beam="2">  1       -2 0.41627300E-02 0.91376112E+02</pdfrwt>
<totfact> 0.11298440E+05</totfact>
</mgrwt>
</event>
<event>
 5    1  0.1270889E+001  0.9080193E+02  0.7546771E-02  0.1300921E+00
         -1   -1    0    0    0  501 -0.00000000000E+00  0.00000000000E+00  0.16389617330E+02  0.16389617330E+02  0.00000000000E+00 0.  1.
          1   -1    0    0  501    0  0.00000000000E+00 -0.00000000000E+00 -0.12576543858E+03  0.12576543858E+03  0.00000000000E+00 0. -1.
         23    2    1    2    0    0  0.00000000000E+00  0.00000000000E+00 -0.10937582125E+03  0.14215505591E+03  0.90801925347E+02 0.  0.
        -11    1    3    3    0    0 -0.14467573379E+02 -0.14742936083E+02 -0.11798309725E+03  0.11977761093E+03  0.00000000000E+00 0. -1.
         11    1    3    3    0    0  0.14467573379E+02  0.14742936083E+02  0.86072759969E+01  0.22377444982E+02  0.00000000000E+00 0.  1.
<mgrwt>
<rscale>  0 0.90801925E+02</rscale>
<asrwt>0</asrwt>
<pdfrwt beam="2">  1        1 0.19348528E-01 0.90801925E+02</pdfrwt>
<pdfrwt beam="1">  1       -1 0.25214798E-02 0.90801925E+02</pdfrwt>
<totfact> 0.10984680E+05</totfact>
</mgrwt>
</event>
<event>
 5    1  0.1270889E+001  0.9253498E+02  0.7546771E-02  0.1296826E+00
          2   -1    0    0  501    0  0.00000000000E+00  0.00000000000E+00  0.32145430341E+02  0.32145430341E+02  0.00000000000E+00 0. -1.
         -2   -1    0    0    0  501 -0.00000000000E+00 -0.00000000000E+00 -0.66593615383E+02  0.66593615383E+02  0.00000000000E+00 0.  1.
         23    2    1    2    0    0  0.00000000000E+00  0.00000000000E+00 -0.34448185042E+02  0.98739045725E+02  0.92534975539E+02 0.  0.
        -13    1    3    3    0    0  0.16125693582E+02  0.16208617313E+02  0.25696129165E+02  0.34395469509E+02  0.00000000000E+00 0. -1.
         13    1    3    3    0    0 -0.16125693582E+02 -0.16208617313E+02 -0.60144314207E+02  0.64343576215E+02  0.00000000000E+00 0.  1.
<mgrwt>
<rscale>  0 0.92534976E+02</rscale>
<asrwt>0</asrwt>
<pdfrwt beam="1">  1        2 0.49454508E-02 0.92534976E+02</pdfrwt>
<pdfrwt beam="2">  1       -2 0.10245172E-01 0.92534976E+02</pdfrwt>
<totfact> 0.86247703E+04</totfact>
</mgrwt>
</event>
<event>
 5    1  0.1270889E+001  0.9021100E+02  0.7546771E-02  0.1302342E+00
          2   -1    0    0  501    0  0.00000000000E+00  0.00000000000E+00  0.28420623028E+03  0.28420623028E+03  0.00000000000E+00 0. -1.
         -2   -1    0    0    0  501 -0.00000000000E+00 -0.00000000000E+00 -0.71585559752E+01  0.71585559752E+01  0.00000000000E+00 0.  1.
         23    2    1    2    0    0  0.00000000000E+00  0.00000000000E+00  0.27704767431E+03  0.29136478626E+03  0.90211001724E+02 0.  0.
        -11    1    3    3    0    0 -0.55485588856E+01 -0.42322079520E+02  0.18561285618E+03  0.19045754724E+03  0.00000000000E+00 0. -1.
         11    1    3    3    0    0  0.55485588856E+01  0.42322079520E+02  0.91434818129E+02  0.10090723902E+03  0.00000000000E+00 0.  1.
<mgrwt>
<rscale>  0 0.90211002E+02</rscale>
<asrwt>0</asrwt>
<pdfrwt beam="1">  1        2 0.43724027E-01 0.90211002E+02</pdfrwt>
<pdfrwt beam="2">  1       -2 0.11013165E-02 0.90211002E+02</pdfrwt>
<totfact> 0.18114875E+05</totfact>
</mgrwt>
</event>
<event>
 5    1  0.1270889E+001  0.9135507E+02  0.7546771E-02  0.1299603E+00
         -1   -1    0    0    0  501 -0.00000000000E+00  0.00000000000E+00  0.49348648496E+02  0.49348648496E+02  0.00000000000E+00 0.  1.
          1   -1    0    0  501    0  0.00000000000E+00 -0.00000000000E+00 -0.42279521598E+02  0.42279521598E+02  0.00000000000E+00 0. -1.
         23    2    1    2    0    0  0.00000000000E+00  0.00000000000E+00  0.70691268979E+01  0.91628170094E+02  0.91355071013E+02 0.  0.
        -13    1    3    3    0    0  0.41466514017E+02 -0.13638659354E+02  0.17026632995E+02  0.46855000212E+02  0.00000000000E+00 0.  1.
         13    1    3    3    0    0 -0.41466514017E+02  0.13638659354E+02 -0.99575060974E+01  0.44773169883E+02  0.00000000000E+00 0. -1.
<mgrwt>
<rscale>  0 0.91355071E+02</rscale>
<asrwt>0</asrwt>
<pdfrwt beam="2">  1        1 0.65045418E-02 0.91355071E+02</pdfrwt>
<pdfrwt beam="1">  1       -1 0.75920998E-02 0.91355071E+02</pdfrwt>
<totfact> 0.90926060E+04</totfact>
</mgrwt>
</event>
<event>
 5    1  0.1270889E+001  0.9315889E+02  0.7546771E-02  0.1295377E+00
          1   -1    0    0  501    0  0.00000000000E+00  0.00000000000E+00  0.45327435491E+02  0.45327435491E+02  0.00000000000E+00 0. -1.
         -1   -1    0    0    0  501 -0.00000000000E+00 -0.00000000000E+00 -0.47866036897E+02  0.47866036897E+02  0.00000000000E+00 0.  1.
         23    2    1    2    0    0  0.00000000000E+00  0.00000000000E+00 -0.25386014057E+01  0.93193472389E+02  0.93158890068E+02 0.  0.
        -13    1    3    3    0    0  0.38370759437E+02  0.22941805708E+02 -0.14350969305E+02  0.46953082422E+02  0.00000000000E+00 0.  1.
         13    1    3    3    0    0 -0.38370759437E+02 -0.22941805708E+02  0.11812367900E+02  0.46240389967E+02  0.00000000000E+00 0. -1.
<mgrwt>
<rscale>  0 0.93158890E+02</rscale>
<asrwt>0</asrwt>
<pdfrwt beam="1">  1        1 0.69734516E-02 0.93158890E+02</pdfrwt>
<pdfrwt beam="2">  1       -1 0.73640057E-02 0.93158890E+02</pdfrwt>
<totfact> 0.86964558E+04</totfact>
</mgrwt>
</event>
<event>
 5    1  0.1270889E+001  0.8997681E+02  0.7546771E-02  0.1302908E+00
         -1   -1    0    0    0  501 -0.00000000000E+00  0.00000000000E+00  0.14555921136E+03  0.14555921136E+03  0.00000000000E+00 0.  1.
          1   -1    0    0  501    0  0.00000000000E+00 -0.00000000000E+00 -0.13904696966E+02  0.13904696966E+02  0.00000000000E+00 0. -1.
         23    2    1    2    0    0  0.00000000000E+00  0.00000000000E+00  0.13165451439E+03  0.15946390832E+03  0.89976813114E+02 0.  0.
        -11    1    3    3    0    0 -0.23547781274E+02 -0.32193167058E+02  0.10270846961E+03  0.11018134024E+03  0.00000000000E+00 0.  1.
         11    1    3    3    0    0  0.23547781274E+02  0.32193167058E+02  0.28946044782E+02  0.49282568081E+02  0.00000000000E+00 0. -1.
<mgrwt>
<rscale>  0 0.89976813E+02</rscale>
<asrwt>0</asrwt>
<pdfrwt beam="2">  1        1 0.21391843E-02 0.89976813E+02</pdfrwt>
<pdfrwt beam="1">  1       -1 0.22393724E-01 0.89976813E+02</pdfrwt>
<totfact> 0.77942317E+04</totfact>
</mgrwt>
</event>
<event>
 5    1  0.1270889E+001  0.8981754E+02  0.7546771E-02  0.1303294E+00
          1   -1    0    0  501    0  0.00000000000E+00  0.00000000000E+00  0.13288872092E+03  0.13288872092E+03  0.00000000000E+00 0. -1.
         -1   -1    0    0    0  501 -0.00000000000E+00 -0.00000000000E+00 -0.15176590580E+02  0.15176590580E+02  0.00000000000E+00 0.  1.
         23    2    1    2    0    0  0.00000000000E+00  0.00000000000E+00  0.11771213034E+03  0.14806531150E+03  0.89817541942E+02 0.  0.
        -13    1    3    3    0    0  0.37480223603E+02 -0.56507378002E+01  0.19151222107E+02  0.42467249819E+02  0.00000000000E+00 0.  1.
         13    1    3    3    0    0 -0.37480223603E+02  0.56507378002E+01  0.98560908234E+02  0.10559806168E+03  0.00000000000E+00 0. -1.
<mgrwt>
<rscale>  0 0.89817542E+02</rscale>
<asrwt>0</asrwt>
<pdfrwt beam="1">  1        1 0.20444418E-01 0.89817542E+02</pdfrwt>
<pdfrwt beam="2">  1       -1 0.23348602E-02 0.89817542E+02</pdfrwt>
<totfact> 0.11423816E+05</totfact>
</mgrwt>
</event>
<event>
 5    1  0.1270889E+001  0.9118062E+02  0.7546771E-02  0.1300018E+00
          2   -1    0    0  501    0  0.00000000000E+00  0.00000000000E+00  0.16879466864E+03  0.16879466864E+03  0.00000000000E+00 0.  1.
         -2   -1    0    0    0  501 -0.00000000000E+00 -0.00000000000E+00 -0.12313636757E+02  0.12313636757E+02  0.00000000000E+00 0. -1.
         23    2    1    2    0    0  0.00000000000E+00  0.00000000000E+00  0.15648103188E+03  0.18110830539E+03  0.91180617155E+02 0.  0.
        -13    1    3    3    0    0  0.44440433959E+02 -0.10168365587E+02  0.78952270353E+02  0.91169122092E+02  0.00000000000E+00 0. -1.
         13    1    3    3    0    0 -0.44440433959E+02  0.10168365587E+02  0.77528761527E+02  0.89939183302E+02  0.00000000000E+00 0.  1.
<mgrwt>
<rscale>  0 0.91180617E+02</rscale>
<asrwt>0</asrwt>
<pdfrwt beam="1">  1        2 0.25968409E-01 0.91180617E+02</pdfrwt>
<pdfrwt beam="2">  1       -2 0.18944058E-02 0.91180617E+02</pdfrwt>
<totfact> 0.14559970E+05</totfact>
</mgrwt>
</event>
<event>
 5    1  0.1270889E+001  0.9322356E+02  0.7546771E-02  0.1295228E+00
          2   -1    0    0  501    0  0.00000000000E+00  0.00000000000E+00  0.13048016826E+02  0.13048016826E+02  0.00000000000E+00 0. -1.
         -2   -1    0    0    0  501 -0.00000000000E+00 -0.00000000000E+00 -0.16651250658E+03  0.16651250658E+03  0.00000000000E+00 0.  1.
         23    2    1    2    0    0  0.00000000000E+00  0.00000000000E+00 -0.15346448976E+03  0.17956052341E+03  0.93223558990E+02 0.  0.
        -11    1    3    3    0    0  0.31524462586E+02  0.69807092443E+01 -0.14148384840E+03  0.14512133337E+03  0.00000000000E+00 0.  1.
         11    1    3    3    0    0 -0.31524462586E+02 -0.69807092443E+01 -0.11980641360E+02  0.34439190036E+02  0.00000000000E+00 0. -1.
<mgrwt>
<rscale>  0 0.93223559E+02</rscale>
<asrwt>0</asrwt>
<pdfrwt beam="1">  1        2 0.20073872E-02 0.93223559E+02</pdfrwt>
<pdfrwt beam="2">  1       -2 0.25617308E-01 0.93223559E+02</pdfrwt>
<totfact> 0.63486138E+04</totfact>
</mgrwt>
</event>
<event>
 5    1  0.1270889E+001  0.9694315E+02  0.7546771E-02  0.1286859E+00
          3   -1    0    0  501    0  0.00000000000E+00  0.00000000000E+00  0.34524832309E+02  0.34524832309E+02  0.00000000000E+00 0. -1.
         -3   -1    0    0    0  501 -0.00000000000E+00 -0.00000000000E+00 -0.68052281257E+02  0.68052281257E+02  0.00000000000E+00 0.  1.
         23    2    1    2    0    0  0.00000000000E+00  0.00000000000E+00 -0.33527448947E+02  0.10257711357E+03  0.96943150323E+02 0.  0.
        -13    1    3    3    0    0  0.26879118795E+01 -0.22840599007E+02 -0.61911642118E+02  0.66045206208E+02  0.00000000000E+00 0.  1.
         13    1    3    3    0    0 -0.26879118795E+01  0.22840599007E+02  0.28384193171E+02  0.36531907358E+02  0.00000000000E+00 0. -1.
<mgrwt>
<rscale>  0 0.96943150E+02</rscale>
<asrwt>0</asrwt>
<pdfrwt beam="1">  1        3 0.53115127E-02 0.96943150E+02</pdfrwt>
<pdfrwt beam="2">  1       -3 0.10469582E-01 0.96943150E+02</pdfrwt>
<totfact> 0.29158285E+04</totfact>
</mgrwt>
</event>
<event>
 5    1  0.1270889E+001  0.8442468E+02  0.7546771E-02  0.1316944E+00
         -1   -1    0    0    0  501 -0.00000000000E+00  0.00000000000E+00  0.12031424295E+03  0.12031424295E+03  0.00000000000E+00 0.  1.
          1   -1    0    0  501    0  0.00000000000E+00 -0.00000000000E+00 -0.14810230215E+02  0.14810230215E+02  0.00000000000E+00 0. -1.
         23    2    1    2    0    0  0.00000000000E+00  0.00000000000E+00  0.10550401274E+03  0.13512447317E+03  0.84424679715E+02 0.  0.
        -11    1    3    3    0    0  0.32622467961E+02 -0.87530568993E+01  0.93275532648E+02  0.99202653249E+02  0.00000000000E+00 0.  1.
         11    1    3    3    0    0 -0.32622467961E+02  0.87530568993E+01  0.12228480090E+02  0.35921819918E+02  0.00000000000E+00 0. -1.
<mgrwt>
<rscale>  0 0.84424680E+02</rscale>
<asrwt>0</asrwt>
<pdfrwt beam="2">  1        1 0.22784970E-02 0.84424680E+02</pdfrwt>
<pdfrwt beam="1">  1       -1 0.18509883E-01 0.84424680E+02</pdfrwt>
<totfact> 0.95717098E+04</totfact>
</mgrwt>
</event>
<event>
 5    1  0.1270889E+001  0.9651493E+02  0.7546771E-02  0.1287800E+00
         -3   -1    0    0    0  501 -0.00000000000E+00  0.00000000000E+00  0.77603766332E+01  0.77603766332E+01  0.00000000000E+00 0.  1.
          3   -1    0    0  501    0  0.00000000000E+00 -0.00000000000E+00 -0.30008634175E+03  0.30008634175E+03  0.00000000000E+00 0. -1.
         23    2    1    2    0    0  0.00000000000E+00  0.00000000000E+00 -0.29232596511E+03  0.30784671838E+03  0.96514932201E+02 0.  0.
        -13    1    3    3    0    0  0.75653844682E+01 -0.44133895740E+02 -0.88772079940E+02  0.99425942149E+02  0.00000000000E+00 0.  1.
         13    1    3    3    0    0 -0.75653844682E+01  0.44133895740E+02 -0.20355388517E+03  0.20842077623E+03  0.00000000000E+00 0. -1.
<mgrwt>
<rscale>  0 0.96514932E+02</rscale>
<asrwt>0</asrwt>
<pdfrwt beam="2">  1        3 0.46167128E-01 0.96514932E+02</pdfrwt>
<pdfrwt beam="1">  1       -3 0.11939041E-02 0.96514932E+02</pdfrwt>
<totfact> 0.20357331E+04</totfact>
</mgrwt>
</event>
<event>
 5    1  0.1270889E+001  0.9131852E+02  0.7546771E-02  0.1299690E+00
          1   -1    0    0  501    0  0.00000000000E+00  0.00000000000E+00  0.50744820259E+02  0.50744820259E+02  0.00000000000E+00 0. -1.
         -1   -1    0    0    0  501 -0.00000000000E+00 -0.00000000000E+00 -0.41083365144E+02  0.41083365144E+02  0.00000000000E+00 0.  1.
         23    2    1    2    0    0  0.00000000000E+00  0.00000000000E+00  0.96614551154E+01  0.91828185403E+02  0.91318519039E+02 0.  0.
        -13    1    3    3    0    0  0.13766202704E+02 -0.67106755950E+01 -0.38423602348E+02  0.41363204920E+02  0.00000000000E+00 0.  1.
         13    1    3    3    0    0 -0.13766202704E+02  0.67106755950E+01  0.48085057464E+02  0.50464980483E+02  0.00000000000E+00 0. -1.
<mgrwt>
<rscale>  0 0.91318519E+02</rscale>
<asrwt>0</asrwt>
<pdfrwt beam="1">  1        1 0.78068954E-02 0.91318519E+02</pdfrwt>
<pdfrwt beam="2">  1       -1 0.63205177E-02 0.91318519E+02</pdfrwt>
<totfact> 0.93565059E+04</totfact>
</mgrwt>
</event>
<event>
 5    1  0.1270889E+001  0.9318684E+02  0.7546771E-02  0.1295313E+00
         -4   -1    0    0    0  501 -0.00000000000E+00  0.00000000000E+00  0.74888001617E+02  0.74888001617E+02  0.00000000000E+00 0. -1.
          4   -1    0    0  501    0  0.00000000000E+00 -0.00000000000E+00 -0.28989245277E+02  0.28989245277E+02  0.00000000000E+00 0.  1.
         23    2    1    2    0    0  0.00000000000E+00  0.00000000000E+00  0.45898756341E+02  0.10387724689E+03  0.93186836993E+02 0.  0.
        -11    1    3    3    0    0 -0.30588156993E+02 -0.21079037827E+02  0.54300285259E+02  0.65791201259E+02  0.00000000000E+00 0. -1.
         11    1    3    3    0    0  0.30588156993E+02  0.21079037827E+02 -0.84015289182E+01  0.38086045635E+02  0.00000000000E+00 0.  1.
<mgrwt>
<rscale>  0 0.93186837E+02</rscale>
<asrwt>0</asrwt>
<pdfrwt beam="2">  1        4 0.44598839E-02 0.93186837E+02</pdfrwt>
<pdfrwt beam="1">  1       -4 0.11521231E-01 0.93186837E+02</pdfrwt>
<totfact> 0.24711601E+04</totfact>
</mgrwt>
</event>
<event>
 5    1  0.1270889E+001  0.9139688E+02  0.7546771E-02  0.1299504E+00
         -2   -1    0    0    0  501 -0.00000000000E+00  0.00000000000E+00  0.17156597830E+02  0.17156597830E+02  0.00000000000E+00 0.  1.
          2   -1    0    0  501    0  0.00000000000E+00 -0.00000000000E+00 -0.12172269332E+03  0.12172269332E+03  0.00000000000E+00 0. -1.
         23    2    1    2    0    0  0.00000000000E+00  0.00000000000E+00 -0.10456609549E+03  0.13887929115E+03  0.91396877324E+02 0.  0.
        -11    1    3    3    0    0 -0.44105595288E+02 -0.75482900073E+01 -0.66379981658E+02  0.80053620672E+02  0.00000000000E+00 0. -1.
         11    1    3    3    0    0  0.44105595288E+02  0.75482900073E+01 -0.38186113834E+02  0.58825670481E+02  0.00000000000E+00 0.  1.
<mgrwt>
<rscale>  0 0.91396877E+02</rscale>
<asrwt>0</asrwt>
<pdfrwt beam="2">  1        2 0.18726569E-01 0.91396877E+02</pdfrwt>
<pdfrwt beam="1">  1       -2 0.26394765E-02 0.91396877E+02</pdfrwt>
<totfact> 0.12960203E+05</totfact>
</mgrwt>
</event>
<event>
 5    1  0.1270889E+001  0.9191274E+02  0.7546771E-02  0.1298285E+00
         -2   -1    0    0    0  501 -0.00000000000E+00  0.00000000000E+00  0.56904201395E+02  0.56904201395E+02  0.00000000000E+00 0.  1.
          2   -1    0    0  501    0  0.00000000000E+00 -0.00000000000E+00 -0.37114801976E+02  0.37114801976E+02  0.00000000000E+00 0. -1.
         23    2    1    2    0    0  0.00000000000E+00  0.00000000000E+00  0.19789399420E+02  0.94019003371E+02  0.91912744848E+02 0.  0.
        -11    1    3    3    0    0  0.72214109505E+01 -0.10664460073E+02 -0.35230948390E+02  0.37511321081E+02  0.00000000000E+00 0. -1.
         11    1    3    3    0    0 -0.72214109505E+01  0.10664460073E+02  0.55020347810E+02  0.56507682290E+02  0.00000000000E+00 0.  1.
<mgrwt>
<rscale>  0 0.91912745E+02</rscale>
<asrwt>0</asrwt>
<pdfrwt beam="2">  1        2 0.57099695E-02 0.91912745E+02</pdfrwt>
<pdfrwt beam="1">  1       -2 0.87544925E-02 0.91912745E+02</pdfrwt>
<totfact> 0.91386083E+04</totfact>
</mgrwt>
</event>
<event>
 5    1  0.1270889E+001  0.9241785E+02  0.7546771E-02  0.1297100E+00
         -3   -1    0    0    0  501 -0.00000000000E+00  0.00000000000E+00  0.19396229497E+03  0.19396229497E+03  0.00000000000E+00 0.  1.
          3   -1    0    0  501    0  0.00000000000E+00 -0.00000000000E+00 -0.11008659560E+02  0.11008659560E+02  0.00000000000E+00 0. -1.
         23    2    1    2    0    0  0.00000000000E+00  0.00000000000E+00  0.18295363541E+03  0.20497095453E+03  0.92417852662E+02 0.  0.
        -13    1    3    3    0    0 -0.67510181136E+01 -0.28656030918E+02  0.12484437819E+02  0.31978204158E+02  0.00000000000E+00 0. -1.
         13    1    3    3    0    0  0.67510181136E+01  0.28656030918E+02  0.17046919759E+03  0.17299275037E+03  0.00000000000E+00 0.  1.
<mgrwt>
<rscale>  0 0.92417853E+02</rscale>
<asrwt>0</asrwt>
<pdfrwt beam="2">  1        3 0.16936401E-02 0.92417853E+02</pdfrwt>
<pdfrwt beam="1">  1       -3 0.29840350E-01 0.92417853E+02</pdfrwt>
<totfact> 0.27228575E+04</totfact>
</mgrwt>
</event>
<event>
 5    1  0.1270889E+001  0.9293901E+02  0.7546771E-02  0.1295887E+00
         -4   -1    0    0    0  501 -0.00000000000E+00  0.00000000000E+00  0.19028580935E+02  0.19028580935E+02  0.00000000000E+00 0.  1.
          4   -1    0    0  501    0  0.00000000000E+00 -0.00000000000E+00 -0.11348270667E+03  0.11348270667E+03  0.00000000000E+00 0. -1.
         23    2    1    2    0    0  0.00000000000E+00  0.00000000000E+00 -0.94454125740E+02  0.13251128761E+03  0.92939009434E+02 0.  0.
        -11    1    3    3    0    0 -0.12253106587E+02  0.33773679589E+02 -0.89248262905E+02  0.96208380537E+02  0.00000000000E+00 0. -1.
         11    1    3    3    0    0  0.12253106587E+02 -0.33773679589E+02 -0.52058628346E+01  0.36302907072E+02  0.00000000000E+00 0.  1.
<mgrwt>
<rscale>  0 0.92939009E+02</rscale>
<asrwt>0</asrwt>
<pdfrwt beam="2">  1        4 0.17458878E-01 0.92939009E+02</pdfrwt>
<pdfrwt beam="1">  1       -4 0.29274740E-02 0.92939009E+02</pdfrwt>
<totfact> 0.23341470E+04</totfact>
</mgrwt>
</event>
<event>
 5    1  0.1270889E+001  0.9632894E+02  0.7546771E-02  0.1288211E+00
         -1   -1    0    0    0  501 -0.00000000000E+00  0.00000000000E+00  0.17253101567E+02  0.17253101567E+02  0.00000000000E+00 0.  1.
          1   -1    0    0  501    0  0.00000000000E+00 -0.00000000000E+00 -0.13445791849E+03  0.13445791849E+03  0.00000000000E+00 0. -1.
         23    2    1    2    0    0  0.00000000000E+00  0.00000000000E+00 -0.11720481692E+03  0.15171102005E+03  0.96328939041E+02 0.  0.
        -13    1    3    3    0    0 -0.24489409515E+02  0.32273397785E+02 -0.99626536128E+02  0.10754882651E+03  0.00000000000E+00 0. -1.
         13    1    3    3    0    0  0.24489409515E+02 -0.32273397785E+02 -0.17578280792E+02  0.44162193543E+02  0.00000000000E+00 0.  1.
<mgrwt>
<rscale>  0 0.96328939E+02</rscale>
<asrwt>0</asrwt>
<pdfrwt beam="2">  1        1 0.20685833E-01 0.96328939E+02</pdfrwt>
<pdfrwt beam="1">  1       -1 0.26543234E-02 0.96328939E+02</pdfrwt>
<totfact> 0.94684483E+04</totfact>
</mgrwt>
</event>
<event>
 5    1  0.1270889E+001  0.9010992E+02  0.7546771E-02  0.1302586E+00
         -2   -1    0    0    0  501 -0.00000000000E+00  0.00000000000E+00  0.41205178492E+02  0.41205178492E+02  0.00000000000E+00 0.  1.
          2   -1    0    0  501    0  0.00000000000E+00 -0.00000000000E+00 -0.49264421793E+02  0.49264421793E+02  0.00000000000E+00 0. -1.
         23    2    1    2    0    0  0.00000000000E+00  0.00000000000E+00 -0.80592433008E+01  0.90469600285E+02  0.90109917174E+02 0.  0.
        -13    1    3    3    0    0 -0.38872271319E+02  0.22356308233E+02  0.35717808646E+00  0.44844013776E+02  0.00000000000E+00 0. -1.
         13    1    3    3    0    0  0.38872271319E+02 -0.22356308233E+02 -0.84164213873E+01  0.45625586509E+02  0.00000000000E+00 0.  1.
<mgrwt>
<rscale>  0 0.90109917E+02</rscale>
<asrwt>0</asrwt>
<pdfrwt beam="2">  1        2 0.75791419E-02 0.90109917E+02</pdfrwt>
<pdfrwt beam="1">  1       -2 0.63392582E-02 0.90109917E+02</pdfrwt>
<totfact> 0.10412100E+05</totfact>
</mgrwt>
</event>
<event>
 5    1  0.1270889E+001  0.9031336E+02  0.7546771E-02  0.1302095E+00
         -3   -1    0    0    0  501 -0.00000000000E+00  0.00000000000E+00  0.23162522826E+02  0.23162522826E+02  0.00000000000E+00 0.  1.
          3   -1    0    0  501    0  0.00000000000E+00 -0.00000000000E+00 -0.88035559676E+02  0.88035559676E+02  0.00000000000E+00 0. -1.
         23    2    1    2    0    0  0.00000000000E+00  0.00000000000E+00 -0.64873036850E+02  0.11119808250E+03  0.90313358048E+02 0.  0.
        -13    1    3    3    0    0  0.35378069586E+02  0.25284978339E+01 -0.66848164849E+02  0.75674819145E+02  0.00000000000E+00 0. -1.
         13    1    3    3    0    0 -0.35378069586E+02 -0.25284978339E+01  0.19751279989E+01  0.35523263357E+02  0.00000000000E+00 0.  1.
<mgrwt>
<rscale>  0 0.90313358E+02</rscale>
<asrwt>0</asrwt>
<pdfrwt beam="2">  1        3 0.13543932E-01 0.90313358E+02</pdfrwt>
<pdfrwt beam="1">  1       -3 0.35634651E-02 0.90313358E+02</pdfrwt>
<totfact> 0.34745028E+04</totfact>
</mgrwt>
</event>
<event>
 5    1  0.1270889E+001  0.8945207E+02  0.7546771E-02  0.1304184E+00
          4   -1    0    0  501    0  0.00000000000E+00  0.00000000000E+00  0.29948864834E+02  0.29948864834E+02  0.00000000000E+00 0. -1.
         -4   -1    0    0    0  501 -0.00000000000E+00 -0.00000000000E+00 -0.66794464468E+02  0.66794464468E+02  0.00000000000E+00 0.  1.
         23    2    1    2    0    0  0.00000000000E+00  0.00000000000E+00 -0.36845599634E+02  0.96743329302E+02  0.89452074051E+02 0.  0.
        -11    1    3    3    0    0  0.16054018844E+02  0.41662190764E+02 -0.15571891439E+02  0.47285869595E+02  0.00000000000E+00 0. -1.
         11    1    3    3    0    0 -0.16054018844E+02 -0.41662190764E+02 -0.21273708196E+02  0.49457459708E+02  0.00000000000E+00 0.  1.
<mgrwt>
<rscale>  0 0.89452074E+02</rscale>
<asrwt>0</asrwt>
<pdfrwt beam="1">  1        4 0.46075177E-02 0.89452074E+02</pdfrwt>
<pdfrwt beam="2">  1       -4 0.10276071E-01 0.89452074E+02</pdfrwt>
<totfact> 0.28074185E+04</totfact>
</mgrwt>
</event>
<event>
 5    1  0.1270889E+001  0.9154281E+02  0.7546771E-02  0.1299158E+00
          1   -1    0    0  501    0  0.00000000000E+00  0.00000000000E+00  0.18754000627E+03  0.18754000627E+03  0.00000000000E+00 0. -1.
         -1   -1    0    0    0  501 -0.00000000000E+00 -0.00000000000E+00 -0.11171064799E+02  0.11171064799E+02  0.00000000000E+00 0.  1.
         23    2    1    2    0    0  0.00000000000E+00  0.00000000000E+00  0.17636894147E+03  0.19871107107E+03  0.91542811021E+02 0.  0.
        -13    1    3    3    0    0  0.33838671478E+01  0.45062151029E+02  0.10398338927E+03  0.11337809866E+03  0.00000000000E+00 0.  1.
         13    1    3    3    0    0 -0.33838671478E+01 -0.45062151029E+02  0.72385552201E+02  0.85332972406E+02  0.00000000000E+00 0. -1.
<mgrwt>
<rscale>  0 0.91542811E+02</rscale>
<asrwt>0</asrwt>
<pdfrwt beam="1">  1        1 0.28852306E-01 0.91542811E+02</pdfrwt>
<pdfrwt beam="2">  1       -1 0.17186255E-02 0.91542811E+02</pdfrwt>
<totfact> 0.11569096E+05</totfact>
</mgrwt>
</event>
<event>
 5    1  0.1270889E+001  0.9182551E+02  0.7546771E-02  0.1298490E+00
         -2   -1    0    0    0  501 -0.00000000000E+00  0.00000000000E+00  0.56130877877E+02  0.56130877877E+02  0.00000000000E+00 0.  1.
          2   -1    0    0  501    0  0.00000000000E+00 -0.00000000000E+00 -0.37554753635E+02  0.37554753635E+02  0.00000000000E+00 0. -1.
         23    2    1    2    0    0  0.00000000000E+00  0.00000000000E+00  0.18576124241E+02  0.93685631512E+02  0.91825514755E+02 0.  0.
        -13    1    3    3    0    0  0.29305062474E+02 -0.35299043620E+02  0.11105186359E+02  0.47203117812E+02  0.00000000000E+00 0.  1.
         13    1    3    3    0    0 -0.29305062474E+02  0.35299043620E+02  0.74709378825E+01  0.46482513701E+02  0.00000000000E+00 0. -1.
<mgrwt>
<rscale>  0 0.91825515E+02</rscale>
<asrwt>0</asrwt>
<pdfrwt beam="2">  1        2 0.57776544E-02 0.91825515E+02</pdfrwt>
<pdfrwt beam="1">  1       -2 0.86355197E-02 0.91825515E+02</pdfrwt>
<totfact> 0.91922327E+04</totfact>
</mgrwt>
</event>
<event>
 5    1  0.1270889E+001  0.9359080E+02  0.7546771E-02  0.1294382E+00
         -1   -1    0    0    0  501 -0.00000000000E+00  0.00000000000E+00  0.24822686480E+02  0.24822686480E+02  0.00000000000E+00 0.  1.
          1   -1    0    0  501    0  0.00000000000E+00 -0.00000000000E+00 -0.88218069339E+02  0.88218069339E+02  0.00000000000E+00 0. -1.
         23    2    1    2    0    0  0.00000000000E+00  0.00000000000E+00 -0.63395382859E+02  0.11304075582E+03  0.93590800339E+02 0.  0.
        -13    1    3    3    0    0  0.35738601275E+02 -0.68415032712E+01 -0.67236230318E+02  0.76451059218E+02  0.00000000000E+00 0. -1.
         13    1    3    3    0    0 -0.35738601275E+02  0.68415032712E+01  0.38408474589E+01  0.36589696601E+02  0.00000000000E+00 0.  1.
<mgrwt>
<rscale>  0 0.93590800E+02</rscale>
<asrwt>0</asrwt>
<pdfrwt beam="2">  1        1 0.13572011E-01 0.93590800E+02</pdfrwt>
<pdfrwt beam="1">  1       -1 0.38188748E-02 0.93590800E+02</pdfrwt>
<totfact> 0.95249491E+04</totfact>
</mgrwt>
</event>
<event>
 5    1  0.1270889E+001  0.9311769E+02  0.7546771E-02  0.1295473E+00
         -3   -1    0    0    0  501 -0.00000000000E+00  0.00000000000E+00  0.59120523358E+02  0.59120523358E+02  0.00000000000E+00 0.  1.
          3   -1    0    0  501    0  0.00000000000E+00 -0.00000000000E+00 -0.36666216574E+02  0.36666216574E+02  0.00000000000E+00 0. -1.
         23    2    1    2    0    0  0.00000000000E+00  0.00000000000E+00  0.22454306784E+02  0.95786739932E+02  0.93117687116E+02 0.  0.
        -13    1    3    3    0    0 -0.31894661724E+01 -0.16824219767E+02  0.55763624376E+02  0.58333599827E+02  0.00000000000E+00 0.  1.
         13    1    3    3    0    0  0.31894661724E+01  0.16824219767E+02 -0.33309317593E+02  0.37453140105E+02  0.00000000000E+00 0. -1.
<mgrwt>
<rscale>  0 0.93117687E+02</rscale>
<asrwt>0</asrwt>
<pdfrwt beam="2">  1        3 0.56409564E-02 0.93117687E+02</pdfrwt>
<pdfrwt beam="1">  1       -3 0.90954651E-02 0.93117687E+02</pdfrwt>
<totfact> 0.33032374E+04</totfact>
</mgrwt>
</event>
<event>
 5    1  0.1270889E+001  0.9034552E+02  0.7546771E-02  0.1302017E+00
          1   -1    0    0  501    0  0.00000000000E+00  0.00000000000E+00  0.21247713110E+03  0.21247713110E+03  0.00000000000E+00 0. -1.
         -1   -1    0    0    0  501 -0.00000000000E+00 -0.00000000000E+00 -0.96037551240E+01  0.96037551240E+01  0.00000000000E+00 0.  1.
         23    2    1    2    0    0  0.00000000000E+00  0.00000000000E+00  0.20287337598E+03  0.22208088622E+03  0.90345522004E+02 0.  0.
        -11    1    3    3    0    0 -0.28727382630E+02 -0.14343419565E+02  0.23332309719E+02  0.39691219110E+02  0.00000000000E+00 0.  1.
         11    1    3    3    0    0  0.28727382630E+02  0.14343419565E+02  0.17954106626E+03  0.18238966711E+03  0.00000000000E+00 0. -1.
<mgrwt>
<rscale>  0 0.90345522E+02</rscale>
<asrwt>0</asrwt>
<pdfrwt beam="1">  1        1 0.32688786E-01 0.90345522E+02</pdfrwt>
<pdfrwt beam="2">  1       -1 0.14775009E-02 0.90345522E+02</pdfrwt>
<totfact> 0.12278068E+05</totfact>
</mgrwt>
</event>
<event>
 5    1  0.1270889E+001  0.9038133E+02  0.7546771E-02  0.1301931E+00
         -1   -1    0    0    0  501 -0.00000000000E+00  0.00000000000E+00  0.72723711226E+01  0.72723711226E+01  0.00000000000E+00 0.  1.
          1   -1    0    0  501    0  0.00000000000E+00 -0.00000000000E+00 -0.28081574070E+03  0.28081574070E+03  0.00000000000E+00 0. -1.
         23    2    1    2    0    0  0.00000000000E+00  0.00000000000E+00 -0.27354336958E+03  0.28808811182E+03  0.90381331777E+02 0.  0.
        -13    1    3    3    0    0 -0.23686888020E+02 -0.37659700366E+02 -0.11149709149E+03  0.12004550431E+03  0.00000000000E+00 0.  1.
         13    1    3    3    0    0  0.23686888020E+02  0.37659700366E+02 -0.16204627809E+03  0.16804260751E+03  0.00000000000E+00 0. -1.
<mgrwt>
<rscale>  0 0.90381332E+02</rscale>
<asrwt>0</asrwt>
<pdfrwt beam="2">  1        1 0.43202419E-01 0.90381332E+02</pdfrwt>
<pdfrwt beam="1">  1       -1 0.11188264E-02 0.90381332E+02</pdfrwt>
<totfact> 0.12949303E+05</totfact>
</mgrwt>
</event>
<event>
 5    1  0.1270889E+001  0.9541076E+02  0.7546771E-02  0.1290254E+00
          2   -1    0    0  501    0  0.00000000000E+00  0.00000000000E+00  0.10126143412E+03  0.10126143412E+03  0.00000000000E+00 0.  1.
         -2   -1    0    0    0  501 -0.00000000000E+00 -0.00000000000E+00 -0.22474533480E+02  0.22474533480E+02  0.00000000000E+00 0. -1.
         23    2    1    2    0    0  0.00000000000E+00  0.00000000000E+00  0.78786900644E+02  0.12373596760E+03  0.95410764412E+02 0.  0.
        -11    1    3    3    0    0 -0.73823317113E+01 -0.35176055595E+02 -0.12869343136E+01  0.35965398769E+02  0.00000000000E+00 0. -1.
         11    1    3    3    0    0  0.73823317113E+01  0.35176055595E+02  0.80073834958E+02  0.87770568835E+02  0.00000000000E+00 0.  1.
<mgrwt>
<rscale>  0 0.95410764E+02</rscale>
<asrwt>0</asrwt>
<pdfrwt beam="1">  1        2 0.15578682E-01 0.95410764E+02</pdfrwt>
<pdfrwt beam="2">  1       -2 0.34576206E-02 0.95410764E+02</pdfrwt>
<totfact> 0.10863069E+05</totfact>
</mgrwt>
</event>
<event>
 5    1  0.1270889E+001  0.9583478E+02  0.7546771E-02  0.1289307E+00
          4   -1    0    0  501    0  0.00000000000E+00  0.00000000000E+00  0.21737747834E+02  0.21737747834E+02  0.00000000000E+00 0. -1.
         -4   -1    0    0    0  501 -0.00000000000E+00 -0.00000000000E+00 -0.10562622457E+03  0.10562622457E+03  0.00000000000E+00 0.  1.
         23    2    1    2    0    0  0.00000000000E+00  0.00000000000E+00 -0.83888476735E+02  0.12736397240E+03  0.95834779372E+02 0.  0.
        -13    1    3    3    0    0 -0.12769413235E+02  0.15516108679E+02 -0.99755819916E+02  0.10175967350E+03  0.00000000000E+00 0.  1.
         13    1    3    3    0    0  0.12769413235E+02 -0.15516108679E+02  0.15867343181E+02  0.25604298907E+02  0.00000000000E+00 0. -1.
<mgrwt>
<rscale>  0 0.95834779E+02</rscale>
<asrwt>0</asrwt>
<pdfrwt beam="1">  1        4 0.33442688E-02 0.95834779E+02</pdfrwt>
<pdfrwt beam="2">  1       -4 0.16250189E-01 0.95834779E+02</pdfrwt>
<totfact> 0.21718658E+04</totfact>
</mgrwt>
</event>
<event>
 5    1  0.1270889E+001  0.9149946E+02  0.7546771E-02  0.1299261E+00
         -2   -1    0    0    0  501 -0.00000000000E+00  0.00000000000E+00  0.73660681261E+01  0.73660681261E+01  0.00000000000E+00 0. -1.
          2   -1    0    0  501    0  0.00000000000E+00 -0.00000000000E+00 -0.28414584141E+03  0.28414584141E+03  0.00000000000E+00 0.  1.
         23    2    1    2    0    0  0.00000000000E+00  0.00000000000E+00 -0.27677977328E+03  0.29151190954E+03  0.91499456295E+02 0.  0.
        -13    1    3    3    0    0 -0.52735873015E+01 -0.44866922907E+02 -0.16140511777E+03  0.16760806525E+03  0.00000000000E+00 0.  1.
         13    1    3    3    0    0  0.52735873015E+01  0.44866922907E+02 -0.11537465551E+03  0.12390384429E+03  0.00000000000E+00 0. -1.
<mgrwt>
<rscale>  0 0.91499456E+02</rscale>
<asrwt>0</asrwt>
<pdfrwt beam="2">  1        2 0.43714738E-01 0.91499456E+02</pdfrwt>
<pdfrwt beam="1">  1       -2 0.11332414E-02 0.91499456E+02</pdfrwt>
<totfact> 0.17440544E+05</totfact>
</mgrwt>
</event>
<event>
 5    1  0.1270889E+001  0.8694452E+02  0.7546771E-02  0.1310424E+00
         -2   -1    0    0    0  501 -0.00000000000E+00  0.00000000000E+00  0.42297325388E+02  0.42297325388E+02  0.00000000000E+00 0.  1.
          2   -1    0    0  501    0  0.00000000000E+00 -0.00000000000E+00 -0.44679831120E+02  0.44679831120E+02  0.00000000000E+00 0. -1.
         23    2    1    2    0    0  0.00000000000E+00  0.00000000000E+00 -0.23825057326E+01  0.86977156508E+02  0.86944519210E+02 0.  0.
        -11    1    3    3    0    0 -0.23459435537E+02  0.21324578524E+02  0.28564737363E+02  0.42673492775E+02  0.00000000000E+00 0.  1.
         11    1    3    3    0    0  0.23459435537E+02 -0.21324578524E+02 -0.30947243096E+02  0.44303663733E+02  0.00000000000E+00 0. -1.
<mgrwt>
<rscale>  0 0.86944519E+02</rscale>
<asrwt>0</asrwt>
<pdfrwt beam="2">  1        2 0.68738201E-02 0.86944519E+02</pdfrwt>
<pdfrwt beam="1">  1       -2 0.65072809E-02 0.86944519E+02</pdfrwt>
<totfact> 0.11244062E+05</totfact>
</mgrwt>
</event>
<event>
 5    1  0.1270889E+001  0.9110768E+02  0.7546771E-02  0.1300191E+00
          1   -1    0    0  501    0  0.00000000000E+00  0.00000000000E+00  0.42034553302E+02  0.42034553302E+02  0.00000000000E+00 0. -1.
         -1   -1    0    0    0  501 -0.00000000000E+00 -0.00000000000E+00 -0.49367778850E+02  0.49367778850E+02  0.00000000000E+00 0.  1.
         23    2    1    2    0    0  0.00000000000E+00  0.00000000000E+00 -0.73332255476E+01  0.91402332152E+02  0.91107684231E+02 0.  0.
        -13    1    3    3    0    0  0.24031261086E+01  0.35262205416E+02 -0.32498980005E+02  0.48014392085E+02  0.00000000000E+00 0.  1.
         13    1    3    3    0    0 -0.24031261086E+01 -0.35262205416E+02  0.25165754458E+02  0.43387940067E+02  0.00000000000E+00 0. -1.
<mgrwt>
<rscale>  0 0.91107684E+02</rscale>
<asrwt>0</asrwt>
<pdfrwt beam="1">  1        1 0.64668544E-02 0.91107684E+02</pdfrwt>
<pdfrwt beam="2">  1       -1 0.75950429E-02 0.91107684E+02</pdfrwt>
<totfact> 0.91543681E+04</totfact>
</mgrwt>
</event>
<event>
 5    1  0.1270889E+001  0.9214870E+02  0.7546771E-02  0.1297730E+00
          2   -1    0    0  501    0  0.00000000000E+00  0.00000000000E+00  0.19734607430E+03  0.19734607430E+03  0.00000000000E+00 0. -1.
         -2   -1    0    0    0  501 -0.00000000000E+00 -0.00000000000E+00 -0.10756970310E+02  0.10756970310E+02  0.00000000000E+00 0.  1.
         23    2    1    2    0    0  0.00000000000E+00  0.00000000000E+00  0.18658910399E+03  0.20810304461E+03  0.92148702911E+02 0.  0.
        -11    1    3    3    0    0  0.39974622124E+02  0.21251581470E+02  0.11262226075E+03  0.12138110951E+03  0.00000000000E+00 0. -1.
         11    1    3    3    0    0 -0.39974622124E+02 -0.21251581470E+02  0.73966843237E+02  0.86721935099E+02  0.00000000000E+00 0.  1.
<mgrwt>
<rscale>  0 0.92148703E+02</rscale>
<asrwt>0</asrwt>
<pdfrwt beam="1">  1        2 0.30360932E-01 0.92148703E+02</pdfrwt>
<pdfrwt beam="2">  1       -2 0.16549187E-02 0.92148703E+02</pdfrwt>
<totfact> 0.14959537E+05</totfact>
</mgrwt>
</event>
<event>
 5    1  0.1270889E+001  0.9053087E+02  0.7546771E-02  0.1301571E+00
         -2   -1    0    0    0  501 -0.00000000000E+00  0.00000000000E+00  0.20876348682E+02  0.20876348682E+02  0.00000000000E+00 0.  1.
          2   -1    0    0  501    0  0.00000000000E+00 -0.00000000000E+00 -0.98147417317E+02  0.98147417317E+02  0.00000000000E+00 0. -1.
         23    2    1    2    0    0  0.00000000000E+00  0.00000000000E+00 -0.77271068635E+02  0.11902376600E+03  0.90530872219E+02 0.  0.
        -11    1    3    3    0    0  0.37141623357E+02 -0.47264368956E+01 -0.72080403364E+02  0.81224527948E+02  0.00000000000E+00 0. -1.
         11    1    3    3    0    0 -0.37141623357E+02  0.47264368956E+01 -0.51906652707E+01  0.37799238051E+02  0.00000000000E+00 0.  1.
<mgrwt>
<rscale>  0 0.90530872E+02</rscale>
<asrwt>0</asrwt>
<pdfrwt beam="2">  1        2 0.15099603E-01 0.90530872E+02</pdfrwt>
<pdfrwt beam="1">  1       -2 0.32117460E-02 0.90530872E+02</pdfrwt>
<totfact> 0.12439184E+05</totfact>
</mgrwt>
</event>
<event>
 5    1  0.1270889E+001  0.9411224E+02  0.7546771E-02  0.1293188E+00
          2   -1    0    0  501    0  0.00000000000E+00  0.00000000000E+00  0.93423039672E+02  0.93423039672E+02  0.00000000000E+00 0.  1.
         -2   -1    0    0    0  501 -0.00000000000E+00 -0.00000000000E+00 -0.23701631269E+02  0.23701631269E+02  0.00000000000E+00 0. -1.
         23    2    1    2    0    0  0.00000000000E+00  0.00000000000E+00  0.69721408403E+02  0.11712467094E+03  0.94112240189E+02 0.  0.
        -13    1    3    3    0    0  0.43580181412E+02  0.10160491916E+01  0.56914161777E+02  0.71690211178E+02  0.00000000000E+00 0. -1.
         13    1    3    3    0    0 -0.43580181412E+02 -0.10160491916E+01  0.12807246625E+02  0.45434459763E+02  0.00000000000E+00 0.  1.
<mgrwt>
<rscale>  0 0.94112240E+02</rscale>
<asrwt>0</asrwt>
<pdfrwt beam="1">  1        2 0.14372775E-01 0.94112240E+02</pdfrwt>
<pdfrwt beam="2">  1       -2 0.36464049E-02 0.94112240E+02</pdfrwt>
<totfact> 0.11008668E+05</totfact>
</mgrwt>
</event>
<event>
 5    1  0.1270889E+001  0.9030472E+02  0.7546771E-02  0.1302115E+00
         -2   -1    0    0    0  501 -0.00000000000E+00  0.00000000000E+00  0.94236261868E+02  0.94236261868E+02  0.00000000000E+00 0.  1.
          2   -1    0    0  501    0  0.00000000000E+00 -0.00000000000E+00 -0.21634299957E+02  0.21634299957E+02  0.00000000000E+00 0. -1.
         23    2    1    2    0    0  0.00000000000E+00  0.00000000000E+00  0.72601961911E+02  0.11587056182E+03  0.90304718726E+02 0.  0.
        -13    1    3    3    0    0 -0.38934016087E+02  0.45513238452E+01  0.65054115463E+02  0.75951366650E+02  0.00000000000E+00 0.  1.
         13    1    3    3    0    0  0.38934016087E+02 -0.45513238452E+01  0.75478464489E+01  0.39919195175E+02  0.00000000000E+00 0. -1.
<mgrwt>
<rscale>  0 0.90304719E+02</rscale>
<asrwt>0</asrwt>
<pdfrwt beam="2">  1        2 0.33283539E-02 0.90304719E+02</pdfrwt>
<pdfrwt beam="1">  1       -2 0.14497886E-01 0.90304719E+02</pdfrwt>
<totfact> 0.83174536E+04</totfact>
</mgrwt>
</event>
<event>
 5    1  0.1270889E+001  0.8548326E+02  0.7546771E-02  0.1314174E+00
          3   -1    0    0  501    0  0.00000000000E+00  0.00000000000E+00  0.74896634435E+02  0.74896634435E+02  0.00000000000E+00 0. -1.
         -3   -1    0    0    0  501 -0.00000000000E+00 -0.00000000000E+00 -0.24391577759E+02  0.24391577759E+02  0.00000000000E+00 0.  1.
         23    2    1    2    0    0  0.00000000000E+00  0.00000000000E+00  0.50505056676E+02  0.99288212194E+02  0.85483263455E+02 0.  0.
        -13    1    3    3    0    0  0.46518590977E+01  0.42472418441E+02  0.23927732946E+02  0.48970220800E+02  0.00000000000E+00 0.  1.
         13    1    3    3    0    0 -0.46518590977E+01 -0.42472418441E+02  0.26577323730E+02  0.50317991394E+02  0.00000000000E+00 0. -1.
<mgrwt>
<rscale>  0 0.85483263E+02</rscale>
<asrwt>0</asrwt>
<pdfrwt beam="1">  1        3 0.11522559E-01 0.85483263E+02</pdfrwt>
<pdfrwt beam="2">  1       -3 0.37525504E-02 0.85483263E+02</pdfrwt>
<totfact> 0.41347431E+04</totfact>
</mgrwt>
</event>
<event>
 5    1  0.1270889E+001  0.9294064E+02  0.7546771E-02  0.1295883E+00
         -1   -1    0    0    0  501 -0.00000000000E+00  0.00000000000E+00  0.10828555875E+02  0.10828555875E+02  0.00000000000E+00 0.  1.
          1   -1    0    0  501    0  0.00000000000E+00 -0.00000000000E+00 -0.19942555171E+03  0.19942555171E+03  0.00000000000E+00 0. -1.
         23    2    1    2    0    0  0.00000000000E+00  0.00000000000E+00 -0.18859699583E+03  0.21025410758E+03  0.92940641908E+02 0.  0.
        -11    1    3    3    0    0 -0.16349696148E+02 -0.38327267764E+02 -0.47760147048E+02  0.63382360830E+02  0.00000000000E+00 0.  1.
         11    1    3    3    0    0  0.16349696148E+02  0.38327267764E+02 -0.14083684878E+03  0.14687174675E+03  0.00000000000E+00 0. -1.
<mgrwt>
<rscale>  0 0.92940642E+02</rscale>
<asrwt>0</asrwt>
<pdfrwt beam="2">  1        1 0.30680854E-01 0.92940642E+02</pdfrwt>
<pdfrwt beam="1">  1       -1 0.16659317E-02 0.92940642E+02</pdfrwt>
<totfact> 0.11240198E+05</totfact>
</mgrwt>
</event>
<event>
 5    1  0.1270889E+001  0.9067146E+02  0.7546771E-02  0.1301234E+00
          1   -1    0    0  501    0  0.00000000000E+00  0.00000000000E+00  0.99358133028E+02  0.99358133028E+02  0.00000000000E+00 0. -1.
         -1   -1    0    0    0  501 -0.00000000000E+00 -0.00000000000E+00 -0.20686059090E+02  0.20686059090E+02  0.00000000000E+00 0.  1.
         23    2    1    2    0    0  0.00000000000E+00  0.00000000000E+00  0.78672073938E+02  0.12004419212E+03  0.90671455505E+02 0.  0.
        -13    1    3    3    0    0 -0.30826293986E+02  0.30736446843E+02  0.22571573030E+02  0.49035349234E+02  0.00000000000E+00 0.  1.
         13    1    3    3    0    0  0.30826293986E+02 -0.30736446843E+02  0.56100500909E+02  0.71008842884E+02  0.00000000000E+00 0. -1.
<mgrwt>
<rscale>  0 0.90671456E+02</rscale>
<asrwt>0</asrwt>
<pdfrwt beam="1">  1        1 0.15285866E-01 0.90671456E+02</pdfrwt>
<pdfrwt beam="2">  1       -1 0.31824707E-02 0.90671456E+02</pdfrwt>
<totfact> 0.10593213E+05</totfact>
</mgrwt>
</event>
<event>
 5    1  0.1270889E+001  0.8694149E+02  0.7546771E-02  0.1310432E+00
         -1   -1    0    0    0  501 -0.00000000000E+00  0.00000000000E+00  0.11352370750E+02  0.11352370750E+02  0.00000000000E+00 0.  1.
          1   -1    0    0  501    0  0.00000000000E+00 -0.00000000000E+00 -0.16645913507E+03  0.16645913507E+03  0.00000000000E+00 0. -1.
         23    2    1    2    0    0  0.00000000000E+00  0.00000000000E+00 -0.15510676431E+03  0.17781150582E+03  0.86941493339E+02 0.  0.
        -11    1    3    3    0    0 -0.26764527167E+02  0.84328866968E+01 -0.14545392961E+03  0.14813608315E+03  0.00000000000E+00 0. -1.
         11    1    3    3    0    0  0.26764527167E+02 -0.84328866968E+01 -0.96528347082E+01  0.29675422667E+02  0.00000000000E+00 0.  1.
<mgrwt>
<rscale>  0 0.86941493E+02</rscale>
<asrwt>0</asrwt>
<pdfrwt beam="2">  1        1 0.25609097E-01 0.86941493E+02</pdfrwt>
<pdfrwt beam="1">  1       -1 0.17465186E-02 0.86941493E+02</pdfrwt>
<totfact> 0.12987927E+05</totfact>
</mgrwt>
</event>
<event>
 5    1  0.1270889E+001  0.8871236E+02  0.7546771E-02  0.1306000E+00
         -1   -1    0    0    0  501 -0.00000000000E+00  0.00000000000E+00  0.39543542960E+03  0.39543542960E+03  0.00000000000E+00 0.  1.
          1   -1    0    0  501    0  0.00000000000E+00 -0.00000000000E+00 -0.49754541613E+01  0.49754541613E+01  0.00000000000E+00 0. -1.
         23    2    1    2    0    0  0.00000000000E+00  0.00000000000E+00  0.39045997543E+03  0.40041088376E+03  0.88712363370E+02 0.  0.
        -11    1    3    3    0    0 -0.12146230455E+02 -0.42219019569E+02  0.22286785328E+03  0.22715645831E+03  0.00000000000E+00 0.  1.
         11    1    3    3    0    0  0.12146230455E+02  0.42219019569E+02  0.16759212215E+03  0.17325442544E+03  0.00000000000E+00 0. -1.
<mgrwt>
<rscale>  0 0.88712363E+02</rscale>
<asrwt>0</asrwt>
<pdfrwt beam="2">  1        1 0.76545480E-03 0.88712363E+02</pdfrwt>
<pdfrwt beam="1">  1       -1 0.60836195E-01 0.88712363E+02</pdfrwt>
<totfact> 0.57581232E+04</totfact>
</mgrwt>
</event>
<event>
 5    1  0.1270889E+001  0.9284617E+02  0.7546771E-02  0.1296102E+00
         -2   -1    0    0    0  501 -0.00000000000E+00  0.00000000000E+00  0.30176416685E+03  0.30176416685E+03  0.00000000000E+00 0.  1.
          2   -1    0    0  501    0  0.00000000000E+00 -0.00000000000E+00 -0.71416797638E+01  0.71416797638E+01  0.00000000000E+00 0. -1.
         23    2    1    2    0    0  0.00000000000E+00  0.00000000000E+00  0.29462248709E+03  0.30890584662E+03  0.92846174802E+02 0.  0.
        -11    1    3    3    0    0 -0.43528875078E+02  0.84884850677E+01  0.19296439691E+03  0.19799514090E+03  0.00000000000E+00 0.  1.
         11    1    3    3    0    0  0.43528875078E+02 -0.84884850677E+01  0.10165809018E+03  0.11091070572E+03  0.00000000000E+00 0. -1.
<mgrwt>
<rscale>  0 0.92846175E+02</rscale>
<asrwt>0</asrwt>
<pdfrwt beam="2">  1        2 0.10987202E-02 0.92846175E+02</pdfrwt>
<pdfrwt beam="1">  1       -2 0.46425247E-01 0.92846175E+02</pdfrwt>
<totfact> 0.48509943E+04</totfact>
</mgrwt>
</event>
<event>
 5    1  0.1270889E+001  0.1000118E+03  0.7546771E-02  0.1280271E+00
         -2   -1    0    0    0  501 -0.00000000000E+00  0.00000000000E+00  0.52957344348E+02  0.52957344348E+02  0.00000000000E+00 0.  1.
          2   -1    0    0  501    0  0.00000000000E+00 -0.00000000000E+00 -0.47218905436E+02  0.47218905436E+02  0.00000000000E+00 0. -1.
         23    2    1    2    0    0  0.00000000000E+00  0.00000000000E+00  0.57384389118E+01  0.10017624978E+03  0.10001175601E+03 0.  0.
        -13    1    3    3    0    0  0.40887424242E+02  0.28598556252E+02 -0.44211475812E+00  0.49898440319E+02  0.00000000000E+00 0.  1.
         13    1    3    3    0    0 -0.40887424242E+02 -0.28598556252E+02  0.61805536700E+01  0.50277809464E+02  0.00000000000E+00 0. -1.
<mgrwt>
<rscale>  0 0.10001176E+03</rscale>
<asrwt>0</asrwt>
<pdfrwt beam="2">  1        2 0.72644470E-02 0.10001176E+03</pdfrwt>
<pdfrwt beam="1">  1       -2 0.81472838E-02 0.10001176E+03</pdfrwt>
<totfact> 0.76207277E+04</totfact>
</mgrwt>
</event>
<event>
 5    1  0.1270889E+001  0.8434296E+02  0.7546771E-02  0.1317160E+00
          1   -1    0    0  501    0  0.00000000000E+00  0.00000000000E+00  0.12869398190E+03  0.12869398190E+03  0.00000000000E+00 0. -1.
         -1   -1    0    0    0  501 -0.00000000000E+00 -0.00000000000E+00 -0.13819091459E+02  0.13819091459E+02  0.00000000000E+00 0.  1.
         23    2    1    2    0    0  0.00000000000E+00  0.00000000000E+00  0.11487489044E+03  0.14251307336E+03  0.84342964284E+02 0.  0.
        -13    1    3    3    0    0  0.30485089003E+02  0.22753703423E+02  0.88195392692E+02  0.96049461024E+02  0.00000000000E+00 0. -1.
         13    1    3    3    0    0 -0.30485089003E+02 -0.22753703423E+02  0.26679497746E+02  0.46463612332E+02  0.00000000000E+00 0.  1.
<mgrwt>
<rscale>  0 0.84342964E+02</rscale>
<asrwt>0</asrwt>
<pdfrwt beam="1">  1        1 0.19799073E-01 0.84342964E+02</pdfrwt>
<pdfrwt beam="2">  1       -1 0.21260142E-02 0.84342964E+02</pdfrwt>
<totfact> 0.13453251E+05</totfact>
</mgrwt>
</event>
<event>
 5    1  0.1270889E+001  0.9329082E+02  0.7546771E-02  0.1295073E+00
         -2   -1    0    0    0  501 -0.00000000000E+00  0.00000000000E+00  0.29896325612E+03  0.29896325612E+03  0.00000000000E+00 0.  1.
          2   -1    0    0  501    0  0.00000000000E+00 -0.00000000000E+00 -0.72777976852E+01  0.72777976852E+01  0.00000000000E+00 0. -1.
         23    2    1    2    0    0  0.00000000000E+00  0.00000000000E+00  0.29168545844E+03  0.30624105381E+03  0.93290816126E+02 0.  0.
        -11    1    3    3    0    0  0.41611944881E+02  0.11532482696E+02  0.20375540115E+03  0.20828061746E+03  0.00000000000E+00 0.  1.
         11    1    3    3    0    0 -0.41611944881E+02 -0.11532482696E+02  0.87930057290E+02  0.97960436345E+02  0.00000000000E+00 0. -1.
<mgrwt>
<rscale>  0 0.93290816E+02</rscale>
<asrwt>0</asrwt>
<pdfrwt beam="2">  1        2 0.11196614E-02 0.93290816E+02</pdfrwt>
<pdfrwt beam="1">  1       -2 0.45994338E-01 0.93290816E+02</pdfrwt>
<totfact> 0.48168339E+04</totfact>
</mgrwt>
</event>
<event>
 5    1  0.1270889E+001  0.9111387E+02  0.7546771E-02  0.1300177E+00
          1   -1    0    0  501    0  0.00000000000E+00  0.00000000000E+00  0.17725905505E+03  0.17725905505E+03  0.00000000000E+00 0. -1.
         -1   -1    0    0    0  501 -0.00000000000E+00 -0.00000000000E+00 -0.11708481162E+02  0.11708481162E+02  0.00000000000E+00 0.  1.
         23    2    1    2    0    0  0.00000000000E+00  0.00000000000E+00  0.16555057389E+03  0.18896753621E+03  0.91113869566E+02 0.  0.
        -13    1    3    3    0    0  0.41763007911E+02  0.87311501581E+01  0.49653214962E+02  0.65466201730E+02  0.00000000000E+00 0.  1.
         13    1    3    3    0    0 -0.41763007911E+02 -0.87311501581E+01  0.11589735893E+03  0.12350133448E+03  0.00000000000E+00 0. -1.
<mgrwt>
<rscale>  0 0.91113870E+02</rscale>
<asrwt>0</asrwt>
<pdfrwt beam="1">  1        1 0.27270622E-01 0.91113870E+02</pdfrwt>
<pdfrwt beam="2">  1       -1 0.18013049E-02 0.91113870E+02</pdfrwt>
<totfact> 0.11590175E+05</totfact>
</mgrwt>
</event>
<event>
 5    1  0.1270889E+001  0.8953966E+02  0.7546771E-02  0.1303970E+00
          1   -1    0    0  501    0  0.00000000000E+00  0.00000000000E+00  0.14319685976E+03  0.14319685976E+03  0.00000000000E+00 0. -1.
         -1   -1    0    0    0  501 -0.00000000000E+00 -0.00000000000E+00 -0.13997079822E+02  0.13997079822E+02  0.00000000000E+00 0.  1.
         23    2    1    2    0    0  0.00000000000E+00  0.00000000000E+00  0.12919977994E+03  0.15719393958E+03  0.89539664424E+02 0.  0.
        -13    1    3    3    0    0 -0.44028648387E+02  0.79422934779E+01  0.61696026815E+02  0.76210246222E+02  0.00000000000E+00 0.  1.
         13    1    3    3    0    0  0.44028648387E+02 -0.79422934779E+01  0.67503753123E+02  0.80983693359E+02  0.00000000000E+00 0. -1.
<mgrwt>
<rscale>  0 0.89539664E+02</rscale>
<asrwt>0</asrwt>
<pdfrwt beam="1">  1        1 0.22030285E-01 0.89539664E+02</pdfrwt>
<pdfrwt beam="2">  1       -1 0.21533970E-02 0.89539664E+02</pdfrwt>
<totfact> 0.11675043E+05</totfact>
</mgrwt>
</event>
<event>
 5    1  0.1270889E+001  0.9456784E+02  0.7546771E-02  0.1292152E+00
         -2   -1    0    0    0  501 -0.00000000000E+00  0.00000000000E+00  0.84551635369E+02  0.84551635369E+02  0.00000000000E+00 0.  1.
          2   -1    0    0  501    0  0.00000000000E+00 -0.00000000000E+00 -0.26442645370E+02  0.26442645370E+02  0.00000000000E+00 0. -1.
         23    2    1    2    0    0  0.00000000000E+00  0.00000000000E+00  0.58108989999E+02  0.11099428074E+03  0.94567836171E+02 0.  0.
        -11    1    3    3    0    0 -0.43466797099E+02 -0.10533501140E+02  0.47064265097E+02  0.64925820330E+02  0.00000000000E+00 0.  1.
         11    1    3    3    0    0  0.43466797099E+02  0.10533501140E+02  0.11044724902E+02  0.46068460409E+02  0.00000000000E+00 0. -1.
<mgrwt>
<rscale>  0 0.94567836E+02</rscale>
<asrwt>0</asrwt>
<pdfrwt beam="2">  1        2 0.40680993E-02 0.94567836E+02</pdfrwt>
<pdfrwt beam="1">  1       -2 0.13007944E-01 0.94567836E+02</pdfrwt>
<totfact> 0.76563999E+04</totfact>
</mgrwt>
</event>
<event>
 5    1  0.1270889E+001  0.8616351E+02  0.7546771E-02  0.1312418E+00
          2   -1    0    0  501    0  0.00000000000E+00  0.00000000000E+00  0.74977939242E+02  0.74977939242E+02  0.00000000000E+00 0. -1.
         -2   -1    0    0    0  501 -0.00000000000E+00 -0.00000000000E+00 -0.24754448832E+02  0.24754448832E+02  0.00000000000E+00 0.  1.
         23    2    1    2    0    0  0.00000000000E+00  0.00000000000E+00  0.50223490409E+02  0.99732388074E+02  0.86163508761E+02 0.  0.
        -13    1    3    3    0    0 -0.27205238301E+02 -0.43658282150E+01  0.63445987227E+02  0.69170649427E+02  0.00000000000E+00 0. -1.
         13    1    3    3    0    0  0.27205238301E+02  0.43658282150E+01 -0.13222496817E+02  0.30561738646E+02  0.00000000000E+00 0.  1.
<mgrwt>
<rscale>  0 0.86163509E+02</rscale>
<asrwt>0</asrwt>
<pdfrwt beam="1">  1        2 0.11535067E-01 0.86163509E+02</pdfrwt>
<pdfrwt beam="2">  1       -2 0.38083768E-02 0.86163509E+02</pdfrwt>
<totfact> 0.13190703E+05</totfact>
</mgrwt>
</event>
<event>
 5    1  0.1270889E+001  0.8933994E+02  0.7546771E-02  0.1304458E+00
          1   -1    0    0  501    0  0.00000000000E+00  0.00000000000E+00  0.22639955872E+03  0.22639955872E+03  0.00000000000E+00 0. -1.
         -1   -1    0    0    0  501 -0.00000000000E+00 -0.00000000000E+00 -0.88136491677E+01  0.88136491677E+01  0.00000000000E+00 0.  1.
         23    2    1    2    0    0  0.00000000000E+00  0.00000000000E+00  0.21758590955E+03  0.23521320789E+03  0.89339941398E+02 0.  0.
        -11    1    3    3    0    0 -0.39518845990E+02  0.18964306860E+02  0.13144445216E+03  0.13856055761E+03  0.00000000000E+00 0.  1.
         11    1    3    3    0    0  0.39518845990E+02 -0.18964306860E+02  0.86141457394E+02  0.96652650274E+02  0.00000000000E+00 0. -1.
<mgrwt>
<rscale>  0 0.89339941E+02</rscale>
<asrwt>0</asrwt>
<pdfrwt beam="1">  1        1 0.34830697E-01 0.89339941E+02</pdfrwt>
<pdfrwt beam="2">  1       -1 0.13559462E-02 0.89339941E+02</pdfrwt>
<totfact> 0.12807793E+05</totfact>
</mgrwt>
</event>
<event>
 5    1  0.1270889E+001  0.7534115E+02  0.7546771E-02  0.1342818E+00
         -1   -1    0    0    0  501 -0.00000000000E+00  0.00000000000E+00  0.10308009467E+02  0.10308009467E+02  0.00000000000E+00 0.  1.
          1   -1    0    0  501    0  0.00000000000E+00 -0.00000000000E+00 -0.13766694163E+03  0.13766694163E+03  0.00000000000E+00 0. -1.
         23    2    1    2    0    0  0.00000000000E+00  0.00000000000E+00 -0.12735893217E+03  0.14797495110E+03  0.75341147792E+02 0.  0.
        -13    1    3    3    0    0 -0.25935546086E+02 -0.27300529997E+02 -0.61618929384E+02  0.72214014896E+02  0.00000000000E+00 0.  1.
         13    1    3    3    0    0  0.25935546086E+02  0.27300529997E+02 -0.65740002784E+02  0.75760936206E+02  0.00000000000E+00 0. -1.
<mgrwt>
<rscale>  0 0.75341148E+02</rscale>
<asrwt>0</asrwt>
<pdfrwt beam="2">  1        1 0.21179530E-01 0.75341148E+02</pdfrwt>
<pdfrwt beam="1">  1       -1 0.15858476E-02 0.75341148E+02</pdfrwt>
<totfact> 0.18378328E+05</totfact>
</mgrwt>
</event>
<event>
 5    1  0.1270889E+001  0.7622190E+02  0.7546771E-02  0.1340128E+00
         -1   -1    0    0    0  501 -0.00000000000E+00  0.00000000000E+00  0.12701040022E+03  0.12701040022E+03  0.00000000000E+00 0.  1.
          1   -1    0    0  501    0  0.00000000000E+00 -0.00000000000E+00 -0.11435635268E+02  0.11435635268E+02  0.00000000000E+00 0. -1.
         23    2    1    2    0    0  0.00000000000E+00  0.00000000000E+00  0.11557476495E+03  0.13844603549E+03  0.76221902683E+02 0.  0.
        -13    1    3    3    0    0  0.32313340903E+02 -0.19529643136E+02  0.67205432985E+02  0.77085207297E+02  0.00000000000E+00 0. -1.
         13    1    3    3    0    0 -0.32313340903E+02  0.19529643136E+02  0.48369331970E+02  0.61360828194E+02  0.00000000000E+00 0.  1.
<mgrwt>
<rscale>  0 0.76221903E+02</rscale>
<asrwt>0</asrwt>
<pdfrwt beam="2">  1        1 0.17593286E-02 0.76221903E+02</pdfrwt>
<pdfrwt beam="1">  1       -1 0.19540061E-01 0.76221903E+02</pdfrwt>
<totfact> 0.12311618E+05</totfact>
</mgrwt>
</event>
<event>
 5    1  0.1270889E+001  0.8952276E+02  0.7546771E-02  0.1304012E+00
         -2   -1    0    0    0  501 -0.00000000000E+00  0.00000000000E+00  0.81277681756E+02  0.81277681756E+02  0.00000000000E+00 0.  1.
          2   -1    0    0  501    0  0.00000000000E+00 -0.00000000000E+00 -0.24651062160E+02  0.24651062160E+02  0.00000000000E+00 0. -1.
         23    2    1    2    0    0  0.00000000000E+00  0.00000000000E+00  0.56626619596E+02  0.10592874392E+03  0.89522761020E+02 0.  0.
        -11    1    3    3    0    0 -0.25271421604E+02  0.12724230579E+02 -0.12727758213E+02  0.31024935501E+02  0.00000000000E+00 0. -1.
         11    1    3    3    0    0  0.25271421604E+02 -0.12724230579E+02  0.69354377809E+02  0.74903808415E+02  0.00000000000E+00 0.  1.
<mgrwt>
<rscale>  0 0.89522761E+02</rscale>
<asrwt>0</asrwt>
<pdfrwt beam="2">  1        2 0.37924711E-02 0.89522761E+02</pdfrwt>
<pdfrwt beam="1">  1       -2 0.12504259E-01 0.89522761E+02</pdfrwt>
<totfact> 0.88605240E+04</totfact>
</mgrwt>
</event>
<event>
 5    1  0.1270889E+001  0.9211219E+02  0.7546771E-02  0.1297816E+00
         -1   -1    0    0    0  501 -0.00000000000E+00  0.00000000000E+00  0.34079090524E+03  0.34079090524E+03  0.00000000000E+00 0.  1.
          1   -1    0    0  501    0  0.00000000000E+00 -0.00000000000E+00 -0.62242391383E+01  0.62242391383E+01  0.00000000000E+00 0. -1.
         23    2    1    2    0    0  0.00000000000E+00  0.00000000000E+00  0.33456666611E+03  0.34701514438E+03  0.92112194424E+02 0.  0.
        -13    1    3    3    0    0 -0.35095655934E+02 -0.29051665986E+02  0.14188268962E+03  0.14901812633E+03  0.00000000000E+00 0.  1.
         13    1    3    3    0    0  0.35095655934E+02  0.29051665986E+02  0.19268397649E+03  0.19799701805E+03  0.00000000000E+00 0. -1.
<mgrwt>
<rscale>  0 0.92112194E+02</rscale>
<asrwt>0</asrwt>
<pdfrwt beam="2">  1        1 0.95757551E-03 0.92112194E+02</pdfrwt>
<pdfrwt beam="1">  1       -1 0.52429356E-01 0.92112194E+02</pdfrwt>
<totfact> 0.55945690E+04</totfact>
</mgrwt>
</event>
<event>
 5    1  0.1270889E+001  0.7815371E+02  0.7546771E-02  0.1334374E+00
          4   -1    0    0  501    0  0.00000000000E+00  0.00000000000E+00  0.44344880492E+02  0.44344880492E+02  0.00000000000E+00 0.  1.
         -4   -1    0    0    0  501 -0.00000000000E+00 -0.00000000000E+00 -0.34434657293E+02  0.34434657293E+02  0.00000000000E+00 0. -1.
         23    2    1    2    0    0  0.00000000000E+00  0.00000000000E+00  0.99102231983E+01  0.78779537785E+02  0.78153714242E+02 0.  0.
        -13    1    3    3    0    0  0.23166387278E+02 -0.68372215028E+01  0.35918697535E+02  0.43284892630E+02  0.00000000000E+00 0.  1.
         13    1    3    3    0    0 -0.23166387278E+02  0.68372215028E+01 -0.26008474337E+02  0.35494645155E+02  0.00000000000E+00 0. -1.
<mgrwt>
<rscale>  0 0.78153714E+02</rscale>
<asrwt>0</asrwt>
<pdfrwt beam="1">  1        4 0.68222893E-02 0.78153714E+02</pdfrwt>
<pdfrwt beam="2">  1       -4 0.52976396E-02 0.78153714E+02</pdfrwt>
<totfact> 0.42135495E+04</totfact>
</mgrwt>
</event>
<event>
 5    1  0.1270889E+001  0.9063647E+02  0.7546771E-02  0.1301318E+00
         -3   -1    0    0    0  501 -0.00000000000E+00  0.00000000000E+00  0.85896031834E+02  0.85896031834E+02  0.00000000000E+00 0.  1.
          3   -1    0    0  501    0  0.00000000000E+00 -0.00000000000E+00 -0.23909629047E+02  0.23909629047E+02  0.00000000000E+00 0. -1.
         23    2    1    2    0    0  0.00000000000E+00  0.00000000000E+00  0.61986402787E+02  0.10980566088E+03  0.90636466342E+02 0.  0.
        -13    1    3    3    0    0 -0.28588178949E+02  0.15064486649E+02  0.69485967976E+02  0.76632385316E+02  0.00000000000E+00 0.  1.
         13    1    3    3    0    0  0.28588178949E+02 -0.15064486649E+02 -0.74995651896E+01  0.33173275565E+02  0.00000000000E+00 0. -1.
<mgrwt>
<rscale>  0 0.90636466E+02</rscale>
<asrwt>0</asrwt>
<pdfrwt beam="2">  1        3 0.36784045E-02 0.90636466E+02</pdfrwt>
<pdfrwt beam="1">  1       -3 0.13214774E-01 0.90636466E+02</pdfrwt>
<totfact> 0.34512834E+04</totfact>
</mgrwt>
</event>
<event>
 5    1  0.1270889E+001  0.9020721E+02  0.7546771E-02  0.1302351E+00
         -2   -1    0    0    0  501 -0.00000000000E+00  0.00000000000E+00  0.15401569856E+02  0.15401569856E+02  0.00000000000E+00 0.  1.
          2   -1    0    0  501    0  0.00000000000E+00 -0.00000000000E+00 -0.13208622649E+03  0.13208622649E+03  0.00000000000E+00 0. -1.
         23    2    1    2    0    0  0.00000000000E+00  0.00000000000E+00 -0.11668465663E+03  0.14748779634E+03  0.90207211337E+02 0.  0.
        -13    1    3    3    0    0  0.23291886283E+02 -0.38420547144E+02 -0.51867104190E+02  0.68621038367E+02  0.00000000000E+00 0.  1.
         13    1    3    3    0    0 -0.23291886283E+02  0.38420547144E+02 -0.64817552441E+02  0.78866757977E+02  0.00000000000E+00 0. -1.
<mgrwt>
<rscale>  0 0.90207211E+02</rscale>
<asrwt>0</asrwt>
<pdfrwt beam="2">  1        2 0.20320958E-01 0.90207211E+02</pdfrwt>
<pdfrwt beam="1">  1       -2 0.23694723E-02 0.90207211E+02</pdfrwt>
<totfact> 0.13793570E+05</totfact>
</mgrwt>
</event>
<event>
 5    1  0.1270889E+001  0.8334846E+02  0.7546771E-02  0.1319809E+00
          4   -1    0    0  501    0  0.00000000000E+00  0.00000000000E+00  0.17643338242E+02  0.17643338242E+02  0.00000000000E+00 0.  1.
         -4   -1    0    0    0  501 -0.00000000000E+00 -0.00000000000E+00 -0.98436097398E+02  0.98436097398E+02  0.00000000000E+00 0. -1.
         23    2    1    2    0    0  0.00000000000E+00  0.00000000000E+00 -0.80792759155E+02  0.11607943564E+03  0.83348457973E+02 0.  0.
        -11    1    3    3    0    0 -0.21347917106E+02 -0.55125443599E+01  0.88552203386E+01  0.23759979741E+02  0.00000000000E+00 0.  1.
         11    1    3    3    0    0  0.21347917106E+02  0.55125443599E+01 -0.89647979494E+02  0.92319455898E+02  0.00000000000E+00 0. -1.
<mgrwt>
<rscale>  0 0.83348458E+02</rscale>
<asrwt>0</asrwt>
<pdfrwt beam="1">  1        4 0.27143596E-02 0.83348458E+02</pdfrwt>
<pdfrwt beam="2">  1       -4 0.15144015E-01 0.83348458E+02</pdfrwt>
<totfact> 0.32438447E+04</totfact>
</mgrwt>
</event>
<event>
 5    1  0.1270889E+001  0.9126784E+02  0.7546771E-02  0.1299810E+00
          2   -1    0    0  501    0  0.00000000000E+00  0.00000000000E+00  0.83700149553E+02  0.83700149553E+02  0.00000000000E+00 0. -1.
         -2   -1    0    0    0  501 -0.00000000000E+00 -0.00000000000E+00 -0.24879937061E+02  0.24879937061E+02  0.00000000000E+00 0.  1.
         23    2    1    2    0    0  0.00000000000E+00  0.00000000000E+00  0.58820212492E+02  0.10858008661E+03  0.91267835579E+02 0.  0.
        -11    1    3    3    0    0  0.15747631218E+02 -0.30096204274E+01 -0.21419002680E+02  0.26754801062E+02  0.00000000000E+00 0.  1.
         11    1    3    3    0    0 -0.15747631218E+02  0.30096204274E+01  0.80239215172E+02  0.81825285551E+02  0.00000000000E+00 0. -1.
<mgrwt>
<rscale>  0 0.91267836E+02</rscale>
<asrwt>0</asrwt>
<pdfrwt beam="1">  1        2 0.12876946E-01 0.91267836E+02</pdfrwt>
<pdfrwt beam="2">  1       -2 0.38276826E-02 0.91267836E+02</pdfrwt>
<totfact> 0.11603797E+05</totfact>
</mgrwt>
</event>
<event>
 5    1  0.1270889E+001  0.8840382E+02  0.7546771E-02  0.1306764E+00
         -4   -1    0    0    0  501 -0.00000000000E+00  0.00000000000E+00  0.32584357527E+03  0.32584357527E+03  0.00000000000E+00 0.  1.
          4   -1    0    0  501    0  0.00000000000E+00 -0.00000000000E+00 -0.59961562178E+01  0.59961562178E+01  0.00000000000E+00 0. -1.
         23    2    1    2    0    0  0.00000000000E+00  0.00000000000E+00  0.31984741906E+03  0.33183973149E+03  0.88403822992E+02 0.  0.
        -13    1    3    3    0    0  0.30122664875E+02 -0.29951089613E+02  0.20579950495E+03  0.21013776183E+03  0.00000000000E+00 0.  1.
         13    1    3    3    0    0 -0.30122664875E+02  0.29951089613E+02  0.11404791410E+03  0.12170196966E+03  0.00000000000E+00 0. -1.
<mgrwt>
<rscale>  0 0.88403823E+02</rscale>
<asrwt>0</asrwt>
<pdfrwt beam="2">  1        4 0.92248583E-03 0.88403823E+02</pdfrwt>
<pdfrwt beam="1">  1       -4 0.50129767E-01 0.88403823E+02</pdfrwt>
<totfact> 0.18328376E+04</totfact>
</mgrwt>
</event>
<event>
 5    1  0.1270889E+001  0.8974819E+02  0.7546771E-02  0.1303463E+00
          2   -1    0    0  501    0  0.00000000000E+00  0.00000000000E+00  0.56637758314E+02  0.56637758314E+02  0.00000000000E+00 0. -1.
         -2   -1    0    0    0  501 -0.00000000000E+00 -0.00000000000E+00 -0.35553743492E+02  0.35553743492E+02  0.00000000000E+00 0.  1.
         23    2    1    2    0    0  0.00000000000E+00  0.00000000000E+00  0.21084014823E+02  0.92191501806E+02  0.89748188417E+02 0.  0.
        -13    1    3    3    0    0 -0.45359013361E+01  0.22305622093E+02 -0.29183408079E+02  0.37010626649E+02  0.00000000000E+00 0.  1.
         13    1    3    3    0    0  0.45359013361E+01 -0.22305622093E+02  0.50267422901E+02  0.55180875156E+02  0.00000000000E+00 0. -1.
<mgrwt>
<rscale>  0 0.89748188E+02</rscale>
<asrwt>0</asrwt>
<pdfrwt beam="1">  1        2 0.87135013E-02 0.89748188E+02</pdfrwt>
<pdfrwt beam="2">  1       -2 0.54698067E-02 0.89748188E+02</pdfrwt>
<totfact> 0.10921254E+05</totfact>
</mgrwt>
</event>
<event>
 5    1  0.1270889E+001  0.9017345E+02  0.7546771E-02  0.1302432E+00
          3   -1    0    0  501    0  0.00000000000E+00  0.00000000000E+00  0.11702476142E+03  0.11702476142E+03  0.00000000000E+00 0. -1.
         -3   -1    0    0    0  501 -0.00000000000E+00 -0.00000000000E+00 -0.17370793180E+02  0.17370793180E+02  0.00000000000E+00 0.  1.
         23    2    1    2    0    0  0.00000000000E+00  0.00000000000E+00  0.99653968241E+02  0.13439555460E+03  0.90173453468E+02 0.  0.
        -11    1    3    3    0    0  0.41424683319E+02  0.77825225716E+01  0.73684785100E+02  0.84888277170E+02  0.00000000000E+00 0. -1.
         11    1    3    3    0    0 -0.41424683319E+02 -0.77825225716E+01  0.25969183142E+02  0.49507277432E+02  0.00000000000E+00 0.  1.
<mgrwt>
<rscale>  0 0.90173453E+02</rscale>
<asrwt>0</asrwt>
<pdfrwt beam="1">  1        3 0.18003809E-01 0.90173453E+02</pdfrwt>
<pdfrwt beam="2">  1       -3 0.26724298E-02 0.90173453E+02</pdfrwt>
<totfact> 0.33270757E+04</totfact>
</mgrwt>
</event>
<event>
 5    1  0.1270889E+001  0.9110532E+02  0.7546771E-02  0.1300197E+00
          3   -1    0    0  501    0  0.00000000000E+00  0.00000000000E+00  0.24690993430E+03  0.24690993430E+03  0.00000000000E+00 0. -1.
         -3   -1    0    0    0  501 -0.00000000000E+00 -0.00000000000E+00 -0.84040563480E+01  0.84040563480E+01  0.00000000000E+00 0.  1.
         23    2    1    2    0    0  0.00000000000E+00  0.00000000000E+00  0.23850587795E+03  0.25531399065E+03  0.91105323680E+02 0.  0.
        -11    1    3    3    0    0  0.11034490637E+02 -0.36722998332E+02  0.50339623489E+02  0.63280457355E+02  0.00000000000E+00 0.  1.
         11    1    3    3    0    0 -0.11034490637E+02  0.36722998332E+02  0.18816625446E+03  0.19203353329E+03  0.00000000000E+00 0. -1.
<mgrwt>
<rscale>  0 0.91105324E+02</rscale>
<asrwt>0</asrwt>
<pdfrwt beam="1">  1        3 0.37986138E-01 0.91105324E+02</pdfrwt>
<pdfrwt beam="2">  1       -3 0.12929319E-02 0.91105324E+02</pdfrwt>
<totfact> 0.25924325E+04</totfact>
</mgrwt>
</event>
<event>
 5    1  0.1270889E+001  0.9100964E+02  0.7546771E-02  0.1300425E+00
         -2   -1    0    0    0  501 -0.00000000000E+00  0.00000000000E+00  0.53661627503E+02  0.53661627503E+02  0.00000000000E+00 0.  1.
          2   -1    0    0  501    0  0.00000000000E+00 -0.00000000000E+00 -0.38587886400E+02  0.38587886400E+02  0.00000000000E+00 0. -1.
         23    2    1    2    0    0  0.00000000000E+00  0.00000000000E+00  0.15073741103E+02  0.92249513903E+02  0.91009643141E+02 0.  0.
        -11    1    3    3    0    0  0.11444547576E+02 -0.33624629875E+02 -0.21295246758E+02  0.41413535685E+02  0.00000000000E+00 0. -1.
         11    1    3    3    0    0 -0.11444547576E+02  0.33624629875E+02  0.36368987861E+02  0.50835978219E+02  0.00000000000E+00 0.  1.
<mgrwt>
<rscale>  0 0.91009643E+02</rscale>
<asrwt>0</asrwt>
<pdfrwt beam="2">  1        2 0.59365979E-02 0.91009643E+02</pdfrwt>
<pdfrwt beam="1">  1       -2 0.82556350E-02 0.91009643E+02</pdfrwt>
<totfact> 0.95010205E+04</totfact>
</mgrwt>
</event>
<event>
 5    1  0.1270889E+001  0.9237599E+02  0.7546771E-02  0.1297198E+00
          1   -1    0    0  501    0  0.00000000000E+00  0.00000000000E+00  0.28765590397E+02  0.28765590397E+02  0.00000000000E+00 0. -1.
         -1   -1    0    0    0  501 -0.00000000000E+00 -0.00000000000E+00 -0.74162604263E+02  0.74162604263E+02  0.00000000000E+00 0.  1.
         23    2    1    2    0    0  0.00000000000E+00  0.00000000000E+00 -0.45397013866E+02  0.10292819466E+03  0.92375994652E+02 0.  0.
        -11    1    3    3    0    0 -0.39227456656E+02 -0.23842103225E+02 -0.17006994265E+02  0.48953826161E+02  0.00000000000E+00 0. -1.
         11    1    3    3    0    0  0.39227456656E+02  0.23842103225E+02 -0.28390019601E+02  0.53974368498E+02  0.00000000000E+00 0.  1.
<mgrwt>
<rscale>  0 0.92375995E+02</rscale>
<asrwt>0</asrwt>
<pdfrwt beam="1">  1        1 0.44254754E-02 0.92375995E+02</pdfrwt>
<pdfrwt beam="2">  1       -1 0.11409631E-01 0.92375995E+02</pdfrwt>
<totfact> 0.82910509E+04</totfact>
</mgrwt>
</event>
<event>
 5    1  0.1270889E+001  0.8772440E+02  0.7546771E-02  0.1308458E+00
          2   -1    0    0  501    0  0.00000000000E+00  0.00000000000E+00  0.17898875621E+02  0.17898875621E+02  0.00000000000E+00 0. -1.
         -2   -1    0    0    0  501 -0.00000000000E+00 -0.00000000000E+00 -0.10748677339E+03  0.10748677339E+03  0.00000000000E+00 0.  1.
         23    2    1    2    0    0  0.00000000000E+00  0.00000000000E+00 -0.89587897767E+02  0.12538564901E+03  0.87724395415E+02 0.  0.
        -13    1    3    3    0    0  0.78821031097E+00  0.36165719317E+02 -0.93391447102E+01  0.37360408899E+02  0.00000000000E+00 0. -1.
         13    1    3    3    0    0 -0.78821031097E+00 -0.36165719317E+02 -0.80248753057E+02  0.88025240110E+02  0.00000000000E+00 0.  1.
<mgrwt>
<rscale>  0 0.87724395E+02</rscale>
<asrwt>0</asrwt>
<pdfrwt beam="1">  1        2 0.27536731E-02 0.87724395E+02</pdfrwt>
<pdfrwt beam="2">  1       -2 0.16536427E-01 0.87724395E+02</pdfrwt>
<totfact> 0.85975761E+04</totfact>
</mgrwt>
</event>
<event>
 5    1  0.1270889E+001  0.8734530E+02  0.7546771E-02  0.1309411E+00
         -4   -1    0    0    0  501 -0.00000000000E+00  0.00000000000E+00  0.48051266777E+02  0.48051266777E+02  0.00000000000E+00 0. -1.
          4   -1    0    0  501    0  0.00000000000E+00 -0.00000000000E+00 -0.39693027074E+02  0.39693027074E+02  0.00000000000E+00 0.  1.
         23    2    1    2    0    0  0.00000000000E+00  0.00000000000E+00  0.83582397028E+01  0.87744293851E+02  0.87345297140E+02 0.  0.
        -13    1    3    3    0    0  0.11470412431E+02  0.41817695219E+02  0.93999980947E+01  0.44369471024E+02  0.00000000000E+00 0. -1.
         13    1    3    3    0    0 -0.11470412431E+02 -0.41817695219E+02 -0.10417583918E+01  0.43374822827E+02  0.00000000000E+00 0.  1.
<mgrwt>
<rscale>  0 0.87345297E+02</rscale>
<asrwt>0</asrwt>
<pdfrwt beam="2">  1        4 0.61066195E-02 0.87345297E+02</pdfrwt>
<pdfrwt beam="1">  1       -4 0.73925026E-02 0.87345297E+02</pdfrwt>
<totfact> 0.30592046E+04</totfact>
</mgrwt>
</event>
<event>
 5    1  0.1270889E+001  0.8784596E+02  0.7546771E-02  0.1308153E+00
         -2   -1    0    0    0  501 -0.00000000000E+00  0.00000000000E+00  0.24661896405E+02  0.24661896405E+02  0.00000000000E+00 0.  1.
          2   -1    0    0  501    0  0.00000000000E+00 -0.00000000000E+00 -0.78227077076E+02  0.78227077076E+02  0.00000000000E+00 0. -1.
         23    2    1    2    0    0  0.00000000000E+00  0.00000000000E+00 -0.53565180671E+02  0.10288897348E+03  0.87845957696E+02 0.  0.
        -11    1    3    3    0    0 -0.22952676705E+02 -0.22522657255E+02  0.82595595307E+01  0.33201141266E+02  0.00000000000E+00 0.  1.
         11    1    3    3    0    0  0.22952676705E+02  0.22522657255E+02 -0.61824740202E+02  0.69687832215E+02  0.00000000000E+00 0. -1.
<mgrwt>
<rscale>  0 0.87845958E+02</rscale>
<asrwt>0</asrwt>
<pdfrwt beam="2">  1        2 0.12034935E-01 0.87845958E+02</pdfrwt>
<pdfrwt beam="1">  1       -2 0.37941379E-02 0.87845958E+02</pdfrwt>
<totfact> 0.12652407E+05</totfact>
</mgrwt>
</event>
<event>
 5    1  0.1270889E+001  0.8145528E+02  0.7546771E-02  0.1324972E+00
         -2   -1    0    0    0  501 -0.00000000000E+00  0.00000000000E+00  0.10621618610E+02  0.10621618610E+02  0.00000000000E+00 0. -1.
          2   -1    0    0  501    0  0.00000000000E+00 -0.00000000000E+00 -0.15616646672E+03  0.15616646672E+03  0.00000000000E+00 0.  1.
         23    2    1    2    0    0  0.00000000000E+00  0.00000000000E+00 -0.14554484811E+03  0.16678808533E+03  0.81455279734E+02 0.  0.
        -13    1    3    3    0    0 -0.33292580912E+02 -0.97336394025E+01 -0.11647812637E+03  0.12153309673E+03  0.00000000000E+00 0.  1.
         13    1    3    3    0    0  0.33292580912E+02  0.97336394025E+01 -0.29066721740E+02  0.45254988593E+02  0.00000000000E+00 0. -1.
<mgrwt>
<rscale>  0 0.81455280E+02</rscale>
<asrwt>0</asrwt>
<pdfrwt beam="2">  1        2 0.24025608E-01 0.81455280E+02</pdfrwt>
<pdfrwt beam="1">  1       -2 0.16340953E-02 0.81455280E+02</pdfrwt>
<totfact> 0.19196830E+05</totfact>
</mgrwt>
</event>
<event>
 5    1  0.1270889E+001  0.9024655E+02  0.7546771E-02  0.1302256E+00
          2   -1    0    0  501    0  0.00000000000E+00  0.00000000000E+00  0.79599913432E+02  0.79599913432E+02  0.00000000000E+00 0. -1.
         -2   -1    0    0    0  501 -0.00000000000E+00 -0.00000000000E+00 -0.25579299691E+02  0.25579299691E+02  0.00000000000E+00 0.  1.
         23    2    1    2    0    0  0.00000000000E+00  0.00000000000E+00  0.54020613741E+02  0.10517921312E+03  0.90246552090E+02 0.  0.
        -11    1    3    3    0    0 -0.36732263003E+02 -0.16322721682E+02  0.31134488427E+01  0.40316050801E+02  0.00000000000E+00 0.  1.
         11    1    3    3    0    0  0.36732263003E+02  0.16322721682E+02  0.50907164899E+02  0.64863162322E+02  0.00000000000E+00 0. -1.
<mgrwt>
<rscale>  0 0.90246552E+02</rscale>
<asrwt>0</asrwt>
<pdfrwt beam="1">  1        2 0.12246140E-01 0.90246552E+02</pdfrwt>
<pdfrwt beam="2">  1       -2 0.39352769E-02 0.90246552E+02</pdfrwt>
<totfact> 0.11800300E+05</totfact>
</mgrwt>
</event>
<event>
 5    1  0.1270889E+001  0.9053987E+02  0.7546771E-02  0.1301550E+00
         -4   -1    0    0    0  501 -0.00000000000E+00  0.00000000000E+00  0.73275563315E+02  0.73275563315E+02  0.00000000000E+00 0.  1.
          4   -1    0    0  501    0  0.00000000000E+00 -0.00000000000E+00 -0.27967947703E+02  0.27967947703E+02  0.00000000000E+00 0. -1.
         23    2    1    2    0    0  0.00000000000E+00  0.00000000000E+00  0.45307615612E+02  0.10124351102E+03  0.90539872380E+02 0.  0.
        -11    1    3    3    0    0  0.33635148091E+01  0.13518685656E+02  0.70819108759E+02  0.72176272134E+02  0.00000000000E+00 0.  1.
         11    1    3    3    0    0 -0.33635148091E+01 -0.13518685656E+02 -0.25511493147E+02  0.29067238883E+02  0.00000000000E+00 0. -1.
<mgrwt>
<rscale>  0 0.90539872E+02</rscale>
<asrwt>0</asrwt>
<pdfrwt beam="2">  1        4 0.43027612E-02 0.90539872E+02</pdfrwt>
<pdfrwt beam="1">  1       -4 0.11273164E-01 0.90539872E+02</pdfrwt>
<totfact> 0.26886673E+04</totfact>
</mgrwt>
</event>
<event>
 5    1  0.1270889E+001  0.8434024E+02  0.7546771E-02  0.1317167E+00
         -1   -1    0    0    0  501 -0.00000000000E+00  0.00000000000E+00  0.11547517831E+02  0.11547517831E+02  0.00000000000E+00 0.  1.
          1   -1    0    0  501    0  0.00000000000E+00 -0.00000000000E+00 -0.15400012085E+03  0.15400012085E+03  0.00000000000E+00 0. -1.
         23    2    1    2    0    0  0.00000000000E+00  0.00000000000E+00 -0.14245260302E+03  0.16554763869E+03  0.84340242861E+02 0.  0.
        -11    1    3    3    0    0 -0.31693798489E+01  0.30127808333E+02 -0.13644383895E+02  0.33224975779E+02  0.00000000000E+00 0.  1.
         11    1    3    3    0    0  0.31693798489E+01 -0.30127808333E+02 -0.12880821913E+03  0.13232266291E+03  0.00000000000E+00 0. -1.
<mgrwt>
<rscale>  0 0.84340243E+02</rscale>
<asrwt>0</asrwt>
<pdfrwt beam="2">  1        1 0.23692326E-01 0.84340243E+02</pdfrwt>
<pdfrwt beam="1">  1       -1 0.17765412E-02 0.84340243E+02</pdfrwt>
<totfact> 0.13887589E+05</totfact>
</mgrwt>
</event>
<event>
 5    1  0.1270889E+001  0.8967954E+02  0.7546771E-02  0.1303630E+00
         -2   -1    0    0    0  501 -0.00000000000E+00  0.00000000000E+00  0.53269549094E+02  0.53269549094E+02  0.00000000000E+00 0.  1.
          2   -1    0    0  501    0  0.00000000000E+00 -0.00000000000E+00 -0.37743983639E+02  0.37743983639E+02  0.00000000000E+00 0. -1.
         23    2    1    2    0    0  0.00000000000E+00  0.00000000000E+00  0.15525565455E+02  0.91013532733E+02  0.89679540353E+02 0.  0.
        -11    1    3    3    0    0 -0.42417250829E+02  0.11373097245E+02 -0.14292341877E+01  0.43938743942E+02  0.00000000000E+00 0. -1.
         11    1    3    3    0    0  0.42417250829E+02 -0.11373097245E+02  0.16954799643E+02  0.47074788791E+02  0.00000000000E+00 0.  1.
<mgrwt>
<rscale>  0 0.89679540E+02</rscale>
<asrwt>0</asrwt>
<pdfrwt beam="2">  1        2 0.58067667E-02 0.89679540E+02</pdfrwt>
<pdfrwt beam="1">  1       -2 0.81953153E-02 0.89679540E+02</pdfrwt>
<totfact> 0.98589984E+04</totfact>
</mgrwt>
</event>
<event>
 5    1  0.1270889E+001  0.1032396E+03  0.7546771E-02  0.1273627E+00
          2   -1    0    0  501    0  0.00000000000E+00  0.00000000000E+00  0.21591908301E+03  0.21591908301E+03  0.00000000000E+00 0. -1.
         -2   -1    0    0    0  501 -0.00000000000E+00 -0.00000000000E+00 -0.12340744700E+02  0.12340744700E+02  0.00000000000E+00 0.  1.
         23    2    1    2    0    0  0.00000000000E+00  0.00000000000E+00  0.20357833831E+03  0.22825982771E+03  0.10323957147E+03 0.  0.
        -11    1    3    3    0    0 -0.51204912508E+02  0.57238615146E+01  0.10874464460E+03  0.12033330123E+03  0.00000000000E+00 0.  1.
         11    1    3    3    0    0  0.51204912508E+02 -0.57238615146E+01  0.94833693711E+02  0.10792652648E+03  0.00000000000E+00 0. -1.
<mgrwt>
<rscale>  0 0.10323957E+03</rscale>
<asrwt>0</asrwt>
<pdfrwt beam="1">  1        2 0.33218318E-01 0.10323957E+03</pdfrwt>
<pdfrwt beam="2">  1       -2 0.18985763E-02 0.10323957E+03</pdfrwt>
<totfact> 0.11359822E+05</totfact>
</mgrwt>
</event>
<event>
 5    1  0.1270889E+001  0.9046145E+02  0.7546771E-02  0.1301738E+00
          1   -1    0    0  501    0  0.00000000000E+00  0.00000000000E+00  0.28891962565E+02  0.28891962565E+02  0.00000000000E+00 0. -1.
         -1   -1    0    0    0  501 -0.00000000000E+00 -0.00000000000E+00 -0.70809257911E+02  0.70809257911E+02  0.00000000000E+00 0.  1.
         23    2    1    2    0    0  0.00000000000E+00  0.00000000000E+00 -0.41917295346E+02  0.99701220476E+02  0.90461448779E+02 0.  0.
        -11    1    3    3    0    0  0.77856951368E+01 -0.22084433838E+02 -0.63608480153E+02  0.67781841330E+02  0.00000000000E+00 0.  1.
         11    1    3    3    0    0 -0.77856951368E+01  0.22084433838E+02  0.21691184807E+02  0.31919379146E+02  0.00000000000E+00 0. -1.
<mgrwt>
<rscale>  0 0.90461449E+02</rscale>
<asrwt>0</asrwt>
<pdfrwt beam="1">  1        1 0.44449173E-02 0.90461449E+02</pdfrwt>
<pdfrwt beam="2">  1       -1 0.10893732E-01 0.90461449E+02</pdfrwt>
<totfact> 0.88129797E+04</totfact>
</mgrwt>
</event>
<event>
 5    1  0.1270889E+001  0.9136226E+02  0.7546771E-02  0.1299586E+00
          1   -1    0    0  501    0  0.00000000000E+00  0.00000000000E+00  0.39938219495E+02  0.39938219495E+02  0.00000000000E+00 0. -1.
         -1   -1    0    0    0  501 -0.00000000000E+00 -0.00000000000E+00 -0.52249841971E+02  0.52249841971E+02  0.00000000000E+00 0.  1.
         23    2    1    2    0    0  0.00000000000E+00  0.00000000000E+00 -0.12311622476E+02  0.92188061466E+02  0.91362260419E+02 0.  0.
        -11    1    3    3    0    0 -0.84784852550E+01 -0.23679836670E+02  0.32322136021E+02  0.40955339749E+02  0.00000000000E+00 0. -1.
         11    1    3    3    0    0  0.84784852550E+01  0.23679836670E+02 -0.44633758498E+02  0.51232721717E+02  0.00000000000E+00 0.  1.
<mgrwt>
<rscale>  0 0.91362260E+02</rscale>
<asrwt>0</asrwt>
<pdfrwt beam="1">  1        1 0.61443415E-02 0.91362260E+02</pdfrwt>
<pdfrwt beam="2">  1       -1 0.80384372E-02 0.91362260E+02</pdfrwt>
<totfact> 0.90123106E+04</totfact>
</mgrwt>
</event>
<event>
 5    1  0.1270889E+001  0.9521135E+02  0.7546771E-02  0.1290701E+00
          2   -1    0    0  501    0  0.00000000000E+00  0.00000000000E+00  0.65589140385E+02  0.65589140385E+02  0.00000000000E+00 0. -1.
         -2   -1    0    0    0  501 -0.00000000000E+00 -0.00000000000E+00 -0.34552982345E+02  0.34552982345E+02  0.00000000000E+00 0.  1.
         23    2    1    2    0    0  0.00000000000E+00  0.00000000000E+00  0.31036158040E+02  0.10014212273E+03  0.95211352470E+02 0.  0.
        -13    1    3    3    0    0 -0.22629885947E+02 -0.38451690875E+02 -0.19446411372E+01  0.44658995715E+02  0.00000000000E+00 0.  1.
         13    1    3    3    0    0  0.22629885947E+02  0.38451690875E+02  0.32980799177E+02  0.55483127016E+02  0.00000000000E+00 0. -1.
<mgrwt>
<rscale>  0 0.95211352E+02</rscale>
<asrwt>0</asrwt>
<pdfrwt beam="1">  1        2 0.10090637E-01 0.95211352E+02</pdfrwt>
<pdfrwt beam="2">  1       -2 0.53158435E-02 0.95211352E+02</pdfrwt>
<totfact> 0.96167464E+04</totfact>
</mgrwt>
</event>
<event>
 5    1  0.1270889E+001  0.9602030E+02  0.7546771E-02  0.1288895E+00
          1   -1    0    0  501    0  0.00000000000E+00  0.00000000000E+00  0.16436106465E+02  0.16436106465E+02  0.00000000000E+00 0. -1.
         -1   -1    0    0    0  501 -0.00000000000E+00 -0.00000000000E+00 -0.14023848886E+03  0.14023848886E+03  0.00000000000E+00 0.  1.
         23    2    1    2    0    0  0.00000000000E+00  0.00000000000E+00 -0.12380238239E+03  0.15667459532E+03  0.96020304798E+02 0.  0.
        -13    1    3    3    0    0  0.26341117443E+02  0.34937848049E+02 -0.94143615648E+02  0.10381487399E+03  0.00000000000E+00 0.  1.
         13    1    3    3    0    0 -0.26341117443E+02 -0.34937848049E+02 -0.29658766746E+02  0.52859721333E+02  0.00000000000E+00 0. -1.
<mgrwt>
<rscale>  0 0.96020305E+02</rscale>
<asrwt>0</asrwt>
<pdfrwt beam="1">  1        1 0.25286317E-02 0.96020305E+02</pdfrwt>
<pdfrwt beam="2">  1       -1 0.21575153E-01 0.96020305E+02</pdfrwt>
<totfact> 0.66395936E+04</totfact>
</mgrwt>
</event>
<event>
 5    1  0.1270889E+001  0.9024570E+02  0.7546771E-02  0.1302258E+00
         -1   -1    0    0    0  501 -0.00000000000E+00  0.00000000000E+00  0.17238489902E+03  0.17238489902E+03  0.00000000000E+00 0.  1.
          1   -1    0    0  501    0  0.00000000000E+00 -0.00000000000E+00 -0.11811194182E+02  0.11811194182E+02  0.00000000000E+00 0. -1.
         23    2    1    2    0    0  0.00000000000E+00  0.00000000000E+00  0.16057370484E+03  0.18419609321E+03  0.90245698322E+02 0.  0.
        -13    1    3    3    0    0  0.26212929268E+02  0.18362772876E+02  0.15364659841E+02  0.35501857142E+02  0.00000000000E+00 0. -1.
         13    1    3    3    0    0 -0.26212929268E+02 -0.18362772876E+02  0.14520904500E+03  0.14869423606E+03  0.00000000000E+00 0.  1.
<mgrwt>
<rscale>  0 0.90245698E+02</rscale>
<asrwt>0</asrwt>
<pdfrwt beam="2">  1        1 0.18171069E-02 0.90245698E+02</pdfrwt>
<pdfrwt beam="1">  1       -1 0.26520752E-01 0.90245698E+02</pdfrwt>
<totfact> 0.74234070E+04</totfact>
</mgrwt>
</event>
<event>
 5    1  0.1270889E+001  0.9260521E+02  0.7546771E-02  0.1296663E+00
          2   -1    0    0  501    0  0.00000000000E+00  0.00000000000E+00  0.13366105775E+03  0.13366105775E+03  0.00000000000E+00 0. -1.
         -2   -1    0    0    0  501 -0.00000000000E+00 -0.00000000000E+00 -0.16040059690E+02  0.16040059690E+02  0.00000000000E+00 0.  1.
         23    2    1    2    0    0  0.00000000000E+00  0.00000000000E+00  0.11762099806E+03  0.14970111743E+03  0.92605212476E+02 0.  0.
        -13    1    3    3    0    0  0.21730703518E+02  0.28940682452E+02  0.12121955650E+02  0.38167111299E+02  0.00000000000E+00 0.  1.
         13    1    3    3    0    0 -0.21730703518E+02 -0.28940682452E+02  0.10549904241E+03  0.11153400614E+03  0.00000000000E+00 0. -1.
<mgrwt>
<rscale>  0 0.92605212E+02</rscale>
<asrwt>0</asrwt>
<pdfrwt beam="1">  1        2 0.20563239E-01 0.92605212E+02</pdfrwt>
<pdfrwt beam="2">  1       -2 0.24677016E-02 0.92605212E+02</pdfrwt>
<totfact> 0.12891826E+05</totfact>
</mgrwt>
</event>
<event>
 5    1  0.1270889E+001  0.8936666E+02  0.7546771E-02  0.1304393E+00
         -3   -1    0    0    0  501 -0.00000000000E+00  0.00000000000E+00  0.84390271974E+02  0.84390271974E+02  0.00000000000E+00 0.  1.
          3   -1    0    0  501    0  0.00000000000E+00 -0.00000000000E+00 -0.23659125918E+02  0.23659125918E+02  0.00000000000E+00 0. -1.
         23    2    1    2    0    0  0.00000000000E+00  0.00000000000E+00  0.60731146056E+02  0.10804939789E+03  0.89366662037E+02 0.  0.
        -11    1    3    3    0    0 -0.80005716126E+01  0.40684654487E+02  0.50500995853E+02  0.65342182693E+02  0.00000000000E+00 0.  1.
         11    1    3    3    0    0  0.80005716126E+01 -0.40684654487E+02  0.10230150202E+02  0.42707215199E+02  0.00000000000E+00 0. -1.
<mgrwt>
<rscale>  0 0.89366662E+02</rscale>
<asrwt>0</asrwt>
<pdfrwt beam="2">  1        3 0.36398656E-02 0.89366662E+02</pdfrwt>
<pdfrwt beam="1">  1       -3 0.12983119E-01 0.89366662E+02</pdfrwt>
<totfact> 0.35991028E+04</totfact>
</mgrwt>
</event>
<event>
 5    1  0.1270889E+001  0.9402159E+02  0.7546771E-02  0.1293395E+00
          2   -1    0    0  501    0  0.00000000000E+00  0.00000000000E+00  0.41839282388E+02  0.41839282388E+02  0.00000000000E+00 0. -1.
         -2   -1    0    0    0  501 -0.00000000000E+00 -0.00000000000E+00 -0.52821523163E+02  0.52821523163E+02  0.00000000000E+00 0.  1.
         23    2    1    2    0    0  0.00000000000E+00  0.00000000000E+00 -0.10982240775E+02  0.94660805551E+02  0.94021585262E+02 0.  0.
        -11    1    3    3    0    0 -0.46868457584E+02  0.36543676138E+01 -0.54016066689E+01  0.47320017683E+02  0.00000000000E+00 0.  1.
         11    1    3    3    0    0  0.46868457584E+02 -0.36543676138E+01 -0.55806341059E+01  0.47340787868E+02  0.00000000000E+00 0. -1.
<mgrwt>
<rscale>  0 0.94021585E+02</rscale>
<asrwt>0</asrwt>
<pdfrwt beam="1">  1        2 0.64368127E-02 0.94021585E+02</pdfrwt>
<pdfrwt beam="2">  1       -2 0.81263881E-02 0.94021585E+02</pdfrwt>
<totfact> 0.88280498E+04</totfact>
</mgrwt>
</event>
<event>
 5    1  0.1270889E+001  0.9080035E+02  0.7546771E-02  0.1300925E+00
          2   -1    0    0  501    0  0.00000000000E+00  0.00000000000E+00  0.30847889784E+03  0.30847889784E+03  0.00000000000E+00 0. -1.
         -2   -1    0    0    0  501 -0.00000000000E+00 -0.00000000000E+00 -0.66817410015E+01  0.66817410015E+01  0.00000000000E+00 0.  1.
         23    2    1    2    0    0  0.00000000000E+00  0.00000000000E+00  0.30179715684E+03  0.31516063885E+03  0.90800354621E+02 0.  0.
        -11    1    3    3    0    0  0.36122595375E+02 -0.27479073292E+02  0.14704174253E+03  0.15388702158E+03  0.00000000000E+00 0. -1.
         11    1    3    3    0    0 -0.36122595375E+02  0.27479073292E+02  0.15475541431E+03  0.16127361726E+03  0.00000000000E+00 0.  1.
<mgrwt>
<rscale>  0 0.90800355E+02</rscale>
<asrwt>0</asrwt>
<pdfrwt beam="1">  1        2 0.47458281E-01 0.90800355E+02</pdfrwt>
<pdfrwt beam="2">  1       -2 0.10279604E-02 0.90800355E+02</pdfrwt>
<totfact> 0.18354623E+05</totfact>
</mgrwt>
</event>
<event>
 5    1  0.1270889E+001  0.9186552E+02  0.7546771E-02  0.1298396E+00
         -2   -1    0    0    0  501 -0.00000000000E+00  0.00000000000E+00  0.21143795011E+02  0.21143795011E+02  0.00000000000E+00 0.  1.
          2   -1    0    0  501    0  0.00000000000E+00 -0.00000000000E+00 -0.99784278049E+02  0.99784278049E+02  0.00000000000E+00 0. -1.
         23    2    1    2    0    0  0.00000000000E+00  0.00000000000E+00 -0.78640483037E+02  0.12092807306E+03  0.91865517370E+02 0.  0.
        -11    1    3    3    0    0 -0.13748686200E+02 -0.27689598236E+02 -0.84039254236E+02  0.89545164444E+02  0.00000000000E+00 0. -1.
         11    1    3    3    0    0  0.13748686200E+02  0.27689598236E+02  0.53987711990E+01  0.31382908616E+02  0.00000000000E+00 0.  1.
<mgrwt>
<rscale>  0 0.91865517E+02</rscale>
<asrwt>0</asrwt>
<pdfrwt beam="2">  1        2 0.15351427E-01 0.91865517E+02</pdfrwt>
<pdfrwt beam="1">  1       -2 0.32528916E-02 0.91865517E+02</pdfrwt>
<totfact> 0.12007813E+05</totfact>
</mgrwt>
</event>
<event>
 5    1  0.1270889E+001  0.9531687E+02  0.7546771E-02  0.1290464E+00
         -2   -1    0    0    0  501 -0.00000000000E+00  0.00000000000E+00  0.40548799158E+02  0.40548799158E+02  0.00000000000E+00 0.  1.
          2   -1    0    0  501    0  0.00000000000E+00 -0.00000000000E+00 -0.56014635346E+02  0.56014635346E+02  0.00000000000E+00 0. -1.
         23    2    1    2    0    0  0.00000000000E+00  0.00000000000E+00 -0.15465836188E+02  0.96563434503E+02  0.95316865213E+02 0.  0.
        -13    1    3    3    0    0  0.72208886755E+01 -0.15961770619E+02 -0.52634193019E+02  0.55473215423E+02  0.00000000000E+00 0. -1.
         13    1    3    3    0    0 -0.72208886755E+01  0.15961770619E+02  0.37168356831E+02  0.41090219080E+02  0.00000000000E+00 0.  1.
<mgrwt>
<rscale>  0 0.95316865E+02</rscale>
<asrwt>0</asrwt>
<pdfrwt beam="2">  1        2 0.86176362E-02 0.95316865E+02</pdfrwt>
<pdfrwt beam="1">  1       -2 0.62382768E-02 0.95316865E+02</pdfrwt>
<totfact> 0.91778722E+04</totfact>
</mgrwt>
</event>
<event>
 5    1  0.1270889E+001  0.9121258E+02  0.7546771E-02  0.1299942E+00
          1   -1    0    0  501    0  0.00000000000E+00  0.00000000000E+00  0.54629069430E+02  0.54629069430E+02  0.00000000000E+00 0. -1.
         -1   -1    0    0    0  501 -0.00000000000E+00 -0.00000000000E+00 -0.38073753684E+02  0.38073753684E+02  0.00000000000E+00 0.  1.
         23    2    1    2    0    0  0.00000000000E+00  0.00000000000E+00  0.16555315746E+02  0.92702823115E+02  0.91212581007E+02 0.  0.
        -11    1    3    3    0    0  0.36708076109E+02  0.26162197538E+02  0.12369722010E+01  0.45094052068E+02  0.00000000000E+00 0.  1.
         11    1    3    3    0    0 -0.36708076109E+02 -0.26162197538E+02  0.15318343545E+02  0.47608771047E+02  0.00000000000E+00 0. -1.
<mgrwt>
<rscale>  0 0.91212581E+02</rscale>
<asrwt>0</asrwt>
<pdfrwt beam="1">  1        1 0.84044722E-02 0.91212581E+02</pdfrwt>
<pdfrwt beam="2">  1       -1 0.58575006E-02 0.91212581E+02</pdfrwt>
<totfact> 0.94914753E+04</totfact>
</mgrwt>
</event>
<event>
 5    1  0.1270889E+001  0.9139778E+02  0.7546771E-02  0.1299502E+00
          2   -1    0    0  501    0  0.00000000000E+00  0.00000000000E+00  0.11294931719E+03  0.11294931719E+03  0.00000000000E+00 0. -1.
         -2   -1    0    0    0  501 -0.00000000000E+00 -0.00000000000E+00 -0.18489607162E+02  0.18489607162E+02  0.00000000000E+00 0.  1.
         23    2    1    2    0    0  0.00000000000E+00  0.00000000000E+00  0.94459710031E+02  0.13143892435E+03  0.91397779055E+02 0.  0.
        -13    1    3    3    0    0 -0.34073860754E+02  0.28718743531E+02  0.61796178261E+02  0.76187675279E+02  0.00000000000E+00 0. -1.
         13    1    3    3    0    0  0.34073860754E+02 -0.28718743531E+02  0.32663531769E+02  0.55251249075E+02  0.00000000000E+00 0.  1.
<mgrwt>
<rscale>  0 0.91397779E+02</rscale>
<asrwt>0</asrwt>
<pdfrwt beam="1">  1        2 0.17376818E-01 0.91397779E+02</pdfrwt>
<pdfrwt beam="2">  1       -2 0.28445550E-02 0.91397779E+02</pdfrwt>
<totfact> 0.12654812E+05</totfact>
</mgrwt>
</event>
<event>
 5    1  0.1270889E+001  0.8925423E+02  0.7546771E-02  0.1304668E+00
         -2   -1    0    0    0  501 -0.00000000000E+00  0.00000000000E+00  0.12001772266E+03  0.12001772266E+03  0.00000000000E+00 0.  1.
          2   -1    0    0  501    0  0.00000000000E+00 -0.00000000000E+00 -0.16594045063E+02  0.16594045063E+02  0.00000000000E+00 0. -1.
         23    2    1    2    0    0  0.00000000000E+00  0.00000000000E+00  0.10342367760E+03  0.13661176772E+03  0.89254232351E+02 0.  0.
        -11    1    3    3    0    0  0.22224592085E+02 -0.12855226603E+01 -0.74885121250E+01  0.23487504672E+02  0.00000000000E+00 0. -1.
         11    1    3    3    0    0 -0.22224592085E+02  0.12855226603E+01  0.11091218972E+03  0.11312426305E+03  0.00000000000E+00 0.  1.
<mgrwt>
<rscale>  0 0.89254232E+02</rscale>
<asrwt>0</asrwt>
<pdfrwt beam="2">  1        2 0.25529301E-02 0.89254232E+02</pdfrwt>
<pdfrwt beam="1">  1       -2 0.18464265E-01 0.89254232E+02</pdfrwt>
<totfact> 0.79552881E+04</totfact>
</mgrwt>
</event>
<event>
 5    1  0.1270889E+001  0.9151498E+02  0.7546771E-02  0.1299224E+00
         -1   -1    0    0    0  501 -0.00000000000E+00  0.00000000000E+00  0.45897307313E+02  0.45897307313E+02  0.00000000000E+00 0.  1.
          1   -1    0    0  501    0  0.00000000000E+00 -0.00000000000E+00 -0.45618097139E+02  0.45618097139E+02  0.00000000000E+00 0. -1.
         23    2    1    2    0    0  0.00000000000E+00  0.00000000000E+00  0.27921017376E+00  0.91515404452E+02  0.91514978521E+02 0.  0.
        -11    1    3    3    0    0 -0.39451352592E+02  0.15335697334E+01  0.23269493671E+02  0.45828270676E+02  0.00000000000E+00 0.  1.
         11    1    3    3    0    0  0.39451352592E+02 -0.15335697334E+01 -0.22990283497E+02  0.45687133776E+02  0.00000000000E+00 0. -1.
<mgrwt>
<rscale>  0 0.91514979E+02</rscale>
<asrwt>0</asrwt>
<pdfrwt beam="2">  1        1 0.70181688E-02 0.91514979E+02</pdfrwt>
<pdfrwt beam="1">  1       -1 0.70611242E-02 0.91514979E+02</pdfrwt>
<totfact> 0.91524165E+04</totfact>
</mgrwt>
</event>
<event>
 5    1  0.1270889E+001  0.9001205E+02  0.7546771E-02  0.1302823E+00
         -2   -1    0    0    0  501 -0.00000000000E+00  0.00000000000E+00  0.16455427707E+02  0.16455427707E+02  0.00000000000E+00 0.  1.
          2   -1    0    0  501    0  0.00000000000E+00 -0.00000000000E+00 -0.12309265866E+03  0.12309265866E+03  0.00000000000E+00 0. -1.
         23    2    1    2    0    0  0.00000000000E+00  0.00000000000E+00 -0.10663723095E+03  0.13954808636E+03  0.90012051321E+02 0.  0.
        -13    1    3    3    0    0 -0.26529804769E+02 -0.14442830695E+02 -0.10504278494E+03  0.10929964578E+03  0.00000000000E+00 0. -1.
         13    1    3    3    0    0  0.26529804769E+02  0.14442830695E+02 -0.15944460083E+01  0.30248440582E+02  0.00000000000E+00 0.  1.
<mgrwt>
<rscale>  0 0.90012051E+02</rscale>
<asrwt>0</asrwt>
<pdfrwt beam="2">  1        2 0.18937332E-01 0.90012051E+02</pdfrwt>
<pdfrwt beam="1">  1       -2 0.25316043E-02 0.90012051E+02</pdfrwt>
<totfact> 0.13560415E+05</totfact>
</mgrwt>
</event>
<event>
 5    1  0.1270889E+001  0.9743556E+02  0.7546771E-02  0.1285783E+00
          1   -1    0    0  501    0  0.00000000000E+00  0.00000000000E+00  0.10498874686E+03  0.10498874686E+03  0.00000000000E+00 0. -1.
         -1   -1    0    0    0  501 -0.00000000000E+00 -0.00000000000E+00 -0.22606445000E+02  0.22606445000E+02  0.00000000000E+00 0.  1.
         23    2    1    2    0    0  0.00000000000E+00  0.00000000000E+00  0.82382301863E+02  0.12759519186E+03  0.97435564998E+02 0.  0.
        -11    1    3    3    0    0  0.32233687787E+02 -0.18672287003E+02  0.76006071967E-01  0.37251452418E+02  0.00000000000E+00 0.  1.
         11    1    3    3    0    0 -0.32233687787E+02  0.18672287003E+02  0.82306295791E+02  0.90343739446E+02  0.00000000000E+00 0. -1.
<mgrwt>
<rscale>  0 0.97435565E+02</rscale>
<asrwt>0</asrwt>
<pdfrwt beam="1">  1        1 0.16152115E-01 0.97435565E+02</pdfrwt>
<pdfrwt beam="2">  1       -1 0.34779147E-02 0.97435565E+02</pdfrwt>
<totfact> 0.87814183E+04</totfact>
</mgrwt>
</event>
<event>
 5    1  0.1270889E+001  0.8992920E+02  0.7546771E-02  0.1303023E+00
          4   -1    0    0  501    0  0.00000000000E+00  0.00000000000E+00  0.18094701052E+03  0.18094701052E+03  0.00000000000E+00 0. -1.
         -4   -1    0    0    0  501 -0.00000000000E+00 -0.00000000000E+00 -0.11173521006E+02  0.11173521006E+02  0.00000000000E+00 0.  1.
         23    2    1    2    0    0  0.00000000000E+00  0.00000000000E+00  0.16977348951E+03  0.19212053152E+03  0.89929199328E+02 0.  0.
        -11    1    3    3    0    0  0.36573111782E+02 -0.21050604399E+02  0.51715104317E+02  0.66747078330E+02  0.00000000000E+00 0.  1.
         11    1    3    3    0    0 -0.36573111782E+02  0.21050604399E+02  0.11805838519E+03  0.12537345319E+03  0.00000000000E+00 0. -1.
<mgrwt>
<rscale>  0 0.89929199E+02</rscale>
<asrwt>0</asrwt>
<pdfrwt beam="1">  1        4 0.27837999E-01 0.89929199E+02</pdfrwt>
<pdfrwt beam="2">  1       -4 0.17190034E-02 0.89929199E+02</pdfrwt>
<totfact> 0.22534479E+04</totfact>
</mgrwt>
</event>
<event>
 5    1  0.1270889E+001  0.9133883E+02  0.7546771E-02  0.1299642E+00
         -2   -1    0    0    0  501 -0.00000000000E+00  0.00000000000E+00  0.11424354775E+03  0.11424354775E+03  0.00000000000E+00 0.  1.
          2   -1    0    0  501    0  0.00000000000E+00 -0.00000000000E+00 -0.18256571197E+02  0.18256571197E+02  0.00000000000E+00 0. -1.
         23    2    1    2    0    0  0.00000000000E+00  0.00000000000E+00  0.95986976556E+02  0.13250011895E+03  0.91338829933E+02 0.  0.
        -11    1    3    3    0    0 -0.15556941364E+02  0.42894586533E+02  0.45191271857E+02  0.64220051623E+02  0.00000000000E+00 0. -1.
         11    1    3    3    0    0  0.15556941364E+02 -0.42894586533E+02  0.50795704699E+02  0.68280067328E+02  0.00000000000E+00 0.  1.
<mgrwt>
<rscale>  0 0.91338830E+02</rscale>
<asrwt>0</asrwt>
<pdfrwt beam="2">  1        2 0.28087033E-02 0.91338830E+02</pdfrwt>
<pdfrwt beam="1">  1       -2 0.17575930E-01 0.91338830E+02</pdfrwt>
<totfact> 0.76270936E+04</totfact>
</mgrwt>
</event>
<event>
 5    1  0.1270889E+001  0.9048952E+02  0.7546771E-02  0.1301671E+00
         -2   -1    0    0    0  501 -0.00000000000E+00  0.00000000000E+00  0.61742353246E+02  0.61742353246E+02  0.00000000000E+00 0.  1.
          2   -1    0    0  501    0  0.00000000000E+00 -0.00000000000E+00 -0.33155336355E+02  0.33155336355E+02  0.00000000000E+00 0. -1.
         23    2    1    2    0    0  0.00000000000E+00  0.00000000000E+00  0.28587016891E+02  0.94897689601E+02  0.90489524017E+02 0.  0.
        -13    1    3    3    0    0 -0.32291516585E+02  0.30571403521E+02  0.55359101786E+01  0.44810702495E+02  0.00000000000E+00 0.  1.
         13    1    3    3    0    0  0.32291516585E+02 -0.30571403521E+02  0.23051106712E+02  0.50086987105E+02  0.00000000000E+00 0. -1.
<mgrwt>
<rscale>  0 0.90489524E+02</rscale>
<asrwt>0</asrwt>
<pdfrwt beam="2">  1        2 0.51008210E-02 0.90489524E+02</pdfrwt>
<pdfrwt beam="1">  1       -2 0.94988235E-02 0.90489524E+02</pdfrwt>
<totfact> 0.92881490E+04</totfact>
</mgrwt>
</event>
<event>
 5    1  0.1270889E+001  0.9277912E+02  0.7546771E-02  0.1296258E+00
          1   -1    0    0  501    0  0.00000000000E+00  0.00000000000E+00  0.10453101399E+03  0.10453101399E+03  0.00000000000E+00 0. -1.
         -1   -1    0    0    0  501 -0.00000000000E+00 -0.00000000000E+00 -0.20587106028E+02  0.20587106028E+02  0.00000000000E+00 0.  1.
         23    2    1    2    0    0  0.00000000000E+00  0.00000000000E+00  0.83943907960E+02  0.12511812001E+03  0.92779115497E+02 0.  0.
        -13    1    3    3    0    0 -0.14797818697E+02  0.21780863189E+02 -0.95318753694E+01  0.28004251240E+02  0.00000000000E+00 0.  1.
         13    1    3    3    0    0  0.14797818697E+02 -0.21780863189E+02  0.93475783329E+02  0.97113868775E+02  0.00000000000E+00 0. -1.
<mgrwt>
<rscale>  0 0.92779115E+02</rscale>
<asrwt>0</asrwt>
<pdfrwt beam="1">  1        1 0.16081694E-01 0.92779115E+02</pdfrwt>
<pdfrwt beam="2">  1       -1 0.31672471E-02 0.92779115E+02</pdfrwt>
<totfact> 0.10034422E+05</totfact>
</mgrwt>
</event>
<event>
 5    1  0.1270889E+001  0.9111895E+02  0.7546771E-02  0.1300164E+00
          1   -1    0    0  501    0  0.00000000000E+00  0.00000000000E+00  0.10044867919E+03  0.10044867919E+03  0.00000000000E+00 0. -1.
         -1   -1    0    0    0  501 -0.00000000000E+00 -0.00000000000E+00 -0.20663944755E+02  0.20663944755E+02  0.00000000000E+00 0.  1.
         23    2    1    2    0    0  0.00000000000E+00  0.00000000000E+00  0.79784734432E+02  0.12111262394E+03  0.91118954283E+02 0.  0.
        -11    1    3    3    0    0  0.16110655768E+02 -0.78790408466E+01  0.95559598477E+02  0.97227924873E+02  0.00000000000E+00 0. -1.
         11    1    3    3    0    0 -0.16110655768E+02  0.78790408466E+01 -0.15774864046E+02  0.23884699069E+02  0.00000000000E+00 0.  1.
<mgrwt>
<rscale>  0 0.91118954E+02</rscale>
<asrwt>0</asrwt>
<pdfrwt beam="1">  1        1 0.15453643E-01 0.91118954E+02</pdfrwt>
<pdfrwt beam="2">  1       -1 0.31790685E-02 0.91118954E+02</pdfrwt>
<totfact> 0.10471081E+05</totfact>
</mgrwt>
</event>
<event>
 5    1  0.1270889E+001  0.9354896E+02  0.7546771E-02  0.1294478E+00
         -1   -1    0    0    0  501 -0.00000000000E+00  0.00000000000E+00  0.18976742484E+03  0.18976742484E+03  0.00000000000E+00 0.  1.
          1   -1    0    0  501    0  0.00000000000E+00 -0.00000000000E+00 -0.11529124093E+02  0.11529124093E+02  0.00000000000E+00 0. -1.
         23    2    1    2    0    0  0.00000000000E+00  0.00000000000E+00  0.17823830074E+03  0.20129654893E+03  0.93548964502E+02 0.  0.
        -11    1    3    3    0    0  0.24505310792E+02  0.20406477036E+02  0.16275011952E+03  0.16584491541E+03  0.00000000000E+00 0.  1.
         11    1    3    3    0    0 -0.24505310792E+02 -0.20406477036E+02  0.15488181225E+02  0.35451633526E+02  0.00000000000E+00 0. -1.
<mgrwt>
<rscale>  0 0.93548965E+02</rscale>
<asrwt>0</asrwt>
<pdfrwt beam="2">  1        1 0.17737115E-02 0.93548965E+02</pdfrwt>
<pdfrwt beam="1">  1       -1 0.29194986E-01 0.93548965E+02</pdfrwt>
<totfact> 0.65891235E+04</totfact>
</mgrwt>
</event>
<event>
 5    1  0.1270889E+001  0.9033553E+02  0.7546771E-02  0.1302041E+00
         -2   -1    0    0    0  501 -0.00000000000E+00  0.00000000000E+00  0.88045057126E+01  0.88045057126E+01  0.00000000000E+00 0.  1.
          2   -1    0    0  501    0  0.00000000000E+00 -0.00000000000E+00 -0.23171398972E+03  0.23171398972E+03  0.00000000000E+00 0. -1.
         23    2    1    2    0    0  0.00000000000E+00  0.00000000000E+00 -0.22290948400E+03  0.24051849543E+03  0.90335533344E+02 0.  0.
        -13    1    3    3    0    0 -0.34564361920E+02  0.66409248185E+01 -0.18682423725E+03  0.19011073778E+03  0.00000000000E+00 0. -1.
         13    1    3    3    0    0  0.34564361920E+02 -0.66409248185E+01 -0.36085246755E+02  0.50407757644E+02  0.00000000000E+00 0.  1.
<mgrwt>
<rscale>  0 0.90335533E+02</rscale>
<asrwt>0</asrwt>
<pdfrwt beam="2">  1        2 0.35648303E-01 0.90335533E+02</pdfrwt>
<pdfrwt beam="1">  1       -2 0.13545395E-02 0.90335533E+02</pdfrwt>
<totfact> 0.16732522E+05</totfact>
</mgrwt>
</event>
<event>
 5    1  0.1270889E+001  0.8983495E+02  0.7546771E-02  0.1303252E+00
         -1   -1    0    0    0  501 -0.00000000000E+00  0.00000000000E+00  0.42653087890E+02  0.42653087890E+02  0.00000000000E+00 0.  1.
          1   -1    0    0  501    0  0.00000000000E+00 -0.00000000000E+00 -0.47302078017E+02  0.47302078017E+02  0.00000000000E+00 0. -1.
         23    2    1    2    0    0  0.00000000000E+00  0.00000000000E+00 -0.46489901272E+01  0.89955165908E+02  0.89834952910E+02 0.  0.
        -11    1    3    3    0    0 -0.14456584251E+02  0.66534961435E+01 -0.44384486374E+02  0.47151293406E+02  0.00000000000E+00 0. -1.
         11    1    3    3    0    0  0.14456584251E+02 -0.66534961435E+01  0.39735496247E+02  0.42803872502E+02  0.00000000000E+00 0.  1.
<mgrwt>
<rscale>  0 0.89834953E+02</rscale>
<asrwt>0</asrwt>
<pdfrwt beam="2">  1        1 0.72772428E-02 0.89834953E+02</pdfrwt>
<pdfrwt beam="1">  1       -1 0.65620135E-02 0.89834953E+02</pdfrwt>
<totfact> 0.96923105E+04</totfact>
</mgrwt>
</event>
<event>
 5    1  0.1270889E+001  0.9229224E+02  0.7546771E-02  0.1297394E+00
         -1   -1    0    0    0  501 -0.00000000000E+00  0.00000000000E+00  0.14513016984E+02  0.14513016984E+02  0.00000000000E+00 0.  1.
          1   -1    0    0  501    0  0.00000000000E+00 -0.00000000000E+00 -0.14672790378E+03  0.14672790378E+03  0.00000000000E+00 0. -1.
         23    2    1    2    0    0  0.00000000000E+00  0.00000000000E+00 -0.13221488680E+03  0.16124092077E+03  0.92292243653E+02 0.  0.
        -13    1    3    3    0    0  0.11857512276E+02 -0.33485743589E+02 -0.14648358021E+02  0.38424861923E+02  0.00000000000E+00 0.  1.
         13    1    3    3    0    0 -0.11857512276E+02  0.33485743589E+02 -0.11756652878E+03  0.12281605884E+03  0.00000000000E+00 0. -1.
<mgrwt>
<rscale>  0 0.92292244E+02</rscale>
<asrwt>0</asrwt>
<pdfrwt beam="2">  1        1 0.22573524E-01 0.92292244E+02</pdfrwt>
<pdfrwt beam="1">  1       -1 0.22327718E-02 0.92292244E+02</pdfrwt>
<totfact> 0.10806872E+05</totfact>
</mgrwt>
</event>
<event>
 5    1  0.1270889E+001  0.9076908E+02  0.7546771E-02  0.1301000E+00
          4   -1    0    0  501    0  0.00000000000E+00  0.00000000000E+00  0.18770153250E+02  0.18770153250E+02  0.00000000000E+00 0.  1.
         -4   -1    0    0    0  501 -0.00000000000E+00 -0.00000000000E+00 -0.10973572043E+03  0.10973572043E+03  0.00000000000E+00 0. -1.
         23    2    1    2    0    0  0.00000000000E+00  0.00000000000E+00 -0.90965567182E+02  0.12850587368E+03  0.90769076000E+02 0.  0.
        -11    1    3    3    0    0 -0.20217200459E+02  0.33636233604E+02 -0.13210474944E+02  0.41408308994E+02  0.00000000000E+00 0.  1.
         11    1    3    3    0    0  0.20217200459E+02 -0.33636233604E+02 -0.77755092239E+02  0.87097564688E+02  0.00000000000E+00 0. -1.
<mgrwt>
<rscale>  0 0.90769076E+02</rscale>
<asrwt>0</asrwt>
<pdfrwt beam="1">  1        4 0.28877159E-02 0.90769076E+02</pdfrwt>
<pdfrwt beam="2">  1       -4 0.16882418E-01 0.90769076E+02</pdfrwt>
<totfact> 0.25100752E+04</totfact>
</mgrwt>
</event>
<event>
 5    1  0.1270889E+001  0.8928084E+02  0.7546771E-02  0.1304603E+00
          2   -1    0    0  501    0  0.00000000000E+00  0.00000000000E+00  0.64503544213E+02  0.64503544213E+02  0.00000000000E+00 0. -1.
         -2   -1    0    0    0  501 -0.00000000000E+00 -0.00000000000E+00 -0.30893914418E+02  0.30893914418E+02  0.00000000000E+00 0.  1.
         23    2    1    2    0    0  0.00000000000E+00  0.00000000000E+00  0.33609629795E+02  0.95397458631E+02  0.89280837240E+02 0.  0.
        -13    1    3    3    0    0  0.26602872030E+02 -0.30292527461E+02 -0.36765147445E+01  0.40482919619E+02  0.00000000000E+00 0.  1.
         13    1    3    3    0    0 -0.26602872030E+02  0.30292527461E+02  0.37286144539E+02  0.54914539011E+02  0.00000000000E+00 0. -1.
<mgrwt>
<rscale>  0 0.89280837E+02</rscale>
<asrwt>0</asrwt>
<pdfrwt beam="1">  1        2 0.99236222E-02 0.89280837E+02</pdfrwt>
<pdfrwt beam="2">  1       -2 0.47529099E-02 0.89280837E+02</pdfrwt>
<totfact> 0.11472421E+05</totfact>
</mgrwt>
</event>
<event>
 5    1  0.1270889E+001  0.9096947E+02  0.7546771E-02  0.1300521E+00
          2   -1    0    0  501    0  0.00000000000E+00  0.00000000000E+00  0.11258582160E+02  0.11258582160E+02  0.00000000000E+00 0. -1.
         -2   -1    0    0    0  501 -0.00000000000E+00 -0.00000000000E+00 -0.18375857417E+03  0.18375857417E+03  0.00000000000E+00 0.  1.
         23    2    1    2    0    0  0.00000000000E+00  0.00000000000E+00 -0.17249999201E+03  0.19501715633E+03  0.90969467512E+02 0.  0.
        -13    1    3    3    0    0 -0.52400345726E+01 -0.39376690528E+02 -0.13374681448E+03  0.13952129623E+03  0.00000000000E+00 0.  1.
         13    1    3    3    0    0  0.52400345726E+01  0.39376690528E+02 -0.38753177537E+02  0.55495860102E+02  0.00000000000E+00 0. -1.
<mgrwt>
<rscale>  0 0.90969468E+02</rscale>
<asrwt>0</asrwt>
<pdfrwt beam="1">  1        2 0.17320897E-02 0.90969468E+02</pdfrwt>
<pdfrwt beam="2">  1       -2 0.28270548E-01 0.90969468E+02</pdfrwt>
<totfact> 0.64962012E+04</totfact>
</mgrwt>
</event>
<event>
 5    1  0.1270889E+001  0.9153602E+02  0.7546771E-02  0.1299174E+00
          3   -1    0    0  501    0  0.00000000000E+00  0.00000000000E+00  0.94383274407E+02  0.94383274407E+02  0.00000000000E+00 0. -1.
         -3   -1    0    0    0  501 -0.00000000000E+00 -0.00000000000E+00 -0.22193664404E+02  0.22193664404E+02  0.00000000000E+00 0.  1.
         23    2    1    2    0    0  0.00000000000E+00  0.00000000000E+00  0.72189610003E+02  0.11657693881E+03  0.91536019524E+02 0.  0.
        -11    1    3    3    0    0  0.13115390177E+02 -0.33722532437E+02  0.40119952804E+00  0.36185406099E+02  0.00000000000E+00 0.  1.
         11    1    3    3    0    0 -0.13115390177E+02  0.33722532437E+02  0.71788410475E+02  0.80391532713E+02  0.00000000000E+00 0. -1.
<mgrwt>
<rscale>  0 0.91536020E+02</rscale>
<asrwt>0</asrwt>
<pdfrwt beam="1">  1        3 0.14520504E-01 0.91536020E+02</pdfrwt>
<pdfrwt beam="2">  1       -3 0.34144100E-02 0.91536020E+02</pdfrwt>
<totfact> 0.33125661E+04</totfact>
</mgrwt>
</event>
<event>
 5    1  0.1270889E+001  0.8923133E+02  0.7546771E-02  0.1304724E+00
         -2   -1    0    0    0  501 -0.00000000000E+00  0.00000000000E+00  0.80593204905E+02  0.80593204905E+02  0.00000000000E+00 0. -1.
          2   -1    0    0  501    0  0.00000000000E+00 -0.00000000000E+00 -0.24698824504E+02  0.24698824504E+02  0.00000000000E+00 0.  1.
         23    2    1    2    0    0  0.00000000000E+00  0.00000000000E+00  0.55894380402E+02  0.10529202941E+03  0.89231326879E+02 0.  0.
        -11    1    3    3    0    0  0.17616975860E+02  0.25506263760E+02 -0.99161356787E+01  0.32546229832E+02  0.00000000000E+00 0.  1.
         11    1    3    3    0    0 -0.17616975860E+02 -0.25506263760E+02  0.65810516080E+02  0.72745799578E+02  0.00000000000E+00 0. -1.
<mgrwt>
<rscale>  0 0.89231327E+02</rscale>
<asrwt>0</asrwt>
<pdfrwt beam="2">  1        2 0.37998192E-02 0.89231327E+02</pdfrwt>
<pdfrwt beam="1">  1       -2 0.12398955E-01 0.89231327E+02</pdfrwt>
<totfact> 0.89525554E+04</totfact>
</mgrwt>
</event>
<event>
 5    1  0.1270889E+001  0.9055336E+02  0.7546771E-02  0.1301517E+00
         -2   -1    0    0    0  501 -0.00000000000E+00  0.00000000000E+00  0.81397415378E+02  0.81397415378E+02  0.00000000000E+00 0.  1.
          2   -1    0    0  501    0  0.00000000000E+00 -0.00000000000E+00 -0.25184802404E+02  0.25184802404E+02  0.00000000000E+00 0. -1.
         23    2    1    2    0    0  0.00000000000E+00  0.00000000000E+00  0.56212612974E+02  0.10658221778E+03  0.90553361561E+02 0.  0.
        -11    1    3    3    0    0  0.58936051045E+00 -0.25232486559E+02  0.72349237991E+02  0.76625308884E+02  0.00000000000E+00 0.  1.
         11    1    3    3    0    0 -0.58936051045E+00  0.25232486559E+02 -0.16136625017E+02  0.29956908897E+02  0.00000000000E+00 0. -1.
<mgrwt>
<rscale>  0 0.90553362E+02</rscale>
<asrwt>0</asrwt>
<pdfrwt beam="2">  1        2 0.38745850E-02 0.90553362E+02</pdfrwt>
<pdfrwt beam="1">  1       -2 0.12522679E-01 0.90553362E+02</pdfrwt>
<totfact> 0.86112151E+04</totfact>
</mgrwt>
</event>
<event>
 5    1  0.1270889E+001  0.9101464E+02  0.7546771E-02  0.1300413E+00
          2   -1    0    0  501    0  0.00000000000E+00  0.00000000000E+00  0.39029824261E+02  0.39029824261E+02  0.00000000000E+00 0. -1.
         -2   -1    0    0    0  501 -0.00000000000E+00 -0.00000000000E+00 -0.53059843700E+02  0.53059843700E+02  0.00000000000E+00 0.  1.
         23    2    1    2    0    0  0.00000000000E+00  0.00000000000E+00 -0.14030019439E+02  0.92089667961E+02  0.91014644424E+02 0.  0.
        -11    1    3    3    0    0 -0.27430514648E+02 -0.36204252728E+02 -0.42009136060E+01  0.45616101593E+02  0.00000000000E+00 0. -1.
         11    1    3    3    0    0  0.27430514648E+02  0.36204252728E+02 -0.98291058326E+01  0.46473566367E+02  0.00000000000E+00 0.  1.
<mgrwt>
<rscale>  0 0.91014644E+02</rscale>
<asrwt>0</asrwt>
<pdfrwt beam="1">  1        2 0.60045884E-02 0.91014644E+02</pdfrwt>
<pdfrwt beam="2">  1       -2 0.81630528E-02 0.91014644E+02</pdfrwt>
<totfact> 0.95275272E+04</totfact>
</mgrwt>
</event>
<event>
 5    1  0.1270889E+001  0.9013434E+02  0.7546771E-02  0.1302527E+00
         -2   -1    0    0    0  501 -0.00000000000E+00  0.00000000000E+00  0.16473520692E+02  0.16473520692E+02  0.00000000000E+00 0.  1.
          2   -1    0    0  501    0  0.00000000000E+00 -0.00000000000E+00 -0.12329178099E+03  0.12329178099E+03  0.00000000000E+00 0. -1.
         23    2    1    2    0    0  0.00000000000E+00  0.00000000000E+00 -0.10681826030E+03  0.13976530168E+03  0.90134337637E+02 0.  0.
        -13    1    3    3    0    0  0.13115592849E+02 -0.14635222256E+02  0.94793475783E+01  0.21818949030E+02  0.00000000000E+00 0.  1.
         13    1    3    3    0    0 -0.13115592849E+02  0.14635222256E+02 -0.11629760788E+03  0.11794635265E+03  0.00000000000E+00 0. -1.
<mgrwt>
<rscale>  0 0.90134338E+02</rscale>
<asrwt>0</asrwt>
<pdfrwt beam="2">  1        2 0.18967967E-01 0.90134338E+02</pdfrwt>
<pdfrwt beam="1">  1       -2 0.25343877E-02 0.90134338E+02</pdfrwt>
<totfact> 0.13517388E+05</totfact>
</mgrwt>
</event>
<event>
 5    1  0.1270889E+001  0.9200184E+02  0.7546771E-02  0.1298075E+00
          1   -1    0    0  501    0  0.00000000000E+00  0.00000000000E+00  0.94511321993E+02  0.94511321993E+02  0.00000000000E+00 0. -1.
         -1   -1    0    0    0  501 -0.00000000000E+00 -0.00000000000E+00 -0.22389747226E+02  0.22389747226E+02  0.00000000000E+00 0.  1.
         23    2    1    2    0    0  0.00000000000E+00  0.00000000000E+00  0.72121574767E+02  0.11690106922E+03  0.92001839318E+02 0.  0.
        -13    1    3    3    0    0  0.31548625871E+02  0.33475307166E+02  0.35532860070E+02  0.58124832292E+02  0.00000000000E+00 0. -1.
         13    1    3    3    0    0 -0.31548625871E+02 -0.33475307166E+02  0.36588714696E+02  0.58776236927E+02  0.00000000000E+00 0.  1.
<mgrwt>
<rscale>  0 0.92001839E+02</rscale>
<asrwt>0</asrwt>
<pdfrwt beam="1">  1        1 0.14540203E-01 0.92001839E+02</pdfrwt>
<pdfrwt beam="2">  1       -1 0.34445766E-02 0.92001839E+02</pdfrwt>
<totfact> 0.10096453E+05</totfact>
</mgrwt>
</event>
<event>
 5    1  0.1270889E+001  0.1003996E+03  0.7546771E-02  0.1279458E+00
          1   -1    0    0  501    0  0.00000000000E+00  0.00000000000E+00  0.21237430648E+03  0.21237430648E+03  0.00000000000E+00 0. -1.
         -1   -1    0    0    0  501 -0.00000000000E+00 -0.00000000000E+00 -0.11865927884E+02  0.11865927884E+02  0.00000000000E+00 0.  1.
         23    2    1    2    0    0  0.00000000000E+00  0.00000000000E+00  0.20050837860E+03  0.22424023437E+03  0.10039956584E+03 0.  0.
        -11    1    3    3    0    0 -0.30355664200E+02 -0.39472815246E+02  0.86049424215E+02  0.99418674806E+02  0.00000000000E+00 0.  1.
         11    1    3    3    0    0  0.30355664200E+02  0.39472815246E+02  0.11445895438E+03  0.12482155956E+03  0.00000000000E+00 0. -1.
<mgrwt>
<rscale>  0 0.10039957E+03</rscale>
<asrwt>0</asrwt>
<pdfrwt beam="1">  1        1 0.32672967E-01 0.10039957E+03</pdfrwt>
<pdfrwt beam="2">  1       -1 0.18255275E-02 0.10039957E+03</pdfrwt>
<totfact> 0.92402357E+04</totfact>
</mgrwt>
</event>
<event>
 5    1  0.1270889E+001  0.9043967E+02  0.7546771E-02  0.1301790E+00
         -1   -1    0    0    0  501 -0.00000000000E+00  0.00000000000E+00  0.86472161187E+02  0.86472161187E+02  0.00000000000E+00 0.  1.
          1   -1    0    0  501    0  0.00000000000E+00 -0.00000000000E+00 -0.23647302747E+02  0.23647302747E+02  0.00000000000E+00 0. -1.
         23    2    1    2    0    0  0.00000000000E+00  0.00000000000E+00  0.62824858441E+02  0.11011946393E+03  0.90439667729E+02 0.  0.
        -13    1    3    3    0    0 -0.92038978389E+01  0.27388281294E+02 -0.10941965267E+02  0.30895894413E+02  0.00000000000E+00 0. -1.
         13    1    3    3    0    0  0.92038978389E+01 -0.27388281294E+02  0.73766823708E+02  0.79223569521E+02  0.00000000000E+00 0.  1.
<mgrwt>
<rscale>  0 0.90439668E+02</rscale>
<asrwt>0</asrwt>
<pdfrwt beam="2">  1        1 0.36380466E-02 0.90439668E+02</pdfrwt>
<pdfrwt beam="1">  1       -1 0.13303409E-01 0.90439668E+02</pdfrwt>
<totfact> 0.85284028E+04</totfact>
</mgrwt>
</event>
<event>
 5    1  0.1270889E+001  0.9290757E+02  0.7546771E-02  0.1295960E+00
          1   -1    0    0  501    0  0.00000000000E+00  0.00000000000E+00  0.46610200487E+02  0.46610200487E+02  0.00000000000E+00 0. -1.
         -1   -1    0    0    0  501 -0.00000000000E+00 -0.00000000000E+00 -0.46297889946E+02  0.46297889946E+02  0.00000000000E+00 0.  1.
         23    2    1    2    0    0  0.00000000000E+00  0.00000000000E+00  0.31231054143E+00  0.92908090433E+02  0.92907565516E+02 0.  0.
        -11    1    3    3    0    0  0.61138551978E+01 -0.45345977088E+02 -0.78636823751E+01  0.46427086533E+02  0.00000000000E+00 0.  1.
         11    1    3    3    0    0 -0.61138551978E+01  0.45345977088E+02  0.81759929165E+01  0.46481003900E+02  0.00000000000E+00 0. -1.
<mgrwt>
<rscale>  0 0.92907566E+02</rscale>
<asrwt>0</asrwt>
<pdfrwt beam="1">  1        1 0.71708001E-02 0.92907566E+02</pdfrwt>
<pdfrwt beam="2">  1       -1 0.71227523E-02 0.92907566E+02</pdfrwt>
<totfact> 0.88003899E+04</totfact>
</mgrwt>
</event>
<event>
 5    1  0.1270889E+001  0.9277960E+02  0.7546771E-02  0.1296257E+00
          2   -1    0    0  501    0  0.00000000000E+00  0.00000000000E+00  0.74921334542E+02  0.74921334542E+02  0.00000000000E+00 0. -1.
         -2   -1    0    0    0  501 -0.00000000000E+00 -0.00000000000E+00 -0.28723638935E+02  0.28723638935E+02  0.00000000000E+00 0.  1.
         23    2    1    2    0    0  0.00000000000E+00  0.00000000000E+00  0.46197695607E+02  0.10364497348E+03  0.92779596075E+02 0.  0.
        -13    1    3    3    0    0 -0.33651220427E+02 -0.73248299642E+01 -0.11620722989E+02  0.36346925221E+02  0.00000000000E+00 0.  1.
         13    1    3    3    0    0  0.33651220427E+02  0.73248299642E+01  0.57818418595E+02  0.67298048256E+02  0.00000000000E+00 0. -1.
<mgrwt>
<rscale>  0 0.92779596E+02</rscale>
<asrwt>0</asrwt>
<pdfrwt beam="1">  1        2 0.11526359E-01 0.92779596E+02</pdfrwt>
<pdfrwt beam="2">  1       -2 0.44190214E-02 0.92779596E+02</pdfrwt>
<totfact> 0.10737927E+05</totfact>
</mgrwt>
</event>
<event>
 5    1  0.1270889E+001  0.9026265E+02  0.7546771E-02  0.1302217E+00
         -1   -1    0    0    0  501 -0.00000000000E+00  0.00000000000E+00  0.26066869470E+02  0.26066869470E+02  0.00000000000E+00 0.  1.
          1   -1    0    0  501    0  0.00000000000E+00 -0.00000000000E+00 -0.78138894758E+02  0.78138894758E+02  0.00000000000E+00 0. -1.
         23    2    1    2    0    0  0.00000000000E+00  0.00000000000E+00 -0.52072025288E+02  0.10420576423E+03  0.90262647206E+02 0.  0.
        -11    1    3    3    0    0  0.21266723014E+02  0.39676148712E+02 -0.22319025356E+02  0.50245489123E+02  0.00000000000E+00 0.  1.
         11    1    3    3    0    0 -0.21266723014E+02 -0.39676148712E+02 -0.29752999932E+02  0.53960275105E+02  0.00000000000E+00 0. -1.
<mgrwt>
<rscale>  0 0.90262647E+02</rscale>
<asrwt>0</asrwt>
<pdfrwt beam="2">  1        1 0.12021369E-01 0.90262647E+02</pdfrwt>
<pdfrwt beam="1">  1       -1 0.40102875E-02 0.90262647E+02</pdfrwt>
<totfact> 0.10318471E+05</totfact>
</mgrwt>
</event>
<event>
 5    1  0.1270889E+001  0.9299199E+02  0.7546771E-02  0.1295764E+00
          2   -1    0    0  501    0  0.00000000000E+00  0.00000000000E+00  0.25896631969E+02  0.25896631969E+02  0.00000000000E+00 0. -1.
         -2   -1    0    0    0  501 -0.00000000000E+00 -0.00000000000E+00 -0.83481031813E+02  0.83481031813E+02  0.00000000000E+00 0.  1.
         23    2    1    2    0    0  0.00000000000E+00  0.00000000000E+00 -0.57584399844E+02  0.10937766378E+03  0.92991990133E+02 0.  0.
        -13    1    3    3    0    0  0.20947280994E+02  0.52886170871E+00  0.20028241532E+02  0.28986181787E+02  0.00000000000E+00 0. -1.
         13    1    3    3    0    0 -0.20947280994E+02 -0.52886170871E+00 -0.77612641376E+02  0.80391481994E+02  0.00000000000E+00 0.  1.
<mgrwt>
<rscale>  0 0.92991990E+02</rscale>
<asrwt>0</asrwt>
<pdfrwt beam="1">  1        2 0.39840972E-02 0.92991990E+02</pdfrwt>
<pdfrwt beam="2">  1       -2 0.12843236E-01 0.92991990E+02</pdfrwt>
<totfact> 0.80090144E+04</totfact>
</mgrwt>
</event>
<event>
 5    1  0.1270889E+001  0.8881681E+02  0.7546771E-02  0.1305743E+00
          2   -1    0    0  501    0  0.00000000000E+00  0.00000000000E+00  0.15553817500E+03  0.15553817500E+03  0.00000000000E+00 0. -1.
         -2   -1    0    0    0  501 -0.00000000000E+00 -0.00000000000E+00 -0.12679245158E+02  0.12679245158E+02  0.00000000000E+00 0.  1.
         23    2    1    2    0    0  0.00000000000E+00  0.00000000000E+00  0.14285892985E+03  0.16821742016E+03  0.88816814900E+02 0.  0.
        -11    1    3    3    0    0 -0.17528959190E+02 -0.17964748759E+02  0.14081514299E+03  0.14303461506E+03  0.00000000000E+00 0. -1.
         11    1    3    3    0    0  0.17528959190E+02  0.17964748759E+02  0.20437868523E+01  0.25182805104E+02  0.00000000000E+00 0.  1.
<mgrwt>
<rscale>  0 0.88816815E+02</rscale>
<asrwt>0</asrwt>
<pdfrwt beam="1">  1        2 0.23928949E-01 0.88816815E+02</pdfrwt>
<pdfrwt beam="2">  1       -2 0.19506532E-02 0.88816815E+02</pdfrwt>
<totfact> 0.15195644E+05</totfact>
</mgrwt>
</event>
<event>
 5    1  0.1270889E+001  0.9137606E+02  0.7546771E-02  0.1299553E+00
         -1   -1    0    0    0  501 -0.00000000000E+00  0.00000000000E+00  0.28803255084E+02  0.28803255084E+02  0.00000000000E+00 0.  1.
          1   -1    0    0  501    0  0.00000000000E+00 -0.00000000000E+00 -0.72470843369E+02  0.72470843369E+02  0.00000000000E+00 0. -1.
         23    2    1    2    0    0  0.00000000000E+00  0.00000000000E+00 -0.43667588284E+02  0.10127409845E+03  0.91376062242E+02 0.  0.
        -13    1    3    3    0    0 -0.42751422192E+02  0.14696387474E+02 -0.14504752962E+02  0.47476897147E+02  0.00000000000E+00 0. -1.
         13    1    3    3    0    0  0.42751422192E+02 -0.14696387474E+02 -0.29162835322E+02  0.53797201305E+02  0.00000000000E+00 0.  1.
<mgrwt>
<rscale>  0 0.91376062E+02</rscale>
<asrwt>0</asrwt>
<pdfrwt beam="2">  1        1 0.11149360E-01 0.91376062E+02</pdfrwt>
<pdfrwt beam="1">  1       -1 0.44312701E-02 0.91376062E+02</pdfrwt>
<totfact> 0.98602854E+04</totfact>
</mgrwt>
</event>
<event>
 5    1  0.1270889E+001  0.9114936E+02  0.7546771E-02  0.1300092E+00
         -2   -1    0    0    0  501 -0.00000000000E+00  0.00000000000E+00  0.87552004407E+01  0.87552004407E+01  0.00000000000E+00 0.  1.
          2   -1    0    0  501    0  0.00000000000E+00 -0.00000000000E+00 -0.23723631709E+03  0.23723631709E+03  0.00000000000E+00 0. -1.
         23    2    1    2    0    0  0.00000000000E+00  0.00000000000E+00 -0.22848111665E+03  0.24599151753E+03  0.91149361116E+02 0.  0.
        -11    1    3    3    0    0  0.11736067085E+02 -0.39760872978E+02 -0.63149609268E+02  0.75541613971E+02  0.00000000000E+00 0.  1.
         11    1    3    3    0    0 -0.11736067085E+02  0.39760872978E+02 -0.16533150739E+03  0.17044990356E+03  0.00000000000E+00 0. -1.
<mgrwt>
<rscale>  0 0.91149361E+02</rscale>
<asrwt>0</asrwt>
<pdfrwt beam="2">  1        2 0.36497893E-01 0.91149361E+02</pdfrwt>
<pdfrwt beam="1">  1       -2 0.13469540E-02 0.91149361E+02</pdfrwt>
<totfact> 0.16477518E+05</totfact>
</mgrwt>
</event>
<event>
 5    1  0.1270889E+001  0.9036051E+02  0.7546771E-02  0.1301981E+00
          2   -1    0    0  501    0  0.00000000000E+00  0.00000000000E+00  0.19364722648E+02  0.19364722648E+02  0.00000000000E+00 0.  1.
         -2   -1    0    0    0  501 -0.00000000000E+00 -0.00000000000E+00 -0.10541103651E+03  0.10541103651E+03  0.00000000000E+00 0. -1.
         23    2    1    2    0    0  0.00000000000E+00  0.00000000000E+00 -0.86046313867E+02  0.12477575916E+03  0.90360510981E+02 0.  0.
        -11    1    3    3    0    0  0.20659321574E+02  0.78967593938E+01 -0.97424530913E+02  0.99903481423E+02  0.00000000000E+00 0. -1.
         11    1    3    3    0    0 -0.20659321574E+02 -0.78967593938E+01  0.11378217047E+02  0.24872277740E+02  0.00000000000E+00 0.  1.
<mgrwt>
<rscale>  0 0.90360511E+02</rscale>
<asrwt>0</asrwt>
<pdfrwt beam="1">  1        2 0.29791881E-02 0.90360511E+02</pdfrwt>
<pdfrwt beam="2">  1       -2 0.16217083E-01 0.90360511E+02</pdfrwt>
<totfact> 0.80329292E+04</totfact>
</mgrwt>
</event>
<event>
 5    1  0.1270889E+001  0.9568682E+02  0.7546771E-02  0.1289637E+00
         -2   -1    0    0    0  501 -0.00000000000E+00  0.00000000000E+00  0.67120902040E+01  0.67120902040E+01  0.00000000000E+00 0.  1.
          2   -1    0    0  501    0  0.00000000000E+00 -0.00000000000E+00 -0.34102518480E+03  0.34102518480E+03  0.00000000000E+00 0. -1.
         23    2    1    2    0    0  0.00000000000E+00  0.00000000000E+00 -0.33431309460E+03  0.34773727500E+03  0.95686818365E+02 0.  0.
        -13    1    3    3    0    0  0.26167219371E+02 -0.36842965874E+02 -0.11005757714E+03  0.11897393744E+03  0.00000000000E+00 0.  1.
         13    1    3    3    0    0 -0.26167219371E+02  0.36842965874E+02 -0.22425551746E+03  0.22876333757E+03  0.00000000000E+00 0. -1.
<mgrwt>
<rscale>  0 0.95686818E+02</rscale>
<asrwt>0</asrwt>
<pdfrwt beam="2">  1        2 0.52465411E-01 0.95686818E+02</pdfrwt>
<pdfrwt beam="1">  1       -2 0.10326293E-02 0.95686818E+02</pdfrwt>
<totfact> 0.16560621E+05</totfact>
</mgrwt>
</event>
<event>
 5    1  0.1270889E+001  0.9205205E+02  0.7546771E-02  0.1297957E+00
          3   -1    0    0  501    0  0.00000000000E+00  0.00000000000E+00  0.15692353956E+02  0.15692353956E+02  0.00000000000E+00 0.  1.
         -3   -1    0    0    0  501 -0.00000000000E+00 -0.00000000000E+00 -0.13499537186E+03  0.13499537186E+03  0.00000000000E+00 0. -1.
         23    2    1    2    0    0  0.00000000000E+00  0.00000000000E+00 -0.11930301790E+03  0.15068772581E+03  0.92052053918E+02 0.  0.
        -13    1    3    3    0    0 -0.67691976539E+01 -0.32735912163E+02 -0.78613865560E+01  0.34340404491E+02  0.00000000000E+00 0.  1.
         13    1    3    3    0    0  0.67691976539E+01  0.32735912163E+02 -0.11144163135E+03  0.11634732132E+03  0.00000000000E+00 0. -1.
<mgrwt>
<rscale>  0 0.92052054E+02</rscale>
<asrwt>0</asrwt>
<pdfrwt beam="1">  1        3 0.24142083E-02 0.92052054E+02</pdfrwt>
<pdfrwt beam="2">  1       -3 0.20768519E-01 0.92052054E+02</pdfrwt>
<totfact> 0.30465901E+04</totfact>
</mgrwt>
</event>
<event>
 5    1  0.1270889E+001  0.1016633E+03  0.7546771E-02  0.1276837E+00
          1   -1    0    0  501    0  0.00000000000E+00  0.00000000000E+00  0.15862045905E+03  0.15862045905E+03  0.00000000000E+00 0.  1.
         -1   -1    0    0    0  501 -0.00000000000E+00 -0.00000000000E+00 -0.16289569012E+02  0.16289569012E+02  0.00000000000E+00 0. -1.
         23    2    1    2    0    0  0.00000000000E+00  0.00000000000E+00  0.14233089004E+03  0.17491002806E+03  0.10166334471E+03 0.  0.
        -11    1    3    3    0    0  0.17384349786E+02 -0.47760566883E+02  0.69864746423E+02  0.86396586502E+02  0.00000000000E+00 0. -1.
         11    1    3    3    0    0 -0.17384349786E+02  0.47760566883E+02  0.72466143615E+02  0.88513441561E+02  0.00000000000E+00 0.  1.
<mgrwt>
<rscale>  0 0.10166334E+03</rscale>
<asrwt>0</asrwt>
<pdfrwt beam="1">  1        1 0.24403146E-01 0.10166334E+03</pdfrwt>
<pdfrwt beam="2">  1       -1 0.25060876E-02 0.10166334E+03</pdfrwt>
<totfact> 0.84322340E+04</totfact>
</mgrwt>
</event>
<event>
 5    1  0.1270889E+001  0.9083158E+02  0.7546771E-02  0.1300850E+00
          2   -1    0    0  501    0  0.00000000000E+00  0.00000000000E+00  0.28130508195E+03  0.28130508195E+03  0.00000000000E+00 0. -1.
         -2   -1    0    0    0  501 -0.00000000000E+00 -0.00000000000E+00 -0.73322308637E+01  0.73322308637E+01  0.00000000000E+00 0.  1.
         23    2    1    2    0    0  0.00000000000E+00  0.00000000000E+00  0.27397285109E+03  0.28863731281E+03  0.90831576095E+02 0.  0.
        -13    1    3    3    0    0 -0.32592818585E+02 -0.31228182635E+02  0.12106525887E+03  0.12920637801E+03  0.00000000000E+00 0. -1.
         13    1    3    3    0    0  0.32592818585E+02  0.31228182635E+02  0.15290759222E+03  0.15943093480E+03  0.00000000000E+00 0.  1.
<mgrwt>
<rscale>  0 0.90831576E+02</rscale>
<asrwt>0</asrwt>
<pdfrwt beam="1">  1        2 0.43277697E-01 0.90831576E+02</pdfrwt>
<pdfrwt beam="2">  1       -2 0.11280357E-02 0.90831576E+02</pdfrwt>
<totfact> 0.17718741E+05</totfact>
</mgrwt>
</event>
<event>
 5    1  0.1270889E+001  0.8874265E+02  0.7546771E-02  0.1305925E+00
         -1   -1    0    0    0  501 -0.00000000000E+00  0.00000000000E+00  0.55704069364E+02  0.55704069364E+02  0.00000000000E+00 0.  1.
          1   -1    0    0  501    0  0.00000000000E+00 -0.00000000000E+00 -0.35344180723E+02  0.35344180723E+02  0.00000000000E+00 0. -1.
         23    2    1    2    0    0  0.00000000000E+00  0.00000000000E+00  0.20359888641E+02  0.91048250087E+02  0.88742654786E+02 0.  0.
        -13    1    3    3    0    0 -0.27720147631E+02 -0.10071588381E+01  0.45711978858E+02  0.53469673318E+02  0.00000000000E+00 0.  1.
         13    1    3    3    0    0  0.27720147631E+02  0.10071588381E+01 -0.25352090217E+02  0.37578576769E+02  0.00000000000E+00 0. -1.
<mgrwt>
<rscale>  0 0.88742655E+02</rscale>
<asrwt>0</asrwt>
<pdfrwt beam="2">  1        1 0.54375663E-02 0.88742655E+02</pdfrwt>
<pdfrwt beam="1">  1       -1 0.85698568E-02 0.88742655E+02</pdfrwt>
<totfact> 0.96049854E+04</totfact>
</mgrwt>
</event>
<event>
 5    1  0.1270889E+001  0.8940616E+02  0.7546771E-02  0.1304296E+00
         -1   -1    0    0    0  501 -0.00000000000E+00  0.00000000000E+00  0.59339357232E+01  0.59339357232E+01  0.00000000000E+00 0.  1.
          1   -1    0    0  501    0  0.00000000000E+00 -0.00000000000E+00 -0.33676897115E+03  0.33676897115E+03  0.00000000000E+00 0. -1.
         23    2    1    2    0    0  0.00000000000E+00  0.00000000000E+00 -0.33083503543E+03  0.34270290687E+03  0.89406161496E+02 0.  0.
        -11    1    3    3    0    0  0.41256080301E+02  0.16285867135E+02 -0.18678402487E+03  0.19197803410E+03  0.00000000000E+00 0. -1.
         11    1    3    3    0    0 -0.41256080301E+02 -0.16285867135E+02 -0.14405101055E+03  0.15072487277E+03  0.00000000000E+00 0.  1.
<mgrwt>
<rscale>  0 0.89406161E+02</rscale>
<asrwt>0</asrwt>
<pdfrwt beam="2">  1        1 0.51810626E-01 0.89406161E+02</pdfrwt>
<pdfrwt beam="1">  1       -1 0.91291293E-03 0.89406161E+02</pdfrwt>
<totfact> 0.13792025E+05</totfact>
</mgrwt>
</event>
<event>
 5    1  0.1270889E+001  0.8745471E+02  0.7546771E-02  0.1309135E+00
         -3   -1    0    0    0  501 -0.00000000000E+00  0.00000000000E+00  0.69680008343E+02  0.69680008343E+02  0.00000000000E+00 0.  1.
          3   -1    0    0  501    0  0.00000000000E+00 -0.00000000000E+00 -0.27440894085E+02  0.27440894085E+02  0.00000000000E+00 0. -1.
         23    2    1    2    0    0  0.00000000000E+00  0.00000000000E+00  0.42239114259E+02  0.97120902428E+02  0.87454713510E+02 0.  0.
        -11    1    3    3    0    0 -0.52615712034E+01  0.37118786749E+02  0.46114905532E+02  0.59431245767E+02  0.00000000000E+00 0.  1.
         11    1    3    3    0    0  0.52615712034E+01 -0.37118786749E+02 -0.38757912738E+01  0.37689656661E+02  0.00000000000E+00 0. -1.
<mgrwt>
<rscale>  0 0.87454714E+02</rscale>
<asrwt>0</asrwt>
<pdfrwt beam="2">  1        3 0.42216760E-02 0.87454714E+02</pdfrwt>
<pdfrwt beam="1">  1       -3 0.10720001E-01 0.87454714E+02</pdfrwt>
<totfact> 0.39062390E+04</totfact>
</mgrwt>
</event>
<event>
 5    1  0.1270889E+001  0.8792358E+02  0.7546771E-02  0.1307959E+00
         -2   -1    0    0    0  501 -0.00000000000E+00  0.00000000000E+00  0.12729294288E+03  0.12729294288E+03  0.00000000000E+00 0.  1.
          2   -1    0    0  501    0  0.00000000000E+00 -0.00000000000E+00 -0.15182607568E+02  0.15182607568E+02  0.00000000000E+00 0. -1.
         23    2    1    2    0    0  0.00000000000E+00  0.00000000000E+00  0.11211033531E+03  0.14247555044E+03  0.87923575856E+02 0.  0.
        -13    1    3    3    0    0 -0.30411629205E+02  0.25327247749E+02  0.87068949096E+02  0.95641719799E+02  0.00000000000E+00 0.  1.
         13    1    3    3    0    0  0.30411629205E+02 -0.25327247749E+02  0.25041386212E+02  0.46833830644E+02  0.00000000000E+00 0. -1.
<mgrwt>
<rscale>  0 0.87923576E+02</rscale>
<asrwt>0</asrwt>
<pdfrwt beam="2">  1        2 0.23357859E-02 0.87923576E+02</pdfrwt>
<pdfrwt beam="1">  1       -2 0.19583529E-01 0.87923576E+02</pdfrwt>
<totfact> 0.81041833E+04</totfact>
</mgrwt>
</event>
<event>
 4    1  0.1270889E+001  0.1570065E+03  0.7546771E-02  0.1192118E+00
          1   -1    0    0  501    0  0.00000000000E+00  0.00000000000E+00  0.11025066439E+03  0.11025066439E+03  0.00000000000E+00 0. -1.
         -1   -1    0    0    0  501 -0.00000000000E+00 -0.00000000000E+00 -0.55897680206E+02  0.55897680206E+02  0.00000000000E+00 0.  1.
        -11    1    1    2    0    0 -0.11340106810E+02 -0.72956826247E+02 -0.10497930777E+01  0.73840358775E+02  0.00000000000E+00 0.  1.
         11    1    1    2    0    0  0.11340106810E+02  0.72956826247E+02  0.55402777266E+02  0.92307985826E+02  0.00000000000E+00 0. -1.
<mgrwt>
<rscale>  0 0.15700645E+03</rscale>
<asrwt>0</asrwt>
<pdfrwt beam="1">  1        1 0.16961641E-01 0.15700645E+03</pdfrwt>
<pdfrwt beam="2">  1       -1 0.85996431E-02 0.15700645E+03</pdfrwt>
<totfact> 0.22879321E+04</totfact>
</mgrwt>
</event>
<event>
 5    1  0.1270889E+001  0.8978333E+02  0.7546771E-02  0.1303377E+00
         -3   -1    0    0    0  501 -0.00000000000E+00  0.00000000000E+00  0.89358575043E+02  0.89358575043E+02  0.00000000000E+00 0.  1.
          3   -1    0    0  501    0  0.00000000000E+00 -0.00000000000E+00 -0.22552526626E+02  0.22552526626E+02  0.00000000000E+00 0. -1.
         23    2    1    2    0    0  0.00000000000E+00  0.00000000000E+00  0.66806048418E+02  0.11191110167E+03  0.89783331257E+02 0.  0.
        -13    1    3    3    0    0 -0.25933916771E+02 -0.23717372461E+02 -0.14126508126E+01  0.35172110796E+02  0.00000000000E+00 0. -1.
         13    1    3    3    0    0  0.25933916771E+02  0.23717372461E+02  0.68218699230E+02  0.76738990873E+02  0.00000000000E+00 0.  1.
<mgrwt>
<rscale>  0 0.89783331E+02</rscale>
<asrwt>0</asrwt>
<pdfrwt beam="2">  1        3 0.34696195E-02 0.89783331E+02</pdfrwt>
<pdfrwt beam="1">  1       -3 0.13747473E-01 0.89783331E+02</pdfrwt>
<totfact> 0.35252644E+04</totfact>
</mgrwt>
</event>
<event>
 5    1  0.1270889E+001  0.9231314E+02  0.7546771E-02  0.1297345E+00
         -1   -1    0    0    0  501 -0.00000000000E+00  0.00000000000E+00  0.17164419456E+02  0.17164419456E+02  0.00000000000E+00 0.  1.
          1   -1    0    0  501    0  0.00000000000E+00 -0.00000000000E+00 -0.12411891560E+03  0.12411891560E+03  0.00000000000E+00 0. -1.
         23    2    1    2    0    0  0.00000000000E+00  0.00000000000E+00 -0.10695449615E+03  0.14128333506E+03  0.92313143806E+02 0.  0.
        -11    1    3    3    0    0  0.38344797095E+01 -0.25334129071E+02 -0.11223464604E+03  0.11512227023E+03  0.00000000000E+00 0. -1.
         11    1    3    3    0    0 -0.38344797095E+01  0.25334129071E+02  0.52801498898E+01  0.26161064835E+02  0.00000000000E+00 0.  1.
<mgrwt>
<rscale>  0 0.92313144E+02</rscale>
<asrwt>0</asrwt>
<pdfrwt beam="2">  1        1 0.19095218E-01 0.92313144E+02</pdfrwt>
<pdfrwt beam="1">  1       -1 0.26406798E-02 0.92313144E+02</pdfrwt>
<totfact> 0.10479343E+05</totfact>
</mgrwt>
</event>
<event>
 5    1  0.1270889E+001  0.8966386E+02  0.7546771E-02  0.1303668E+00
         -3   -1    0    0    0  501 -0.00000000000E+00  0.00000000000E+00  0.51106631701E+02  0.51106631701E+02  0.00000000000E+00 0.  1.
          3   -1    0    0  501    0  0.00000000000E+00 -0.00000000000E+00 -0.39327618556E+02  0.39327618556E+02  0.00000000000E+00 0. -1.
         23    2    1    2    0    0  0.00000000000E+00  0.00000000000E+00  0.11779013145E+02  0.90434250256E+02  0.89663863784E+02 0.  0.
        -11    1    3    3    0    0 -0.55524391247E+01 -0.26619846322E+02  0.41839214119E+02  0.49899555475E+02  0.00000000000E+00 0.  1.
         11    1    3    3    0    0  0.55524391247E+01  0.26619846322E+02 -0.30060200974E+02  0.40534694782E+02  0.00000000000E+00 0. -1.
<mgrwt>
<rscale>  0 0.89663864E+02</rscale>
<asrwt>0</asrwt>
<pdfrwt beam="2">  1        3 0.60504028E-02 0.89663864E+02</pdfrwt>
<pdfrwt beam="1">  1       -3 0.78625587E-02 0.89663864E+02</pdfrwt>
<totfact> 0.37043818E+04</totfact>
</mgrwt>
</event>
<event>
 5    1  0.1270889E+001  0.9170059E+02  0.7546771E-02  0.1298785E+00
          1   -1    0    0  501    0  0.00000000000E+00  0.00000000000E+00  0.13966745099E+03  0.13966745099E+03  0.00000000000E+00 0.  1.
         -1   -1    0    0    0  501 -0.00000000000E+00 -0.00000000000E+00 -0.15051823002E+02  0.15051823002E+02  0.00000000000E+00 0. -1.
         23    2    1    2    0    0  0.00000000000E+00  0.00000000000E+00  0.12461562799E+03  0.15471927399E+03  0.91700594359E+02 0.  0.
        -13    1    3    3    0    0 -0.54918331659E+01 -0.45016940007E+02  0.73696830004E+02  0.86532698281E+02  0.00000000000E+00 0.  1.
         13    1    3    3    0    0  0.54918331659E+01  0.45016940007E+02  0.50918797984E+02  0.68186575711E+02  0.00000000000E+00 0. -1.
<mgrwt>
<rscale>  0 0.91700594E+02</rscale>
<asrwt>0</asrwt>
<pdfrwt beam="1">  1        1 0.21487299E-01 0.91700594E+02</pdfrwt>
<pdfrwt beam="2">  1       -1 0.23156652E-02 0.91700594E+02</pdfrwt>
<totfact> 0.10898038E+05</totfact>
</mgrwt>
</event>
<event>
 5    1  0.1270889E+001  0.9362168E+02  0.7546771E-02  0.1294311E+00
         -2   -1    0    0    0  501 -0.00000000000E+00  0.00000000000E+00  0.85802432437E+02  0.85802432437E+02  0.00000000000E+00 0.  1.
          2   -1    0    0  501    0  0.00000000000E+00 -0.00000000000E+00 -0.25538374436E+02  0.25538374436E+02  0.00000000000E+00 0. -1.
         23    2    1    2    0    0  0.00000000000E+00  0.00000000000E+00  0.60264058001E+02  0.11134080687E+03  0.93621677983E+02 0.  0.
        -11    1    3    3    0    0 -0.17401881424E+02  0.42093952720E+02  0.42969919758E+02  0.62619009388E+02  0.00000000000E+00 0. -1.
         11    1    3    3    0    0  0.17401881424E+02 -0.42093952720E+02  0.17294138243E+02  0.48721797486E+02  0.00000000000E+00 0.  1.
<mgrwt>
<rscale>  0 0.93621678E+02</rscale>
<asrwt>0</asrwt>
<pdfrwt beam="2">  1        2 0.39289807E-02 0.93621678E+02</pdfrwt>
<pdfrwt beam="1">  1       -2 0.13200374E-01 0.93621678E+02</pdfrwt>
<totfact> 0.78155936E+04</totfact>
</mgrwt>
</event>
<event>
 5    1  0.1270889E+001  0.9367520E+02  0.7546771E-02  0.1294188E+00
         -3   -1    0    0    0  501 -0.00000000000E+00  0.00000000000E+00  0.15570222933E+02  0.15570222933E+02  0.00000000000E+00 0.  1.
          3   -1    0    0  501    0  0.00000000000E+00 -0.00000000000E+00 -0.14089463679E+03  0.14089463679E+03  0.00000000000E+00 0. -1.
         23    2    1    2    0    0  0.00000000000E+00  0.00000000000E+00 -0.12532441386E+03  0.15646485973E+03  0.93675202801E+02 0.  0.
        -11    1    3    3    0    0 -0.82372326700E+01 -0.45196747753E+02 -0.77894208436E+02  0.90432879625E+02  0.00000000000E+00 0.  1.
         11    1    3    3    0    0  0.82372326700E+01  0.45196747753E+02 -0.47430205426E+02  0.66031980102E+02  0.00000000000E+00 0. -1.
<mgrwt>
<rscale>  0 0.93675203E+02</rscale>
<asrwt>0</asrwt>
<pdfrwt beam="2">  1        3 0.21676097E-01 0.93675203E+02</pdfrwt>
<pdfrwt beam="1">  1       -3 0.23954190E-02 0.93675203E+02</pdfrwt>
<totfact> 0.28728429E+04</totfact>
</mgrwt>
</event>
<event>
 5    1  0.1270889E+001  0.9081936E+02  0.7546771E-02  0.1300880E+00
         -2   -1    0    0    0  501 -0.00000000000E+00  0.00000000000E+00  0.22712989787E+02  0.22712989787E+02  0.00000000000E+00 0.  1.
          2   -1    0    0  501    0  0.00000000000E+00 -0.00000000000E+00 -0.90786763997E+02  0.90786763997E+02  0.00000000000E+00 0. -1.
         23    2    1    2    0    0  0.00000000000E+00  0.00000000000E+00 -0.68073774210E+02  0.11349975378E+03  0.90819355721E+02 0.  0.
        -11    1    3    3    0    0  0.17215881925E+02  0.14049450091E+02 -0.83527890192E+02  0.86433107536E+02  0.00000000000E+00 0. -1.
         11    1    3    3    0    0 -0.17215881925E+02 -0.14049450091E+02  0.15454115982E+02  0.27066646248E+02  0.00000000000E+00 0.  1.
<mgrwt>
<rscale>  0 0.90819356E+02</rscale>
<asrwt>0</asrwt>
<pdfrwt beam="2">  1        2 0.13967194E-01 0.90819356E+02</pdfrwt>
<pdfrwt beam="1">  1       -2 0.34943062E-02 0.90819356E+02</pdfrwt>
<totfact> 0.12046531E+05</totfact>
</mgrwt>
</event>
<event>
 5    1  0.1270889E+001  0.8660644E+02  0.7546771E-02  0.1311284E+00
          3   -1    0    0  501    0  0.00000000000E+00  0.00000000000E+00  0.79984210787E+02  0.79984210787E+02  0.00000000000E+00 0. -1.
         -3   -1    0    0    0  501 -0.00000000000E+00 -0.00000000000E+00 -0.23444239563E+02  0.23444239563E+02  0.00000000000E+00 0.  1.
         23    2    1    2    0    0  0.00000000000E+00  0.00000000000E+00  0.56539971224E+02  0.10342845035E+03  0.86606443154E+02 0.  0.
        -11    1    3    3    0    0  0.12476148952E+02  0.61273808947E+01 -0.20707775191E+02  0.24940149211E+02  0.00000000000E+00 0.  1.
         11    1    3    3    0    0 -0.12476148952E+02 -0.61273808947E+01  0.77247746416E+02  0.78488301138E+02  0.00000000000E+00 0. -1.
<mgrwt>
<rscale>  0 0.86606443E+02</rscale>
<asrwt>0</asrwt>
<pdfrwt beam="1">  1        3 0.12305263E-01 0.86606443E+02</pdfrwt>
<pdfrwt beam="2">  1       -3 0.36068061E-02 0.86606443E+02</pdfrwt>
<totfact> 0.39562259E+04</totfact>
</mgrwt>
</event>
<event>
 5    1  0.1270889E+001  0.9286011E+02  0.7546771E-02  0.1296070E+00
         -1   -1    0    0    0  501 -0.00000000000E+00  0.00000000000E+00  0.64465169615E+01  0.64465169615E+01  0.00000000000E+00 0.  1.
          1   -1    0    0  501    0  0.00000000000E+00 -0.00000000000E+00 -0.33440535686E+03  0.33440535686E+03  0.00000000000E+00 0. -1.
         23    2    1    2    0    0  0.00000000000E+00  0.00000000000E+00 -0.32795883990E+03  0.34085187382E+03  0.92860105643E+02 0.  0.
        -11    1    3    3    0    0 -0.74484032376E+01  0.42655015209E+02 -0.10246865517E+03  0.11124187308E+03  0.00000000000E+00 0.  1.
         11    1    3    3    0    0  0.74484032376E+01 -0.42655015209E+02 -0.22549018473E+03  0.22961000074E+03  0.00000000000E+00 0. -1.
<mgrwt>
<rscale>  0 0.92860106E+02</rscale>
<asrwt>0</asrwt>
<pdfrwt beam="2">  1        1 0.51446977E-01 0.92860106E+02</pdfrwt>
<pdfrwt beam="1">  1       -1 0.99177185E-03 0.92860106E+02</pdfrwt>
<totfact> 0.12452981E+05</totfact>
</mgrwt>
</event>
<event>
 5    1  0.1270889E+001  0.9319245E+02  0.7546771E-02  0.1295300E+00
         -3   -1    0    0    0  501 -0.00000000000E+00  0.00000000000E+00  0.19969507425E+03  0.19969507425E+03  0.00000000000E+00 0.  1.
          3   -1    0    0  501    0  0.00000000000E+00 -0.00000000000E+00 -0.10872616681E+02  0.10872616681E+02  0.00000000000E+00 0. -1.
         23    2    1    2    0    0  0.00000000000E+00  0.00000000000E+00  0.18882245757E+03  0.21056769093E+03  0.93192445946E+02 0.  0.
        -11    1    3    3    0    0  0.27600705070E+02  0.23035957164E+02  0.27431309393E+02  0.45220913059E+02  0.00000000000E+00 0. -1.
         11    1    3    3    0    0 -0.27600705070E+02 -0.23035957164E+02  0.16139114818E+03  0.16534677787E+03  0.00000000000E+00 0.  1.
<mgrwt>
<rscale>  0 0.93192446E+02</rscale>
<asrwt>0</asrwt>
<pdfrwt beam="2">  1        3 0.16727104E-02 0.93192446E+02</pdfrwt>
<pdfrwt beam="1">  1       -3 0.30722316E-01 0.93192446E+02</pdfrwt>
<totfact> 0.26354568E+04</totfact>
</mgrwt>
</event>
<event>
 5    1  0.1270889E+001  0.9136897E+02  0.7546771E-02  0.1299570E+00
          1   -1    0    0  501    0  0.00000000000E+00  0.00000000000E+00  0.11475321361E+03  0.11475321361E+03  0.00000000000E+00 0. -1.
         -1   -1    0    0    0  501 -0.00000000000E+00 -0.00000000000E+00 -0.18187481640E+02  0.18187481640E+02  0.00000000000E+00 0.  1.
         23    2    1    2    0    0  0.00000000000E+00  0.00000000000E+00  0.96565731967E+02  0.13294069525E+03  0.91368965531E+02 0.  0.
        -11    1    3    3    0    0 -0.13942826376E+02  0.18222306485E+02 -0.91958978025E+01  0.24718806552E+02  0.00000000000E+00 0.  1.
         11    1    3    3    0    0  0.13942826376E+02 -0.18222306485E+02  0.10576162977E+03  0.10822188869E+03  0.00000000000E+00 0. -1.
<mgrwt>
<rscale>  0 0.91368966E+02</rscale>
<asrwt>0</asrwt>
<pdfrwt beam="1">  1        1 0.17654340E-01 0.91368966E+02</pdfrwt>
<pdfrwt beam="2">  1       -1 0.27980742E-02 0.91368966E+02</pdfrwt>
<totfact> 0.10629985E+05</totfact>
</mgrwt>
</event>
<event>
 5    1  0.1270889E+001  0.9017115E+02  0.7546771E-02  0.1302438E+00
          1   -1    0    0  501    0  0.00000000000E+00  0.00000000000E+00  0.23111833098E+03  0.23111833098E+03  0.00000000000E+00 0. -1.
         -1   -1    0    0    0  501 -0.00000000000E+00 -0.00000000000E+00 -0.87951017536E+01  0.87951017536E+01  0.00000000000E+00 0.  1.
         23    2    1    2    0    0  0.00000000000E+00  0.00000000000E+00  0.22232322923E+03  0.23991343274E+03  0.90171153660E+02 0.  0.
        -11    1    3    3    0    0 -0.25437988229E+02  0.24128854311E+02  0.35746693647E+02  0.50071139014E+02  0.00000000000E+00 0.  1.
         11    1    3    3    0    0  0.25437988229E+02 -0.24128854311E+02  0.18657653558E+03  0.18984229372E+03  0.00000000000E+00 0. -1.
<mgrwt>
<rscale>  0 0.90171154E+02</rscale>
<asrwt>0</asrwt>
<pdfrwt beam="1">  1        1 0.35556662E-01 0.90171154E+02</pdfrwt>
<pdfrwt beam="2">  1       -1 0.13530928E-02 0.90171154E+02</pdfrwt>
<totfact> 0.12545343E+05</totfact>
</mgrwt>
</event>
<event>
 5    1  0.1270889E+001  0.9142841E+02  0.7546771E-02  0.1299429E+00
          2   -1    0    0  501    0  0.00000000000E+00  0.00000000000E+00  0.16181479714E+03  0.16181479714E+03  0.00000000000E+00 0.  1.
         -2   -1    0    0    0  501 -0.00000000000E+00 -0.00000000000E+00 -0.12914692770E+02  0.12914692770E+02  0.00000000000E+00 0. -1.
         23    2    1    2    0    0  0.00000000000E+00  0.00000000000E+00  0.14890010437E+03  0.17472948991E+03  0.91428406761E+02 0.  0.
        -11    1    3    3    0    0  0.13627592444E+02  0.26104015128E+02  0.14127482132E+03  0.14431114309E+03  0.00000000000E+00 0.  1.
         11    1    3    3    0    0 -0.13627592444E+02 -0.26104015128E+02  0.76252830521E+01  0.30418346820E+02  0.00000000000E+00 0. -1.
<mgrwt>
<rscale>  0 0.91428407E+02</rscale>
<asrwt>0</asrwt>
<pdfrwt beam="1">  1        2 0.24894583E-01 0.91428407E+02</pdfrwt>
<pdfrwt beam="2">  1       -2 0.19868759E-02 0.91428407E+02</pdfrwt>
<totfact> 0.14242679E+05</totfact>
</mgrwt>
</event>
<event>
 5    1  0.1270889E+001  0.9194009E+02  0.7546771E-02  0.1298220E+00
          2   -1    0    0  501    0  0.00000000000E+00  0.00000000000E+00  0.31055708977E+03  0.31055708977E+03  0.00000000000E+00 0. -1.
         -2   -1    0    0    0  501 -0.00000000000E+00 -0.00000000000E+00 -0.68046902949E+01  0.68046902949E+01  0.00000000000E+00 0.  1.
         23    2    1    2    0    0  0.00000000000E+00  0.00000000000E+00  0.30375239948E+03  0.31736178007E+03  0.91940085160E+02 0.  0.
        -11    1    3    3    0    0 -0.23531607835E+02 -0.36975281287E+02  0.10400426952E+03  0.11286184507E+03  0.00000000000E+00 0. -1.
         11    1    3    3    0    0  0.23531607835E+02  0.36975281287E+02  0.19974812996E+03  0.20449993500E+03  0.00000000000E+00 0.  1.
<mgrwt>
<rscale>  0 0.91940085E+02</rscale>
<asrwt>0</asrwt>
<pdfrwt beam="1">  1        2 0.47778003E-01 0.91940085E+02</pdfrwt>
<pdfrwt beam="2">  1       -2 0.10468757E-02 0.91940085E+02</pdfrwt>
<totfact> 0.17798139E+05</totfact>
</mgrwt>
</event>
<event>
 5    1  0.1270889E+001  0.8960738E+02  0.7546771E-02  0.1303805E+00
          2   -1    0    0  501    0  0.00000000000E+00  0.00000000000E+00  0.33843584246E+02  0.33843584246E+02  0.00000000000E+00 0. -1.
         -2   -1    0    0    0  501 -0.00000000000E+00 -0.00000000000E+00 -0.59313174839E+02  0.59313174839E+02  0.00000000000E+00 0.  1.
         23    2    1    2    0    0  0.00000000000E+00  0.00000000000E+00 -0.25469590593E+02  0.93156759085E+02  0.89607375356E+02 0.  0.
        -13    1    3    3    0    0  0.14584494662E+02 -0.74552690635E+01 -0.56088940996E+02  0.58431650871E+02  0.00000000000E+00 0.  1.
         13    1    3    3    0    0 -0.14584494662E+02  0.74552690635E+01  0.30619350403E+02  0.34725108214E+02  0.00000000000E+00 0. -1.
<mgrwt>
<rscale>  0 0.89607375E+02</rscale>
<asrwt>0</asrwt>
<pdfrwt beam="1">  1        2 0.52067053E-02 0.89607375E+02</pdfrwt>
<pdfrwt beam="2">  1       -2 0.91251038E-02 0.89607375E+02</pdfrwt>
<totfact> 0.96094703E+04</totfact>
</mgrwt>
</event>
<event>
 5    1  0.1270889E+001  0.9139319E+02  0.7546771E-02  0.1299513E+00
         -3   -1    0    0    0  501 -0.00000000000E+00  0.00000000000E+00  0.59998635691E+02  0.59998635691E+02  0.00000000000E+00 0. -1.
          3   -1    0    0  501    0  0.00000000000E+00 -0.00000000000E+00 -0.34803772379E+02  0.34803772379E+02  0.00000000000E+00 0.  1.
         23    2    1    2    0    0  0.00000000000E+00  0.00000000000E+00  0.25194863312E+02  0.94802408071E+02  0.91393191424E+02 0.  0.
        -13    1    3    3    0    0  0.34812454001E+02  0.12129835826E+02 -0.15412412134E+02  0.39957256144E+02  0.00000000000E+00 0.  1.
         13    1    3    3    0    0 -0.34812454001E+02 -0.12129835826E+02  0.40607275446E+02  0.54845151927E+02  0.00000000000E+00 0. -1.
<mgrwt>
<rscale>  0 0.91393191E+02</rscale>
<asrwt>0</asrwt>
<pdfrwt beam="2">  1        3 0.53544265E-02 0.91393191E+02</pdfrwt>
<pdfrwt beam="1">  1       -3 0.92305593E-02 0.91393191E+02</pdfrwt>
<totfact> 0.34836390E+04</totfact>
</mgrwt>
</event>
<event>
 5    1  0.1270889E+001  0.8807643E+02  0.7546771E-02  0.1307578E+00
          3   -1    0    0  501    0  0.00000000000E+00  0.00000000000E+00  0.43332482764E+02  0.43332482764E+02  0.00000000000E+00 0. -1.
         -3   -1    0    0    0  501 -0.00000000000E+00 -0.00000000000E+00 -0.44755444321E+02  0.44755444321E+02  0.00000000000E+00 0.  1.
         23    2    1    2    0    0  0.00000000000E+00  0.00000000000E+00 -0.14229615571E+01  0.88087927085E+02  0.88076433162E+02 0.  0.
        -13    1    3    3    0    0 -0.21906685500E+02 -0.38089115839E+02 -0.36582027684E+01  0.44091564528E+02  0.00000000000E+00 0.  1.
         13    1    3    3    0    0  0.21906685500E+02  0.38089115839E+02  0.22352412114E+01  0.43996362557E+02  0.00000000000E+00 0. -1.
<mgrwt>
<rscale>  0 0.88076433E+02</rscale>
<asrwt>0</asrwt>
<pdfrwt beam="1">  1        3 0.66665359E-02 0.88076433E+02</pdfrwt>
<pdfrwt beam="2">  1       -3 0.68854529E-02 0.88076433E+02</pdfrwt>
<totfact> 0.39083364E+04</totfact>
</mgrwt>
</event>
<event>
 5    1  0.1270889E+001  0.8635236E+02  0.7546771E-02  0.1311933E+00
          1   -1    0    0  501    0  0.00000000000E+00  0.00000000000E+00  0.18856121533E+02  0.18856121533E+02  0.00000000000E+00 0. -1.
         -1   -1    0    0    0  501 -0.00000000000E+00 -0.00000000000E+00 -0.98863516322E+02  0.98863516322E+02  0.00000000000E+00 0.  1.
         23    2    1    2    0    0  0.00000000000E+00  0.00000000000E+00 -0.80007394789E+02  0.11771963785E+03  0.86352359062E+02 0.  0.
        -11    1    3    3    0    0 -0.31347286148E+02 -0.75714187893E+00  0.45873932915E+00  0.31359784030E+02  0.00000000000E+00 0. -1.
         11    1    3    3    0    0  0.31347286148E+02  0.75714187893E+00 -0.80466134118E+02  0.86359853824E+02  0.00000000000E+00 0.  1.
<mgrwt>
<rscale>  0 0.86352359E+02</rscale>
<asrwt>0</asrwt>
<pdfrwt beam="1">  1        1 0.29009417E-02 0.86352359E+02</pdfrwt>
<pdfrwt beam="2">  1       -1 0.15209772E-01 0.86352359E+02</pdfrwt>
<totfact> 0.93770248E+04</totfact>
</mgrwt>
</event>
<event>
 5    1  0.1270889E+001  0.8829820E+02  0.7546771E-02  0.1307026E+00
          1   -1    0    0  501    0  0.00000000000E+00  0.00000000000E+00  0.95496053199E+02  0.95496053199E+02  0.00000000000E+00 0. -1.
         -1   -1    0    0    0  501 -0.00000000000E+00 -0.00000000000E+00 -0.20410718376E+02  0.20410718376E+02  0.00000000000E+00 0.  1.
         23    2    1    2    0    0  0.00000000000E+00  0.00000000000E+00  0.75085334823E+02  0.11590677157E+03  0.88298200385E+02 0.  0.
        -11    1    3    3    0    0  0.38769162236E+02  0.19867341641E+02  0.28133087170E+02  0.51857784354E+02  0.00000000000E+00 0.  1.
         11    1    3    3    0    0 -0.38769162236E+02 -0.19867341641E+02  0.46952247653E+02  0.64048987221E+02  0.00000000000E+00 0. -1.
<mgrwt>
<rscale>  0 0.88298200E+02</rscale>
<asrwt>0</asrwt>
<pdfrwt beam="1">  1        1 0.14691700E-01 0.88298200E+02</pdfrwt>
<pdfrwt beam="2">  1       -1 0.31401106E-02 0.88298200E+02</pdfrwt>
<totfact> 0.11311711E+05</totfact>
</mgrwt>
</event>
<event>
 5    1  0.1270889E+001  0.9136081E+02  0.7546771E-02  0.1299589E+00
          1   -1    0    0  501    0  0.00000000000E+00  0.00000000000E+00  0.29308518296E+03  0.29308518296E+03  0.00000000000E+00 0. -1.
         -1   -1    0    0    0  501 -0.00000000000E+00 -0.00000000000E+00 -0.71197703201E+01  0.71197703201E+01  0.00000000000E+00 0.  1.
         23    2    1    2    0    0  0.00000000000E+00  0.00000000000E+00  0.28596541264E+03  0.30020495328E+03  0.91360805314E+02 0.  0.
        -13    1    3    3    0    0  0.40351999813E+02  0.73798003007E+01  0.20902525242E+03  0.21301244445E+03  0.00000000000E+00 0. -1.
         13    1    3    3    0    0 -0.40351999813E+02 -0.73798003007E+01  0.76940160219E+02  0.87192508829E+02  0.00000000000E+00 0.  1.
<mgrwt>
<rscale>  0 0.91360805E+02</rscale>
<asrwt>0</asrwt>
<pdfrwt beam="1">  1        1 0.45090019E-01 0.91360805E+02</pdfrwt>
<pdfrwt beam="2">  1       -1 0.10953495E-02 0.91360805E+02</pdfrwt>
<totfact> 0.12686782E+05</totfact>
</mgrwt>
</event>
<event>
 5    1  0.1270889E+001  0.9028388E+02  0.7546771E-02  0.1302166E+00
          3   -1    0    0  501    0  0.00000000000E+00  0.00000000000E+00  0.34396542725E+02  0.34396542725E+02  0.00000000000E+00 0. -1.
         -3   -1    0    0    0  501 -0.00000000000E+00 -0.00000000000E+00 -0.59244170942E+02  0.59244170942E+02  0.00000000000E+00 0.  1.
         23    2    1    2    0    0  0.00000000000E+00  0.00000000000E+00 -0.24847628217E+02  0.93640713668E+02  0.90283878008E+02 0.  0.
        -11    1    3    3    0    0  0.31445115313E+02  0.12055163010E+02  0.18755031018E+02  0.38547028689E+02  0.00000000000E+00 0. -1.
         11    1    3    3    0    0 -0.31445115313E+02 -0.12055163010E+02 -0.43602659235E+02  0.55093684979E+02  0.00000000000E+00 0.  1.
<mgrwt>
<rscale>  0 0.90283878E+02</rscale>
<asrwt>0</asrwt>
<pdfrwt beam="1">  1        3 0.52917758E-02 0.90283878E+02</pdfrwt>
<pdfrwt beam="2">  1       -3 0.91144878E-02 0.90283878E+02</pdfrwt>
<totfact> 0.36104072E+04</totfact>
</mgrwt>
</event>
<event>
 5    1  0.1270889E+001  0.9193773E+02  0.7546771E-02  0.1298226E+00
          1   -1    0    0  501    0  0.00000000000E+00  0.00000000000E+00  0.19585196743E+03  0.19585196743E+03  0.00000000000E+00 0. -1.
         -1   -1    0    0    0  501 -0.00000000000E+00 -0.00000000000E+00 -0.10789458227E+02  0.10789458227E+02  0.00000000000E+00 0.  1.
         23    2    1    2    0    0  0.00000000000E+00  0.00000000000E+00  0.18506250920E+03  0.20664142566E+03  0.91937731565E+02 0.  0.
        -13    1    3    3    0    0 -0.12373944009E+02  0.43666551902E+02  0.10893342260E+03  0.11801005383E+03  0.00000000000E+00 0. -1.
         13    1    3    3    0    0  0.12373944009E+02 -0.43666551902E+02  0.76129086607E+02  0.88631371833E+02  0.00000000000E+00 0.  1.
<mgrwt>
<rscale>  0 0.91937732E+02</rscale>
<asrwt>0</asrwt>
<pdfrwt beam="1">  1        1 0.30131069E-01 0.91937732E+02</pdfrwt>
<pdfrwt beam="2">  1       -1 0.16599168E-02 0.91937732E+02</pdfrwt>
<totfact> 0.11532281E+05</totfact>
</mgrwt>
</event>
<event>
 5    1  0.1270889E+001  0.8294941E+02  0.7546771E-02  0.1320884E+00
          3   -1    0    0  501    0  0.00000000000E+00  0.00000000000E+00  0.19744921463E+03  0.19744921463E+03  0.00000000000E+00 0.  1.
         -3   -1    0    0    0  501 -0.00000000000E+00 -0.00000000000E+00 -0.87118660986E+01  0.87118660986E+01  0.00000000000E+00 0. -1.
         23    2    1    2    0    0  0.00000000000E+00  0.00000000000E+00  0.18873734853E+03  0.20616108073E+03  0.82949409139E+02 0.  0.
        -11    1    3    3    0    0  0.32564115062E+02  0.25088219114E+02  0.80685337337E+02  0.90553652545E+02  0.00000000000E+00 0.  1.
         11    1    3    3    0    0 -0.32564115062E+02 -0.25088219114E+02  0.10805201119E+03  0.11560742818E+03  0.00000000000E+00 0. -1.
<mgrwt>
<rscale>  0 0.82949409E+02</rscale>
<asrwt>0</asrwt>
<pdfrwt beam="1">  1        3 0.30376799E-01 0.82949409E+02</pdfrwt>
<pdfrwt beam="2">  1       -3 0.13402872E-02 0.82949409E+02</pdfrwt>
<totfact> 0.36309032E+04</totfact>
</mgrwt>
</event>
<event>
 5    1  0.1270889E+001  0.8662802E+02  0.7546771E-02  0.1311229E+00
          1   -1    0    0  501    0  0.00000000000E+00  0.00000000000E+00  0.28725663444E+02  0.28725663444E+02  0.00000000000E+00 0. -1.
         -1   -1    0    0    0  501 -0.00000000000E+00 -0.00000000000E+00 -0.65311052487E+02  0.65311052487E+02  0.00000000000E+00 0.  1.
         23    2    1    2    0    0  0.00000000000E+00  0.00000000000E+00 -0.36585389044E+02  0.94036715931E+02  0.86628016551E+02 0.  0.
        -11    1    3    3    0    0 -0.21749313375E+02 -0.37258657055E+01 -0.58752117912E+02  0.62759270763E+02  0.00000000000E+00 0.  1.
         11    1    3    3    0    0  0.21749313375E+02  0.37258657055E+01  0.22166728868E+02  0.31277445168E+02  0.00000000000E+00 0. -1.
<mgrwt>
<rscale>  0 0.86628017E+02</rscale>
<asrwt>0</asrwt>
<pdfrwt beam="1">  1        1 0.44193329E-02 0.86628017E+02</pdfrwt>
<pdfrwt beam="2">  1       -1 0.10047854E-01 0.86628017E+02</pdfrwt>
<totfact> 0.99654651E+04</totfact>
</mgrwt>
</event>
<event>
 5    1  0.1270889E+001  0.1112318E+03  0.7546771E-02  0.1258306E+00
          4   -1    0    0  501    0  0.00000000000E+00  0.00000000000E+00  0.12131590304E+02  0.12131590304E+02  0.00000000000E+00 0. -1.
         -4   -1    0    0    0  501 -0.00000000000E+00 -0.00000000000E+00 -0.25496500098E+03  0.25496500098E+03  0.00000000000E+00 0.  1.
         23    2    1    2    0    0  0.00000000000E+00  0.00000000000E+00 -0.24283341068E+03  0.26709659129E+03  0.11123184677E+03 0.  0.
        -13    1    3    3    0    0 -0.17389113547E+02  0.36571843633E+02 -0.21295637718E+03  0.21677246042E+03  0.00000000000E+00 0.  1.
         13    1    3    3    0    0  0.17389113547E+02 -0.36571843633E+02 -0.29877033504E+02  0.50324130868E+02  0.00000000000E+00 0. -1.
<mgrwt>
<rscale>  0 0.11123185E+03</rscale>
<asrwt>0</asrwt>
<pdfrwt beam="1">  1        4 0.18663986E-02 0.11123185E+03</pdfrwt>
<pdfrwt beam="2">  1       -4 0.39225383E-01 0.11123185E+03</pdfrwt>
<totfact> 0.11031490E+04</totfact>
</mgrwt>
</event>
<event>
 5    1  0.1270889E+001  0.9377688E+02  0.7546771E-02  0.1293955E+00
         -4   -1    0    0    0  501 -0.00000000000E+00  0.00000000000E+00  0.20370919320E+02  0.20370919320E+02  0.00000000000E+00 0.  1.
          4   -1    0    0  501    0  0.00000000000E+00 -0.00000000000E+00 -0.10792472277E+03  0.10792472277E+03  0.00000000000E+00 0. -1.
         23    2    1    2    0    0  0.00000000000E+00  0.00000000000E+00 -0.87553803448E+02  0.12829564209E+03  0.93776880308E+02 0.  0.
        -11    1    3    3    0    0  0.42464638699E+02 -0.19208371157E+02 -0.36758328795E+02  0.59358081153E+02  0.00000000000E+00 0.  1.
         11    1    3    3    0    0 -0.42464638699E+02  0.19208371157E+02 -0.50795474652E+02  0.68937560934E+02  0.00000000000E+00 0. -1.
<mgrwt>
<rscale>  0 0.93776880E+02</rscale>
<asrwt>0</asrwt>
<pdfrwt beam="2">  1        4 0.16603803E-01 0.93776880E+02</pdfrwt>
<pdfrwt beam="1">  1       -4 0.31339876E-02 0.93776880E+02</pdfrwt>
<totfact> 0.22991267E+04</totfact>
</mgrwt>
</event>
<event>
 5    1  0.1270889E+001  0.9221263E+02  0.7546771E-02  0.1297580E+00
          3   -1    0    0  501    0  0.00000000000E+00  0.00000000000E+00  0.23402690515E+02  0.23402690515E+02  0.00000000000E+00 0. -1.
         -3   -1    0    0    0  501 -0.00000000000E+00 -0.00000000000E+00 -0.90835371252E+02  0.90835371252E+02  0.00000000000E+00 0.  1.
         23    2    1    2    0    0  0.00000000000E+00  0.00000000000E+00 -0.67432680737E+02  0.11423806177E+03  0.92212625627E+02 0.  0.
        -11    1    3    3    0    0 -0.47871984686E+01 -0.16849923661E+02 -0.86552519217E+02  0.88307280443E+02  0.00000000000E+00 0.  1.
         11    1    3    3    0    0  0.47871984686E+01  0.16849923661E+02  0.19119838480E+02  0.25930781324E+02  0.00000000000E+00 0. -1.
<mgrwt>
<rscale>  0 0.92212626E+02</rscale>
<asrwt>0</asrwt>
<pdfrwt beam="1">  1        3 0.36004139E-02 0.92212626E+02</pdfrwt>
<pdfrwt beam="2">  1       -3 0.13974672E-01 0.92212626E+02</pdfrwt>
<totfact> 0.32627421E+04</totfact>
</mgrwt>
</event>
<event>
 5    1  0.1270889E+001  0.9280619E+02  0.7546771E-02  0.1296195E+00
          2   -1    0    0  501    0  0.00000000000E+00  0.00000000000E+00  0.11705438876E+03  0.11705438876E+03  0.00000000000E+00 0. -1.
         -2   -1    0    0    0  501 -0.00000000000E+00 -0.00000000000E+00 -0.18395269695E+02  0.18395269695E+02  0.00000000000E+00 0.  1.
         23    2    1    2    0    0  0.00000000000E+00  0.00000000000E+00  0.98659119061E+02  0.13544965845E+03  0.92806186219E+02 0.  0.
        -11    1    3    3    0    0  0.45665517933E+02 -0.19114595845E+01  0.37630510894E+02  0.59203450541E+02  0.00000000000E+00 0.  1.
         11    1    3    3    0    0 -0.45665517933E+02  0.19114595845E+01  0.61028608167E+02  0.76246207909E+02  0.00000000000E+00 0. -1.
<mgrwt>
<rscale>  0 0.92806186E+02</rscale>
<asrwt>0</asrwt>
<pdfrwt beam="1">  1        2 0.18008367E-01 0.92806186E+02</pdfrwt>
<pdfrwt beam="2">  1       -2 0.28300416E-02 0.92806186E+02</pdfrwt>
<totfact> 0.12273017E+05</totfact>
</mgrwt>
</event>
<event>
 5    1  0.1270889E+001  0.9098647E+02  0.7546771E-02  0.1300480E+00
         -1   -1    0    0    0  501 -0.00000000000E+00  0.00000000000E+00  0.23599240313E+02  0.23599240313E+02  0.00000000000E+00 0.  1.
          1   -1    0    0  501    0  0.00000000000E+00 -0.00000000000E+00 -0.87699193024E+02  0.87699193024E+02  0.00000000000E+00 0. -1.
         23    2    1    2    0    0  0.00000000000E+00  0.00000000000E+00 -0.64099952711E+02  0.11129843334E+03  0.90986467817E+02 0.  0.
        -13    1    3    3    0    0 -0.18651302361E+02 -0.16643603163E+02  0.14445334649E+02  0.28871236536E+02  0.00000000000E+00 0.  1.
         13    1    3    3    0    0  0.18651302361E+02  0.16643603163E+02 -0.78545287360E+02  0.82427196801E+02  0.00000000000E+00 0. -1.
<mgrwt>
<rscale>  0 0.90986468E+02</rscale>
<asrwt>0</asrwt>
<pdfrwt beam="2">  1        1 0.13492184E-01 0.90986468E+02</pdfrwt>
<pdfrwt beam="1">  1       -1 0.36306523E-02 0.90986468E+02</pdfrwt>
<totfact> 0.10281810E+05</totfact>
</mgrwt>
</event>
<event>
 5    1  0.1270889E+001  0.9070447E+02  0.7546771E-02  0.1301155E+00
         -4   -1    0    0    0  501 -0.00000000000E+00  0.00000000000E+00  0.25583313797E+02  0.25583313797E+02  0.00000000000E+00 0.  1.
          4   -1    0    0  501    0  0.00000000000E+00 -0.00000000000E+00 -0.80397144016E+02  0.80397144016E+02  0.00000000000E+00 0. -1.
         23    2    1    2    0    0  0.00000000000E+00  0.00000000000E+00 -0.54813830220E+02  0.10598045781E+03  0.90704473180E+02 0.  0.
        -11    1    3    3    0    0  0.23679572988E+02  0.38329328463E+02 -0.33474326881E+02  0.56128336493E+02  0.00000000000E+00 0.  1.
         11    1    3    3    0    0 -0.23679572988E+02 -0.38329328463E+02 -0.21339503338E+02  0.49852121319E+02  0.00000000000E+00 0. -1.
<mgrwt>
<rscale>  0 0.90704473E+02</rscale>
<asrwt>0</asrwt>
<pdfrwt beam="2">  1        4 0.12368791E-01 0.90704473E+02</pdfrwt>
<pdfrwt beam="1">  1       -4 0.39358944E-02 0.90704473E+02</pdfrwt>
<totfact> 0.26462055E+04</totfact>
</mgrwt>
</event>
<event>
 5    1  0.1270889E+001  0.9508806E+02  0.7546771E-02  0.1290978E+00
          3   -1    0    0  501    0  0.00000000000E+00  0.00000000000E+00  0.19453010352E+03  0.19453010352E+03  0.00000000000E+00 0. -1.
         -3   -1    0    0    0  501 -0.00000000000E+00 -0.00000000000E+00 -0.11619974398E+02  0.11619974398E+02  0.00000000000E+00 0.  1.
         23    2    1    2    0    0  0.00000000000E+00  0.00000000000E+00  0.18291012912E+03  0.20615007791E+03  0.95088060711E+02 0.  0.
        -13    1    3    3    0    0 -0.37035768099E+02 -0.40729163788E+01  0.27427781952E+02  0.46265753958E+02  0.00000000000E+00 0.  1.
         13    1    3    3    0    0  0.37035768099E+02  0.40729163788E+01  0.15548234717E+03  0.15988432396E+03  0.00000000000E+00 0. -1.
<mgrwt>
<rscale>  0 0.95088061E+02</rscale>
<asrwt>0</asrwt>
<pdfrwt beam="1">  1        3 0.29927706E-01 0.95088061E+02</pdfrwt>
<pdfrwt beam="2">  1       -3 0.17876885E-02 0.95088061E+02</pdfrwt>
<totfact> 0.25154645E+04</totfact>
</mgrwt>
</event>
<event>
 5    1  0.1270889E+001  0.8815111E+02  0.7546771E-02  0.1307392E+00
         -2   -1    0    0    0  501 -0.00000000000E+00  0.00000000000E+00  0.61647764521E+02  0.61647764521E+02  0.00000000000E+00 0.  1.
          2   -1    0    0  501    0  0.00000000000E+00 -0.00000000000E+00 -0.31512166780E+02  0.31512166780E+02  0.00000000000E+00 0. -1.
         23    2    1    2    0    0  0.00000000000E+00  0.00000000000E+00  0.30135597742E+02  0.93159931301E+02  0.88151112011E+02 0.  0.
        -11    1    3    3    0    0 -0.30110453239E+02  0.31661378669E+02  0.21191192733E+02  0.48560775766E+02  0.00000000000E+00 0. -1.
         11    1    3    3    0    0  0.30110453239E+02 -0.31661378669E+02  0.89444050086E+01  0.44599155535E+02  0.00000000000E+00 0.  1.
<mgrwt>
<rscale>  0 0.88151112E+02</rscale>
<asrwt>0</asrwt>
<pdfrwt beam="2">  1        2 0.48480256E-02 0.88151112E+02</pdfrwt>
<pdfrwt beam="1">  1       -2 0.94842715E-02 0.88151112E+02</pdfrwt>
<totfact> 0.98980151E+04</totfact>
</mgrwt>
</event>
<event>
 5    1  0.1270889E+001  0.8873214E+02  0.7546771E-02  0.1305951E+00
          1   -1    0    0  501    0  0.00000000000E+00  0.00000000000E+00  0.16876286015E+03  0.16876286015E+03  0.00000000000E+00 0. -1.
         -1   -1    0    0    0  501 -0.00000000000E+00 -0.00000000000E+00 -0.11663397797E+02  0.11663397797E+02  0.00000000000E+00 0.  1.
         23    2    1    2    0    0  0.00000000000E+00  0.00000000000E+00  0.15709946235E+03  0.18042625794E+03  0.88732144596E+02 0.  0.
        -11    1    3    3    0    0 -0.31810643892E+02  0.18327226162E+02  0.12920272097E+03  0.13431733838E+03  0.00000000000E+00 0. -1.
         11    1    3    3    0    0  0.31810643892E+02 -0.18327226162E+02  0.27896741379E+02  0.46108919562E+02  0.00000000000E+00 0.  1.
<mgrwt>
<rscale>  0 0.88732145E+02</rscale>
<asrwt>0</asrwt>
<pdfrwt beam="1">  1        1 0.25963515E-01 0.88732145E+02</pdfrwt>
<pdfrwt beam="2">  1       -1 0.17943690E-02 0.88732145E+02</pdfrwt>
<totfact> 0.12329344E+05</totfact>
</mgrwt>
</event>
<event>
 5    1  0.1270889E+001  0.9048748E+02  0.7546771E-02  0.1301675E+00
         -1   -1    0    0    0  501 -0.00000000000E+00  0.00000000000E+00  0.16364102049E+02  0.16364102049E+02  0.00000000000E+00 0.  1.
          1   -1    0    0  501    0  0.00000000000E+00 -0.00000000000E+00 -0.12509062885E+03  0.12509062885E+03  0.00000000000E+00 0. -1.
         23    2    1    2    0    0  0.00000000000E+00  0.00000000000E+00 -0.10872652680E+03  0.14145473090E+03  0.90487475726E+02 0.  0.
        -13    1    3    3    0    0  0.32797275538E+02 -0.22305851504E+02 -0.88389896612E+02  0.96881299109E+02  0.00000000000E+00 0. -1.
         13    1    3    3    0    0 -0.32797275538E+02  0.22305851504E+02 -0.20336630190E+02  0.44573431790E+02  0.00000000000E+00 0.  1.
<mgrwt>
<rscale>  0 0.90487476E+02</rscale>
<asrwt>0</asrwt>
<pdfrwt beam="2">  1        1 0.19244713E-01 0.90487476E+02</pdfrwt>
<pdfrwt beam="1">  1       -1 0.25175541E-02 0.90487476E+02</pdfrwt>
<totfact> 0.11077742E+05</totfact>
</mgrwt>
</event>
<event>
 5    1  0.1270889E+001  0.8948630E+02  0.7546771E-02  0.1304100E+00
         -4   -1    0    0    0  501 -0.00000000000E+00  0.00000000000E+00  0.14776886558E+03  0.14776886558E+03  0.00000000000E+00 0.  1.
          4   -1    0    0  501    0  0.00000000000E+00 -0.00000000000E+00 -0.13547843748E+02  0.13547843748E+02  0.00000000000E+00 0. -1.
         23    2    1    2    0    0  0.00000000000E+00  0.00000000000E+00  0.13422102183E+03  0.16131670932E+03  0.89486300665E+02 0.  0.
        -13    1    3    3    0    0 -0.39462372378E+02  0.37781309349E+01  0.29711758761E+02  0.49541313222E+02  0.00000000000E+00 0. -1.
         13    1    3    3    0    0  0.39462372378E+02 -0.37781309349E+01  0.10450926307E+03  0.11177539610E+03  0.00000000000E+00 0.  1.
<mgrwt>
<rscale>  0 0.89486301E+02</rscale>
<asrwt>0</asrwt>
<pdfrwt beam="2">  1        4 0.20842838E-02 0.89486301E+02</pdfrwt>
<pdfrwt beam="1">  1       -4 0.22733670E-01 0.89486301E+02</pdfrwt>
<totfact> 0.24306531E+04</totfact>
</mgrwt>
</event>
<event>
 5    1  0.1270889E+001  0.7441490E+02  0.7546771E-02  0.1345693E+00
         -1   -1    0    0    0  501 -0.00000000000E+00  0.00000000000E+00  0.62063330482E+02  0.62063330482E+02  0.00000000000E+00 0.  1.
          1   -1    0    0  501    0  0.00000000000E+00 -0.00000000000E+00 -0.22306153400E+02  0.22306153400E+02  0.00000000000E+00 0. -1.
         23    2    1    2    0    0  0.00000000000E+00  0.00000000000E+00  0.39757177081E+02  0.84369483882E+02  0.74414895559E+02 0.  0.
        -11    1    3    3    0    0 -0.13132466876E+02 -0.81402906443E+01 -0.18496990022E+02  0.24101133955E+02  0.00000000000E+00 0. -1.
         11    1    3    3    0    0  0.13132466876E+02  0.81402906443E+01  0.58254167104E+02  0.60268349927E+02  0.00000000000E+00 0.  1.
<mgrwt>
<rscale>  0 0.74414896E+02</rscale>
<asrwt>0</asrwt>
<pdfrwt beam="2">  1        1 0.34317159E-02 0.74414896E+02</pdfrwt>
<pdfrwt beam="1">  1       -1 0.95482046E-02 0.74414896E+02</pdfrwt>
<totfact> 0.14757873E+05</totfact>
</mgrwt>
</event>
<event>
 5    1  0.1270889E+001  0.8570442E+02  0.7546771E-02  0.1313601E+00
          1   -1    0    0  501    0  0.00000000000E+00  0.00000000000E+00  0.93631919765E+02  0.93631919765E+02  0.00000000000E+00 0. -1.
         -1   -1    0    0    0  501 -0.00000000000E+00 -0.00000000000E+00 -0.19612028523E+02  0.19612028523E+02  0.00000000000E+00 0.  1.
         23    2    1    2    0    0  0.00000000000E+00  0.00000000000E+00  0.74019891241E+02  0.11324394829E+03  0.85704419516E+02 0.  0.
        -11    1    3    3    0    0  0.28102250454E+02  0.27022993155E+02  0.60510829730E+02  0.71982908765E+02  0.00000000000E+00 0. -1.
         11    1    3    3    0    0 -0.28102250454E+02 -0.27022993155E+02  0.13509061512E+02  0.41261039524E+02  0.00000000000E+00 0.  1.
<mgrwt>
<rscale>  0 0.85704420E+02</rscale>
<asrwt>0</asrwt>
<pdfrwt beam="1">  1        1 0.14404910E-01 0.85704420E+02</pdfrwt>
<pdfrwt beam="2">  1       -1 0.30172352E-02 0.85704420E+02</pdfrwt>
<totfact> 0.12225607E+05</totfact>
</mgrwt>
</event>
<event>
 5    1  0.1270889E+001  0.8929850E+02  0.7546771E-02  0.1304559E+00
          3   -1    0    0  501    0  0.00000000000E+00  0.00000000000E+00  0.98178820693E+02  0.98178820693E+02  0.00000000000E+00 0. -1.
         -3   -1    0    0    0  501 -0.00000000000E+00 -0.00000000000E+00 -0.20305351746E+02  0.20305351746E+02  0.00000000000E+00 0.  1.
         23    2    1    2    0    0  0.00000000000E+00  0.00000000000E+00  0.77873468947E+02  0.11848417244E+03  0.89298499163E+02 0.  0.
        -13    1    3    3    0    0 -0.28208162009E+02  0.24399036016E+02  0.63673247668E+01  0.37835911343E+02  0.00000000000E+00 0.  1.
         13    1    3    3    0    0  0.28208162009E+02 -0.24399036016E+02  0.71506144180E+02  0.80648261097E+02  0.00000000000E+00 0. -1.
<mgrwt>
<rscale>  0 0.89298499E+02</rscale>
<asrwt>0</asrwt>
<pdfrwt beam="1">  1        3 0.15104434E-01 0.89298499E+02</pdfrwt>
<pdfrwt beam="2">  1       -3 0.31239003E-02 0.89298499E+02</pdfrwt>
<totfact> 0.35284960E+04</totfact>
</mgrwt>
</event>
<event>
 5    1  0.1270889E+001  0.9129339E+02  0.7546771E-02  0.1299749E+00
         -2   -1    0    0    0  501 -0.00000000000E+00  0.00000000000E+00  0.14294248096E+03  0.14294248096E+03  0.00000000000E+00 0.  1.
          2   -1    0    0  501    0  0.00000000000E+00 -0.00000000000E+00 -0.14576637200E+02  0.14576637200E+02  0.00000000000E+00 0. -1.
         23    2    1    2    0    0  0.00000000000E+00  0.00000000000E+00  0.12836584376E+03  0.15751911816E+03  0.91293388268E+02 0.  0.
        -13    1    3    3    0    0  0.67553672617E+01  0.45056905498E+02  0.69020543436E+02  0.82701844816E+02  0.00000000000E+00 0.  1.
         13    1    3    3    0    0 -0.67553672617E+01 -0.45056905498E+02  0.59345300322E+02  0.74817273341E+02  0.00000000000E+00 0. -1.
<mgrwt>
<rscale>  0 0.91293388E+02</rscale>
<asrwt>0</asrwt>
<pdfrwt beam="2">  1        2 0.22425597E-02 0.91293388E+02</pdfrwt>
<pdfrwt beam="1">  1       -2 0.21991150E-01 0.91293388E+02</pdfrwt>
<totfact> 0.70847279E+04</totfact>
</mgrwt>
</event>
<event>
 5    1  0.1270889E+001  0.9035269E+02  0.7546771E-02  0.1302000E+00
         -2   -1    0    0    0  501 -0.00000000000E+00  0.00000000000E+00  0.98588900052E+01  0.98588900052E+01  0.00000000000E+00 0.  1.
          2   -1    0    0  501    0  0.00000000000E+00 -0.00000000000E+00 -0.20701133121E+03  0.20701133121E+03  0.00000000000E+00 0. -1.
         23    2    1    2    0    0  0.00000000000E+00  0.00000000000E+00 -0.19715244120E+03  0.21687022121E+03  0.90352685498E+02 0.  0.
        -11    1    3    3    0    0  0.30623876855E+02  0.28666754419E+02 -0.13883324216E+03  0.14503197499E+03  0.00000000000E+00 0. -1.
         11    1    3    3    0    0 -0.30623876855E+02 -0.28666754419E+02 -0.58319199044E+02  0.71838246218E+02  0.00000000000E+00 0.  1.
<mgrwt>
<rscale>  0 0.90352685E+02</rscale>
<asrwt>0</asrwt>
<pdfrwt beam="2">  1        2 0.31847895E-01 0.90352685E+02</pdfrwt>
<pdfrwt beam="1">  1       -2 0.15167524E-02 0.90352685E+02</pdfrwt>
<totfact> 0.16049262E+05</totfact>
</mgrwt>
</event>
<event>
 5    1  0.1270889E+001  0.9117205E+02  0.7546771E-02  0.1300038E+00
          1   -1    0    0  501    0  0.00000000000E+00  0.00000000000E+00  0.11459286544E+03  0.11459286544E+03  0.00000000000E+00 0.  1.
         -1   -1    0    0    0  501 -0.00000000000E+00 -0.00000000000E+00 -0.18134509971E+02  0.18134509971E+02  0.00000000000E+00 0. -1.
         23    2    1    2    0    0  0.00000000000E+00  0.00000000000E+00  0.96458355466E+02  0.13272737541E+03  0.91172045297E+02 0.  0.
        -11    1    3    3    0    0 -0.44891229903E+02  0.61208366381E+01  0.55565883668E+02  0.71695568839E+02  0.00000000000E+00 0.  1.
         11    1    3    3    0    0  0.44891229903E+02 -0.61208366381E+01  0.40892471798E+02  0.61031806569E+02  0.00000000000E+00 0. -1.
<mgrwt>
<rscale>  0 0.91172045E+02</rscale>
<asrwt>0</asrwt>
<pdfrwt beam="1">  1        1 0.17629671E-01 0.91172045E+02</pdfrwt>
<pdfrwt beam="2">  1       -1 0.27899247E-02 0.91172045E+02</pdfrwt>
<totfact> 0.10689941E+05</totfact>
</mgrwt>
</event>
<event>
 5    1  0.1270889E+001  0.9094359E+02  0.7546771E-02  0.1300583E+00
         -1   -1    0    0    0  501 -0.00000000000E+00  0.00000000000E+00  0.23938896130E+02  0.23938896130E+02  0.00000000000E+00 0.  1.
          1   -1    0    0  501    0  0.00000000000E+00 -0.00000000000E+00 -0.86373407289E+02  0.86373407289E+02  0.00000000000E+00 0. -1.
         23    2    1    2    0    0  0.00000000000E+00  0.00000000000E+00 -0.62434511159E+02  0.11031230342E+03  0.90943587470E+02 0.  0.
        -11    1    3    3    0    0  0.67819942984E+01 -0.35554723377E+02  0.21682215089E+01  0.36260653408E+02  0.00000000000E+00 0.  1.
         11    1    3    3    0    0 -0.67819942984E+01  0.35554723377E+02 -0.64602732668E+02  0.74051650011E+02  0.00000000000E+00 0. -1.
<mgrwt>
<rscale>  0 0.90943587E+02</rscale>
<asrwt>0</asrwt>
<pdfrwt beam="2">  1        1 0.13288216E-01 0.90943587E+02</pdfrwt>
<pdfrwt beam="1">  1       -1 0.36829071E-02 0.90943587E+02</pdfrwt>
<totfact> 0.10269891E+05</totfact>
</mgrwt>
</event>
<event>
 5    1  0.1270889E+001  0.9198324E+02  0.7546771E-02  0.1298119E+00
          2   -1    0    0  501    0  0.00000000000E+00  0.00000000000E+00  0.27425630198E+03  0.27425630198E+03  0.00000000000E+00 0. -1.
         -2   -1    0    0    0  501 -0.00000000000E+00 -0.00000000000E+00 -0.77125994816E+01  0.77125994816E+01  0.00000000000E+00 0.  1.
         23    2    1    2    0    0  0.00000000000E+00  0.00000000000E+00  0.26654370250E+03  0.28196890146E+03  0.91983237874E+02 0.  0.
        -11    1    3    3    0    0  0.10094648828E+02  0.44103069737E+02  0.10794786146E+03  0.11704581791E+03  0.00000000000E+00 0.  1.
         11    1    3    3    0    0 -0.10094648828E+02 -0.44103069737E+02  0.15859584103E+03  0.16492308355E+03  0.00000000000E+00 0. -1.
<mgrwt>
<rscale>  0 0.91983238E+02</rscale>
<asrwt>0</asrwt>
<pdfrwt beam="1">  1        2 0.42193270E-01 0.91983238E+02</pdfrwt>
<pdfrwt beam="2">  1       -2 0.11865540E-02 0.91983238E+02</pdfrwt>
<totfact> 0.16970152E+05</totfact>
</mgrwt>
</event>
<event>
 5    1  0.1270889E+001  0.8943357E+02  0.7546771E-02  0.1304229E+00
          2   -1    0    0  501    0  0.00000000000E+00  0.00000000000E+00  0.14382639555E+03  0.14382639555E+03  0.00000000000E+00 0. -1.
         -2   -1    0    0    0  501 -0.00000000000E+00 -0.00000000000E+00 -0.13902809936E+02  0.13902809936E+02  0.00000000000E+00 0.  1.
         23    2    1    2    0    0  0.00000000000E+00  0.00000000000E+00  0.12992358561E+03  0.15772920548E+03  0.89433574034E+02 0.  0.
        -11    1    3    3    0    0  0.12624913722E+02  0.37886429577E+02  0.29476934811E+02  0.49635266479E+02  0.00000000000E+00 0.  1.
         11    1    3    3    0    0 -0.12624913722E+02 -0.37886429577E+02  0.10044665080E+03  0.10809393900E+03  0.00000000000E+00 0. -1.
<mgrwt>
<rscale>  0 0.89433574E+02</rscale>
<asrwt>0</asrwt>
<pdfrwt beam="1">  1        2 0.22127137E-01 0.89433574E+02</pdfrwt>
<pdfrwt beam="2">  1       -2 0.21388939E-02 0.89433574E+02</pdfrwt>
<totfact> 0.14524453E+05</totfact>
</mgrwt>
</event>
<event>
 5    1  0.1270889E+001  0.1004802E+03  0.7546771E-02  0.1279289E+00
          2   -1    0    0  501    0  0.00000000000E+00  0.00000000000E+00  0.59528806894E+02  0.59528806894E+02  0.00000000000E+00 0.  1.
         -2   -1    0    0    0  501 -0.00000000000E+00 -0.00000000000E+00 -0.42400778363E+02  0.42400778363E+02  0.00000000000E+00 0. -1.
         23    2    1    2    0    0  0.00000000000E+00  0.00000000000E+00  0.17128028530E+02  0.10192958526E+03  0.10048020198E+03 0.  0.
        -11    1    3    3    0    0  0.28404882889E+02  0.16445085353E+02 -0.30021335230E+02  0.44480993393E+02  0.00000000000E+00 0. -1.
         11    1    3    3    0    0 -0.28404882889E+02 -0.16445085353E+02  0.47149363761E+02  0.57448591865E+02  0.00000000000E+00 0.  1.
<mgrwt>
<rscale>  0 0.10048020E+03</rscale>
<asrwt>0</asrwt>
<pdfrwt beam="1">  1        2 0.91582780E-02 0.10048020E+03</pdfrwt>
<pdfrwt beam="2">  1       -2 0.65231966E-02 0.10048020E+03</pdfrwt>
<totfact> 0.80247720E+04</totfact>
</mgrwt>
</event>
<event>
 5    1  0.1270889E+001  0.8758741E+02  0.7546771E-02  0.1308802E+00
         -2   -1    0    0    0  501 -0.00000000000E+00  0.00000000000E+00  0.55228199552E+01  0.55228199552E+01  0.00000000000E+00 0. -1.
          2   -1    0    0  501    0  0.00000000000E+00 -0.00000000000E+00 -0.34726620237E+03  0.34726620237E+03  0.00000000000E+00 0.  1.
         23    2    1    2    0    0  0.00000000000E+00  0.00000000000E+00 -0.34174338241E+03  0.35278902232E+03  0.87587412617E+02 0.  0.
        -11    1    3    3    0    0  0.33721889409E+02  0.27005065464E+02 -0.19976273357E+03  0.20438099009E+03  0.00000000000E+00 0. -1.
         11    1    3    3    0    0 -0.33721889409E+02 -0.27005065464E+02 -0.14198064884E+03  0.14840803223E+03  0.00000000000E+00 0.  1.
<mgrwt>
<rscale>  0 0.87587413E+02</rscale>
<asrwt>0</asrwt>
<pdfrwt beam="2">  1        2 0.53425563E-01 0.87587413E+02</pdfrwt>
<pdfrwt beam="1">  1       -2 0.84966471E-03 0.87587413E+02</pdfrwt>
<totfact> 0.21098236E+05</totfact>
</mgrwt>
</event>
<event>
 5    1  0.1270889E+001  0.9175346E+02  0.7546771E-02  0.1298660E+00
          2   -1    0    0  501    0  0.00000000000E+00  0.00000000000E+00  0.38365595345E+02  0.38365595345E+02  0.00000000000E+00 0. -1.
         -2   -1    0    0    0  501 -0.00000000000E+00 -0.00000000000E+00 -0.54858380605E+02  0.54858380605E+02  0.00000000000E+00 0.  1.
         23    2    1    2    0    0  0.00000000000E+00  0.00000000000E+00 -0.16492785261E+02  0.93223975950E+02  0.91753461658E+02 0.  0.
        -11    1    3    3    0    0  0.15237519772E+02  0.37315137239E+02 -0.30508116101E+02  0.50550436437E+02  0.00000000000E+00 0.  1.
         11    1    3    3    0    0 -0.15237519772E+02 -0.37315137239E+02  0.14015330840E+02  0.42673539513E+02  0.00000000000E+00 0. -1.
<mgrwt>
<rscale>  0 0.91753462E+02</rscale>
<asrwt>0</asrwt>
<pdfrwt beam="1">  1        2 0.59023993E-02 0.91753462E+02</pdfrwt>
<pdfrwt beam="2">  1       -2 0.84397508E-02 0.91753462E+02</pdfrwt>
<totfact> 0.92647627E+04</totfact>
</mgrwt>
</event>
<event>
 5    1  0.1270889E+001  0.1012740E+03  0.7546771E-02  0.1277639E+00
         -3   -1    0    0    0  501 -0.00000000000E+00  0.00000000000E+00  0.39819877542E+03  0.39819877542E+03  0.00000000000E+00 0.  1.
          3   -1    0    0  501    0  0.00000000000E+00 -0.00000000000E+00 -0.64392628256E+01  0.64392628256E+01  0.00000000000E+00 0. -1.
         23    2    1    2    0    0  0.00000000000E+00  0.00000000000E+00  0.39175951259E+03  0.40463803824E+03  0.10127401585E+03 0.  0.
        -11    1    3    3    0    0  0.20274984758E+02 -0.44217000783E+02  0.25208526083E+03  0.25673565567E+03  0.00000000000E+00 0.  1.
         11    1    3    3    0    0 -0.20274984758E+02  0.44217000783E+02  0.13967425176E+03  0.14790238257E+03  0.00000000000E+00 0. -1.
<mgrwt>
<rscale>  0 0.10127402E+03</rscale>
<asrwt>0</asrwt>
<pdfrwt beam="2">  1        3 0.99065613E-03 0.10127402E+03</pdfrwt>
<pdfrwt beam="1">  1       -3 0.61261331E-01 0.10127402E+03</pdfrwt>
<totfact> 0.15420807E+04</totfact>
</mgrwt>
</event>
<event>
 5    1  0.1270889E+001  0.8876622E+02  0.7546771E-02  0.1305867E+00
          1   -1    0    0  501    0  0.00000000000E+00  0.00000000000E+00  0.61763706684E+01  0.61763706684E+01  0.00000000000E+00 0. -1.
         -1   -1    0    0    0  501 -0.00000000000E+00 -0.00000000000E+00 -0.31893498017E+03  0.31893498017E+03  0.00000000000E+00 0.  1.
         23    2    1    2    0    0  0.00000000000E+00  0.00000000000E+00 -0.31275860950E+03  0.32511135084E+03  0.88766224582E+02 0.  0.
        -13    1    3    3    0    0  0.35851778461E+02 -0.16968780002E+02 -0.83442801504E+02  0.92390425026E+02  0.00000000000E+00 0. -1.
         13    1    3    3    0    0 -0.35851778461E+02  0.16968780002E+02 -0.22931580800E+03  0.23272092581E+03  0.00000000000E+00 0.  1.
<mgrwt>
<rscale>  0 0.88766225E+02</rscale>
<asrwt>0</asrwt>
<pdfrwt beam="1">  1        1 0.95021072E-03 0.88766225E+02</pdfrwt>
<pdfrwt beam="2">  1       -1 0.49066928E-01 0.88766225E+02</pdfrwt>
<totfact> 0.63393111E+04</totfact>
</mgrwt>
</event>
<event>
 5    1  0.1270889E+001  0.9091967E+02  0.7546771E-02  0.1300640E+00
         -3   -1    0    0    0  501 -0.00000000000E+00  0.00000000000E+00  0.25304150022E+02  0.25304150022E+02  0.00000000000E+00 0.  1.
          3   -1    0    0  501    0  0.00000000000E+00 -0.00000000000E+00 -0.81670260362E+02  0.81670260362E+02  0.00000000000E+00 0. -1.
         23    2    1    2    0    0  0.00000000000E+00  0.00000000000E+00 -0.56366110340E+02  0.10697441038E+03  0.90919668291E+02 0.  0.
        -13    1    3    3    0    0 -0.80933396256E+01  0.11155025361E+02 -0.79153078511E+02  0.80343926807E+02  0.00000000000E+00 0. -1.
         13    1    3    3    0    0  0.80933396256E+01 -0.11155025361E+02  0.22786968171E+02  0.26630483577E+02  0.00000000000E+00 0.  1.
<mgrwt>
<rscale>  0 0.90919668E+02</rscale>
<asrwt>0</asrwt>
<pdfrwt beam="2">  1        3 0.12564656E-01 0.90919668E+02</pdfrwt>
<pdfrwt beam="1">  1       -3 0.38929461E-02 0.90919668E+02</pdfrwt>
<totfact> 0.34424940E+04</totfact>
</mgrwt>
</event>
<event>
 5    1  0.1270889E+001  0.9452093E+02  0.7546771E-02  0.1292259E+00
          2   -1    0    0  501    0  0.00000000000E+00  0.00000000000E+00  0.10664353163E+03  0.10664353163E+03  0.00000000000E+00 0. -1.
         -2   -1    0    0    0  501 -0.00000000000E+00 -0.00000000000E+00 -0.20944086836E+02  0.20944086836E+02  0.00000000000E+00 0.  1.
         23    2    1    2    0    0  0.00000000000E+00  0.00000000000E+00  0.85699444794E+02  0.12758761847E+03  0.94520926507E+02 0.  0.
        -11    1    3    3    0    0  0.18007708141E+02 -0.12898109941E+02  0.99202894205E+02  0.10164572303E+03  0.00000000000E+00 0. -1.
         11    1    3    3    0    0 -0.18007708141E+02  0.12898109941E+02 -0.13503449411E+02  0.25941895431E+02  0.00000000000E+00 0.  1.
<mgrwt>
<rscale>  0 0.94520927E+02</rscale>
<asrwt>0</asrwt>
<pdfrwt beam="1">  1        2 0.16406697E-01 0.94520927E+02</pdfrwt>
<pdfrwt beam="2">  1       -2 0.32221673E-02 0.94520927E+02</pdfrwt>
<totfact> 0.11330175E+05</totfact>
</mgrwt>
</event>
<event>
 5    1  0.1270889E+001  0.9168139E+02  0.7546771E-02  0.1298830E+00
          1   -1    0    0  501    0  0.00000000000E+00  0.00000000000E+00  0.18381475331E+02  0.18381475331E+02  0.00000000000E+00 0. -1.
         -1   -1    0    0    0  501 -0.00000000000E+00 -0.00000000000E+00 -0.11431995680E+03  0.11431995680E+03  0.00000000000E+00 0.  1.
         23    2    1    2    0    0  0.00000000000E+00  0.00000000000E+00 -0.95938481464E+02  0.13270143213E+03  0.91681393220E+02 0.  0.
        -13    1    3    3    0    0 -0.41704738958E+02  0.18826401744E+02 -0.51972817465E+02  0.69245161632E+02  0.00000000000E+00 0.  1.
         13    1    3    3    0    0  0.41704738958E+02 -0.18826401744E+02 -0.43965663999E+02  0.63456270494E+02  0.00000000000E+00 0. -1.
<mgrwt>
<rscale>  0 0.91681393E+02</rscale>
<asrwt>0</asrwt>
<pdfrwt beam="1">  1        1 0.28279193E-02 0.91681393E+02</pdfrwt>
<pdfrwt beam="2">  1       -1 0.17587685E-01 0.91681393E+02</pdfrwt>
<totfact> 0.78179434E+04</totfact>
</mgrwt>
</event>
<event>
 5    1  0.1270889E+001  0.8953600E+02  0.7546771E-02  0.1303979E+00
          1   -1    0    0  501    0  0.00000000000E+00  0.00000000000E+00  0.34278131175E+03  0.34278131175E+03  0.00000000000E+00 0. -1.
         -1   -1    0    0    0  501 -0.00000000000E+00 -0.00000000000E+00 -0.58468002673E+01  0.58468002673E+01  0.00000000000E+00 0.  1.
         23    2    1    2    0    0  0.00000000000E+00  0.00000000000E+00  0.33693451148E+03  0.34862811201E+03  0.89536000919E+02 0.  0.
        -13    1    3    3    0    0 -0.24647372451E+02  0.36697350397E+02  0.19599598520E+03  0.20091942343E+03  0.00000000000E+00 0.  1.
         13    1    3    3    0    0  0.24647372451E+02 -0.36697350397E+02  0.14093852628E+03  0.14770868859E+03  0.00000000000E+00 0. -1.
<mgrwt>
<rscale>  0 0.89536001E+02</rscale>
<asrwt>0</asrwt>
<pdfrwt beam="1">  1        1 0.52735571E-01 0.89536001E+02</pdfrwt>
<pdfrwt beam="2">  1       -1 0.89950800E-03 0.89536001E+02</pdfrwt>
<totfact> 0.13783050E+05</totfact>
</mgrwt>
</event>
<event>
 5    1  0.1270889E+001  0.8118763E+02  0.7546771E-02  0.1325715E+00
          3   -1    0    0  501    0  0.00000000000E+00  0.00000000000E+00  0.24144652287E+02  0.24144652287E+02  0.00000000000E+00 0. -1.
         -3   -1    0    0    0  501 -0.00000000000E+00 -0.00000000000E+00 -0.68249392844E+02  0.68249392844E+02  0.00000000000E+00 0.  1.
         23    2    1    2    0    0  0.00000000000E+00  0.00000000000E+00 -0.44104740556E+02  0.92394045131E+02  0.81187631054E+02 0.  0.
        -13    1    3    3    0    0 -0.28310587727E+02 -0.29089941722E+02 -0.22483880903E+02  0.46403006232E+02  0.00000000000E+00 0. -1.
         13    1    3    3    0    0  0.28310587727E+02  0.29089941722E+02 -0.21620859653E+02  0.45991038899E+02  0.00000000000E+00 0.  1.
<mgrwt>
<rscale>  0 0.81187631E+02</rscale>
<asrwt>0</asrwt>
<pdfrwt beam="1">  1        3 0.37145619E-02 0.81187631E+02</pdfrwt>
<pdfrwt beam="2">  1       -3 0.10499906E-01 0.81187631E+02</pdfrwt>
<totfact> 0.48226138E+04</totfact>
</mgrwt>
</event>
<event>
 5    1  0.1270889E+001  0.9037616E+02  0.7546771E-02  0.1301943E+00
          1   -1    0    0  501    0  0.00000000000E+00  0.00000000000E+00  0.38213471652E+02  0.38213471652E+02  0.00000000000E+00 0. -1.
         -1   -1    0    0    0  501 -0.00000000000E+00 -0.00000000000E+00 -0.53435667157E+02  0.53435667157E+02  0.00000000000E+00 0.  1.
         23    2    1    2    0    0  0.00000000000E+00  0.00000000000E+00 -0.15222195504E+02  0.91649138809E+02  0.90376155088E+02 0.  0.
        -13    1    3    3    0    0 -0.20001925024E+02 -0.40472186203E+02 -0.56116537302E+01  0.45492477601E+02  0.00000000000E+00 0.  1.
         13    1    3    3    0    0  0.20001925024E+02  0.40472186203E+02 -0.96105417741E+01  0.46156661208E+02  0.00000000000E+00 0. -1.
<mgrwt>
<rscale>  0 0.90376155E+02</rscale>
<asrwt>0</asrwt>
<pdfrwt beam="1">  1        1 0.58789956E-02 0.90376155E+02</pdfrwt>
<pdfrwt beam="2">  1       -1 0.82208719E-02 0.90376155E+02</pdfrwt>
<totfact> 0.92307927E+04</totfact>
</mgrwt>
</event>
<event>
 5    1  0.1270889E+001  0.9377678E+02  0.7546771E-02  0.1293955E+00
          1   -1    0    0  501    0  0.00000000000E+00  0.00000000000E+00  0.79782542706E+02  0.79782542706E+02  0.00000000000E+00 0. -1.
         -1   -1    0    0    0  501 -0.00000000000E+00 -0.00000000000E+00 -0.27556420546E+02  0.27556420546E+02  0.00000000000E+00 0.  1.
         23    2    1    2    0    0  0.00000000000E+00  0.00000000000E+00  0.52226122160E+02  0.10733896325E+03  0.93776783887E+02 0.  0.
        -13    1    3    3    0    0  0.24703129616E+02  0.23151715685E+02  0.63243205290E+02  0.71735274220E+02  0.00000000000E+00 0. -1.
         13    1    3    3    0    0 -0.24703129616E+02 -0.23151715685E+02 -0.11017083130E+02  0.35603689032E+02  0.00000000000E+00 0.  1.
<mgrwt>
<rscale>  0 0.93776784E+02</rscale>
<asrwt>0</asrwt>
<pdfrwt beam="1">  1        1 0.12274237E-01 0.93776784E+02</pdfrwt>
<pdfrwt beam="2">  1       -1 0.42394494E-02 0.93776784E+02</pdfrwt>
<totfact> 0.93200600E+04</totfact>
</mgrwt>
</event>
<event>
 5    1  0.1270889E+001  0.9158714E+02  0.7546771E-02  0.1299053E+00
         -2   -1    0    0    0  501 -0.00000000000E+00  0.00000000000E+00  0.72423030530E+01  0.72423030530E+01  0.00000000000E+00 0.  1.
          2   -1    0    0  501    0  0.00000000000E+00 -0.00000000000E+00 -0.28955585665E+03  0.28955585665E+03  0.00000000000E+00 0. -1.
         23    2    1    2    0    0  0.00000000000E+00  0.00000000000E+00 -0.28231355359E+03  0.29679815970E+03  0.91587144613E+02 0.  0.
        -13    1    3    3    0    0  0.34632944363E+02  0.29958661416E+02 -0.14212373634E+03  0.14931884898E+03  0.00000000000E+00 0.  1.
         13    1    3    3    0    0 -0.34632944363E+02 -0.29958661416E+02 -0.14018981725E+03  0.14747931072E+03  0.00000000000E+00 0. -1.
<mgrwt>
<rscale>  0 0.91587145E+02</rscale>
<asrwt>0</asrwt>
<pdfrwt beam="2">  1        2 0.44547049E-01 0.91587145E+02</pdfrwt>
<pdfrwt beam="1">  1       -2 0.11142006E-02 0.91587145E+02</pdfrwt>
<totfact> 0.17518836E+05</totfact>
</mgrwt>
</event>
<event>
 5    1  0.1270889E+001  0.9076443E+02  0.7546771E-02  0.1301011E+00
         -2   -1    0    0    0  501 -0.00000000000E+00  0.00000000000E+00  0.18723600071E+02  0.18723600071E+02  0.00000000000E+00 0.  1.
          2   -1    0    0  501    0  0.00000000000E+00 -0.00000000000E+00 -0.10999728965E+03  0.10999728965E+03  0.00000000000E+00 0. -1.
         23    2    1    2    0    0  0.00000000000E+00  0.00000000000E+00 -0.91273689576E+02  0.12872088972E+03  0.90764426077E+02 0.  0.
        -13    1    3    3    0    0  0.23444928474E+02  0.12107865492E+02  0.67263249149E+01  0.27230654138E+02  0.00000000000E+00 0.  1.
         13    1    3    3    0    0 -0.23444928474E+02 -0.12107865492E+02 -0.98000014491E+02  0.10149023558E+03  0.00000000000E+00 0. -1.
<mgrwt>
<rscale>  0 0.90764426E+02</rscale>
<asrwt>0</asrwt>
<pdfrwt beam="2">  1        2 0.16922660E-01 0.90764426E+02</pdfrwt>
<pdfrwt beam="1">  1       -2 0.28805539E-02 0.90764426E+02</pdfrwt>
<totfact> 0.12791667E+05</totfact>
</mgrwt>
</event>
<event>
 5    1  0.1270889E+001  0.1001534E+03  0.7546771E-02  0.1279974E+00
         -3   -1    0    0    0  501 -0.00000000000E+00  0.00000000000E+00  0.96076882489E+01  0.96076882489E+01  0.00000000000E+00 0.  1.
          3   -1    0    0  501    0  0.00000000000E+00 -0.00000000000E+00 -0.26100709325E+03  0.26100709325E+03  0.00000000000E+00 0. -1.
         23    2    1    2    0    0  0.00000000000E+00  0.00000000000E+00 -0.25139940500E+03  0.27061478150E+03  0.10015337803E+03 0.  0.
        -11    1    3    3    0    0  0.25172763238E+02 -0.43281455235E+02 -0.12799625671E+03  0.13744087495E+03  0.00000000000E+00 0. -1.
         11    1    3    3    0    0 -0.25172763238E+02  0.43281455235E+02 -0.12340314829E+03  0.13317390655E+03  0.00000000000E+00 0.  1.
<mgrwt>
<rscale>  0 0.10015338E+03</rscale>
<asrwt>0</asrwt>
<pdfrwt beam="2">  1        3 0.40154939E-01 0.10015338E+03</pdfrwt>
<pdfrwt beam="1">  1       -3 0.14781058E-02 0.10015338E+03</pdfrwt>
<totfact> 0.19559235E+04</totfact>
</mgrwt>
</event>
<event>
 5    1  0.1270889E+001  0.9121119E+02  0.7546771E-02  0.1299945E+00
         -1   -1    0    0    0  501 -0.00000000000E+00  0.00000000000E+00  0.13892690680E+02  0.13892690680E+02  0.00000000000E+00 0.  1.
          1   -1    0    0  501    0  0.00000000000E+00 -0.00000000000E+00 -0.14970969417E+03  0.14970969417E+03  0.00000000000E+00 0. -1.
         23    2    1    2    0    0  0.00000000000E+00  0.00000000000E+00 -0.13581700349E+03  0.16360238485E+03  0.91211193893E+02 0.  0.
        -11    1    3    3    0    0 -0.12606904593E+02 -0.24333753831E+02 -0.25244103948E+01  0.27521596371E+02  0.00000000000E+00 0.  1.
         11    1    3    3    0    0  0.12606904593E+02  0.24333753831E+02 -0.13329259310E+03  0.13608078848E+03  0.00000000000E+00 0. -1.
<mgrwt>
<rscale>  0 0.91211194E+02</rscale>
<asrwt>0</asrwt>
<pdfrwt beam="2">  1        1 0.23032262E-01 0.91211194E+02</pdfrwt>
<pdfrwt beam="1">  1       -1 0.21373369E-02 0.91211194E+02</pdfrwt>
<totfact> 0.11197881E+05</totfact>
</mgrwt>
</event>
<event>
 5    1  0.1270889E+001  0.9206890E+02  0.7546771E-02  0.1297918E+00
         -1   -1    0    0    0  501 -0.00000000000E+00  0.00000000000E+00  0.16288722811E+02  0.16288722811E+02  0.00000000000E+00 0.  1.
          1   -1    0    0  501    0  0.00000000000E+00 -0.00000000000E+00 -0.13010047330E+03  0.13010047330E+03  0.00000000000E+00 0. -1.
         23    2    1    2    0    0  0.00000000000E+00  0.00000000000E+00 -0.11381175048E+03  0.14638919611E+03  0.92068899137E+02 0.  0.
        -11    1    3    3    0    0 -0.24092166659E+02 -0.77188678536E+01  0.42450780118E+01  0.25652175397E+02  0.00000000000E+00 0.  1.
         11    1    3    3    0    0  0.24092166659E+02  0.77188678536E+01 -0.11805682850E+03  0.12073702071E+03  0.00000000000E+00 0. -1.
<mgrwt>
<rscale>  0 0.92068899E+02</rscale>
<asrwt>0</asrwt>
<pdfrwt beam="2">  1        1 0.20015457E-01 0.92068899E+02</pdfrwt>
<pdfrwt beam="1">  1       -1 0.25059574E-02 0.92068899E+02</pdfrwt>
<totfact> 0.10643572E+05</totfact>
</mgrwt>
</event>
<event>
 5    1  0.1270889E+001  0.9186177E+02  0.7546771E-02  0.1298405E+00
          1   -1    0    0  501    0  0.00000000000E+00  0.00000000000E+00  0.37699508151E+02  0.37699508151E+02  0.00000000000E+00 0. -1.
         -1   -1    0    0    0  501 -0.00000000000E+00 -0.00000000000E+00 -0.55959519402E+02  0.55959519402E+02  0.00000000000E+00 0.  1.
         23    2    1    2    0    0  0.00000000000E+00  0.00000000000E+00 -0.18260011252E+02  0.93659027553E+02  0.91861773504E+02 0.  0.
        -13    1    3    3    0    0  0.42130237422E+02  0.17803009992E+02 -0.48354361906E+01  0.45992233183E+02  0.00000000000E+00 0.  1.
         13    1    3    3    0    0 -0.42130237422E+02 -0.17803009992E+02 -0.13424575061E+02  0.47666794370E+02  0.00000000000E+00 0. -1.
<mgrwt>
<rscale>  0 0.91861774E+02</rscale>
<asrwt>0</asrwt>
<pdfrwt beam="1">  1        1 0.57999244E-02 0.91861774E+02</pdfrwt>
<pdfrwt beam="2">  1       -1 0.86091568E-02 0.91861774E+02</pdfrwt>
<totfact> 0.87959620E+04</totfact>
</mgrwt>
</event>
<event>
 5    1  0.1270889E+001  0.9254266E+02  0.7546771E-02  0.1296809E+00
         -2   -1    0    0    0  501 -0.00000000000E+00  0.00000000000E+00  0.96006156228E+02  0.96006156228E+02  0.00000000000E+00 0. -1.
          2   -1    0    0  501    0  0.00000000000E+00 -0.00000000000E+00 -0.22301026067E+02  0.22301026067E+02  0.00000000000E+00 0.  1.
         23    2    1    2    0    0  0.00000000000E+00  0.00000000000E+00  0.73705130161E+02  0.11830718230E+03  0.92542655951E+02 0.  0.
        -11    1    3    3    0    0 -0.40937911477E+02  0.14859655615E+02  0.56834759438E+02  0.71602456952E+02  0.00000000000E+00 0.  1.
         11    1    3    3    0    0  0.40937911477E+02 -0.14859655615E+02  0.16870370723E+02  0.46704725343E+02  0.00000000000E+00 0. -1.
<mgrwt>
<rscale>  0 0.92542656E+02</rscale>
<asrwt>0</asrwt>
<pdfrwt beam="2">  1        2 0.34309272E-02 0.92542656E+02</pdfrwt>
<pdfrwt beam="1">  1       -2 0.14770178E-01 0.92542656E+02</pdfrwt>
<totfact> 0.77844841E+04</totfact>
</mgrwt>
</event>
<event>
 5    1  0.1270889E+001  0.9541612E+02  0.7546771E-02  0.1290242E+00
         -1   -1    0    0    0  501 -0.00000000000E+00  0.00000000000E+00  0.61106196878E+02  0.61106196878E+02  0.00000000000E+00 0.  1.
          1   -1    0    0  501    0  0.00000000000E+00 -0.00000000000E+00 -0.37247598002E+02  0.37247598002E+02  0.00000000000E+00 0. -1.
         23    2    1    2    0    0  0.00000000000E+00  0.00000000000E+00  0.23858598876E+02  0.98353794880E+02  0.95416121421E+02 0.  0.
        -11    1    3    3    0    0  0.24880647090E+02 -0.13425639975E+01 -0.30007560629E+02  0.39003881506E+02  0.00000000000E+00 0. -1.
         11    1    3    3    0    0 -0.24880647090E+02  0.13425639975E+01  0.53866159505E+02  0.59349913374E+02  0.00000000000E+00 0.  1.
<mgrwt>
<rscale>  0 0.95416121E+02</rscale>
<asrwt>0</asrwt>
<pdfrwt beam="2">  1        1 0.57303997E-02 0.95416121E+02</pdfrwt>
<pdfrwt beam="1">  1       -1 0.94009534E-02 0.95416121E+02</pdfrwt>
<totfact> 0.78788876E+04</totfact>
</mgrwt>
</event>
<event>
 5    1  0.1270889E+001  0.9157013E+02  0.7546771E-02  0.1299093E+00
         -1   -1    0    0    0  501 -0.00000000000E+00  0.00000000000E+00  0.28468379679E+03  0.28468379679E+03  0.00000000000E+00 0.  1.
          1   -1    0    0  501    0  0.00000000000E+00 -0.00000000000E+00 -0.73635103960E+01  0.73635103960E+01  0.00000000000E+00 0. -1.
         23    2    1    2    0    0  0.00000000000E+00  0.00000000000E+00  0.27732028640E+03  0.29204730719E+03  0.91570128257E+02 0.  0.
        -13    1    3    3    0    0  0.33062550631E+02  0.24631391035E+02  0.20216180056E+03  0.20632312349E+03  0.00000000000E+00 0.  1.
         13    1    3    3    0    0 -0.33062550631E+02 -0.24631391035E+02  0.75158485832E+02  0.85724183700E+02  0.00000000000E+00 0. -1.
<mgrwt>
<rscale>  0 0.91570128E+02</rscale>
<asrwt>0</asrwt>
<pdfrwt beam="2">  1        1 0.11328480E-02 0.91570128E+02</pdfrwt>
<pdfrwt beam="1">  1       -1 0.43797499E-01 0.91570128E+02</pdfrwt>
<totfact> 0.61130025E+04</totfact>
</mgrwt>
</event>
<event>
 5    1  0.1270889E+001  0.8971062E+02  0.7546771E-02  0.1303554E+00
         -2   -1    0    0    0  501 -0.00000000000E+00  0.00000000000E+00  0.18162761110E+03  0.18162761110E+03  0.00000000000E+00 0.  1.
          2   -1    0    0  501    0  0.00000000000E+00 -0.00000000000E+00 -0.11077603427E+02  0.11077603427E+02  0.00000000000E+00 0. -1.
         23    2    1    2    0    0  0.00000000000E+00  0.00000000000E+00  0.17055000767E+03  0.19270521453E+03  0.89710615809E+02 0.  0.
        -11    1    3    3    0    0  0.40544800600E+02 -0.48040253304E+01  0.12517600614E+03  0.13166621445E+03  0.00000000000E+00 0.  1.
         11    1    3    3    0    0 -0.40544800600E+02  0.48040253304E+01  0.45374001535E+02  0.61039000077E+02  0.00000000000E+00 0. -1.
<mgrwt>
<rscale>  0 0.89710616E+02</rscale>
<asrwt>0</asrwt>
<pdfrwt beam="2">  1        2 0.17042468E-02 0.89710616E+02</pdfrwt>
<pdfrwt beam="1">  1       -2 0.27942707E-01 0.89710616E+02</pdfrwt>
<totfact> 0.67628329E+04</totfact>
</mgrwt>
</event>
<event>
 5    1  0.1270889E+001  0.9397653E+02  0.7546771E-02  0.1293498E+00
         -3   -1    0    0    0  501 -0.00000000000E+00  0.00000000000E+00  0.12996207184E+02  0.12996207184E+02  0.00000000000E+00 0.  1.
          3   -1    0    0  501    0  0.00000000000E+00 -0.00000000000E+00 -0.16988780818E+03  0.16988780818E+03  0.00000000000E+00 0. -1.
         23    2    1    2    0    0  0.00000000000E+00  0.00000000000E+00 -0.15689160100E+03  0.18288401537E+03  0.93976532244E+02 0.  0.
        -13    1    3    3    0    0 -0.20064688986E+01 -0.25691000352E+02 -0.19816262029E+01  0.25845314061E+02  0.00000000000E+00 0.  1.
         13    1    3    3    0    0  0.20064688986E+01  0.25691000352E+02 -0.15490997480E+03  0.15703870131E+03  0.00000000000E+00 0. -1.
<mgrwt>
<rscale>  0 0.93976532E+02</rscale>
<asrwt>0</asrwt>
<pdfrwt beam="2">  1        3 0.26136586E-01 0.93976532E+02</pdfrwt>
<pdfrwt beam="1">  1       -3 0.19994165E-02 0.93976532E+02</pdfrwt>
<totfact> 0.27094163E+04</totfact>
</mgrwt>
</event>
<event>
 5    1  0.1270889E+001  0.9977781E+02  0.7546771E-02  0.1280764E+00
         -2   -1    0    0    0  501 -0.00000000000E+00  0.00000000000E+00  0.64433890070E+02  0.64433890070E+02  0.00000000000E+00 0.  1.
          2   -1    0    0  501    0  0.00000000000E+00 -0.00000000000E+00 -0.38627233494E+02  0.38627233494E+02  0.00000000000E+00 0. -1.
         23    2    1    2    0    0  0.00000000000E+00  0.00000000000E+00  0.25806656576E+02  0.10306112356E+03  0.99777811494E+02 0.  0.
        -13    1    3    3    0    0  0.25049862477E+02 -0.20239674993E+02  0.52259127855E+02  0.61385311746E+02  0.00000000000E+00 0.  1.
         13    1    3    3    0    0 -0.25049862477E+02  0.20239674993E+02 -0.26452471279E+02  0.41675811818E+02  0.00000000000E+00 0. -1.
<mgrwt>
<rscale>  0 0.99777811E+02</rscale>
<asrwt>0</asrwt>
<pdfrwt beam="2">  1        2 0.59426513E-02 0.99777811E+02</pdfrwt>
<pdfrwt beam="1">  1       -2 0.99129062E-02 0.99777811E+02</pdfrwt>
<totfact> 0.72542954E+04</totfact>
</mgrwt>
</event>
<event>
 5    1  0.1270889E+001  0.9581488E+02  0.7546771E-02  0.1289351E+00
          2   -1    0    0  501    0  0.00000000000E+00  0.00000000000E+00  0.15651905474E+03  0.15651905474E+03  0.00000000000E+00 0. -1.
         -2   -1    0    0    0  501 -0.00000000000E+00 -0.00000000000E+00 -0.14663536138E+02  0.14663536138E+02  0.00000000000E+00 0.  1.
         23    2    1    2    0    0  0.00000000000E+00  0.00000000000E+00  0.14185551860E+03  0.17118259087E+03  0.95814880168E+02 0.  0.
        -11    1    3    3    0    0 -0.31449421292E+02 -0.35357703602E+02  0.57571286245E+02  0.74523058871E+02  0.00000000000E+00 0.  1.
         11    1    3    3    0    0  0.31449421292E+02  0.35357703602E+02  0.84284232353E+02  0.96659532003E+02  0.00000000000E+00 0. -1.
<mgrwt>
<rscale>  0 0.95814880E+02</rscale>
<asrwt>0</asrwt>
<pdfrwt beam="1">  1        2 0.24079853E-01 0.95814880E+02</pdfrwt>
<pdfrwt beam="2">  1       -2 0.22559288E-02 0.95814880E+02</pdfrwt>
<totfact> 0.12394023E+05</totfact>
</mgrwt>
</event>
<event>
 5    1  0.1270889E+001  0.9093437E+02  0.7546771E-02  0.1300605E+00
          2   -1    0    0  501    0  0.00000000000E+00  0.00000000000E+00  0.16378003744E+03  0.16378003744E+03  0.00000000000E+00 0. -1.
         -2   -1    0    0    0  501 -0.00000000000E+00 -0.00000000000E+00 -0.12622204073E+02  0.12622204073E+02  0.00000000000E+00 0.  1.
         23    2    1    2    0    0  0.00000000000E+00  0.00000000000E+00  0.15115783337E+03  0.17640224152E+03  0.90934373164E+02 0.  0.
        -11    1    3    3    0    0 -0.34570251499E+02  0.23498433932E+02  0.11027989841E+03  0.11793614662E+03  0.00000000000E+00 0. -1.
         11    1    3    3    0    0  0.34570251499E+02 -0.23498433932E+02  0.40877934963E+02  0.58466094899E+02  0.00000000000E+00 0.  1.
<mgrwt>
<rscale>  0 0.90934373E+02</rscale>
<asrwt>0</asrwt>
<pdfrwt beam="1">  1        2 0.25196927E-01 0.90934373E+02</pdfrwt>
<pdfrwt beam="2">  1       -2 0.19418777E-02 0.90934373E+02</pdfrwt>
<totfact> 0.14513814E+05</totfact>
</mgrwt>
</event>
<event>
 5    1  0.1270889E+001  0.9492102E+02  0.7546771E-02  0.1291354E+00
         -2   -1    0    0    0  501 -0.00000000000E+00  0.00000000000E+00  0.21139793639E+03  0.21139793639E+03  0.00000000000E+00 0. -1.
          2   -1    0    0  501    0  0.00000000000E+00 -0.00000000000E+00 -0.10655259530E+02  0.10655259530E+02  0.00000000000E+00 0.  1.
         23    2    1    2    0    0  0.00000000000E+00  0.00000000000E+00  0.20074267686E+03  0.22205319592E+03  0.94921017197E+02 0.  0.
        -13    1    3    3    0    0 -0.31121330014E+02 -0.32346080005E+02  0.64304873730E+02  0.78421443872E+02  0.00000000000E+00 0. -1.
         13    1    3    3    0    0  0.31121330014E+02  0.32346080005E+02  0.13643780313E+03  0.14363175205E+03  0.00000000000E+00 0.  1.
<mgrwt>
<rscale>  0 0.94921017E+02</rscale>
<asrwt>0</asrwt>
<pdfrwt beam="2">  1        2 0.16392709E-02 0.94921017E+02</pdfrwt>
<pdfrwt beam="1">  1       -2 0.32522756E-01 0.94921017E+02</pdfrwt>
<totfact> 0.54860879E+04</totfact>
</mgrwt>
</event>
<event>
 5    1  0.1270889E+001  0.9042620E+02  0.7546771E-02  0.1301823E+00
          1   -1    0    0  501    0  0.00000000000E+00  0.00000000000E+00  0.14838608098E+02  0.14838608098E+02  0.00000000000E+00 0. -1.
         -1   -1    0    0    0  501 -0.00000000000E+00 -0.00000000000E+00 -0.13776388304E+03  0.13776388304E+03  0.00000000000E+00 0.  1.
         23    2    1    2    0    0  0.00000000000E+00  0.00000000000E+00 -0.12292527494E+03  0.15260249114E+03  0.90426196880E+02 0.  0.
        -11    1    3    3    0    0  0.10248569637E+02 -0.38473963331E+02 -0.25309350306E+02  0.47178832615E+02  0.00000000000E+00 0.  1.
         11    1    3    3    0    0 -0.10248569637E+02  0.38473963331E+02 -0.97615924638E+02  0.10542365853E+03  0.00000000000E+00 0. -1.
<mgrwt>
<rscale>  0 0.90426197E+02</rscale>
<asrwt>0</asrwt>
<pdfrwt beam="1">  1        1 0.22828629E-02 0.90426197E+02</pdfrwt>
<pdfrwt beam="2">  1       -1 0.21194442E-01 0.90426197E+02</pdfrwt>
<totfact> 0.77903696E+04</totfact>
</mgrwt>
</event>
<event>
 5    1  0.1270889E+001  0.9141895E+02  0.7546771E-02  0.1299451E+00
          1   -1    0    0  501    0  0.00000000000E+00  0.00000000000E+00  0.68935200978E+02  0.68935200978E+02  0.00000000000E+00 0. -1.
         -1   -1    0    0    0  501 -0.00000000000E+00 -0.00000000000E+00 -0.30308985174E+02  0.30308985174E+02  0.00000000000E+00 0.  1.
         23    2    1    2    0    0  0.00000000000E+00  0.00000000000E+00  0.38626215804E+02  0.99244186151E+02  0.91418947366E+02 0.  0.
        -11    1    3    3    0    0 -0.65269141536E+01 -0.33916799146E+02  0.51815944370E+02  0.62272321007E+02  0.00000000000E+00 0. -1.
         11    1    3    3    0    0  0.65269141536E+01  0.33916799146E+02 -0.13189728565E+02  0.36971865145E+02  0.00000000000E+00 0.  1.
<mgrwt>
<rscale>  0 0.91418947E+02</rscale>
<asrwt>0</asrwt>
<pdfrwt beam="1">  1        1 0.10605415E-01 0.91418947E+02</pdfrwt>
<pdfrwt beam="2">  1       -1 0.46629208E-02 0.91418947E+02</pdfrwt>
<totfact> 0.97715571E+04</totfact>
</mgrwt>
</event>
<event>
 5    1  0.1270889E+001  0.9470800E+02  0.7546771E-02  0.1291835E+00
          1   -1    0    0  501    0  0.00000000000E+00  0.00000000000E+00  0.13847622537E+03  0.13847622537E+03  0.00000000000E+00 0. -1.
         -1   -1    0    0    0  501 -0.00000000000E+00 -0.00000000000E+00 -0.16193401429E+02  0.16193401429E+02  0.00000000000E+00 0.  1.
         23    2    1    2    0    0  0.00000000000E+00  0.00000000000E+00  0.12228282394E+03  0.15466962680E+03  0.94707995560E+02 0.  0.
        -13    1    3    3    0    0 -0.27775012301E+02  0.26059543609E+02  0.15185662970E+02  0.41001896069E+02  0.00000000000E+00 0.  1.
         13    1    3    3    0    0  0.27775012301E+02 -0.26059543609E+02  0.10709716097E+03  0.11366773073E+03  0.00000000000E+00 0. -1.
<mgrwt>
<rscale>  0 0.94707996E+02</rscale>
<asrwt>0</asrwt>
<pdfrwt beam="1">  1        1 0.21304034E-01 0.94707996E+02</pdfrwt>
<pdfrwt beam="2">  1       -1 0.24912926E-02 0.94707996E+02</pdfrwt>
<totfact> 0.99694105E+04</totfact>
</mgrwt>
</event>
<event>
 5    1  0.1270889E+001  0.9853819E+02  0.7546771E-02  0.1283400E+00
         -1   -1    0    0    0  501 -0.00000000000E+00  0.00000000000E+00  0.84084803080E+02  0.84084803080E+02  0.00000000000E+00 0.  1.
          1   -1    0    0  501    0  0.00000000000E+00 -0.00000000000E+00 -0.28868993819E+02  0.28868993819E+02  0.00000000000E+00 0. -1.
         23    2    1    2    0    0  0.00000000000E+00  0.00000000000E+00  0.55215809262E+02  0.11295379690E+03  0.98538188747E+02 0.  0.
        -13    1    3    3    0    0  0.64354455980E+01 -0.20403869175E+02 -0.23266283847E+02  0.31607796529E+02  0.00000000000E+00 0. -1.
         13    1    3    3    0    0 -0.64354455980E+01  0.20403869175E+02  0.78482093109E+02  0.81346000370E+02  0.00000000000E+00 0.  1.
<mgrwt>
<rscale>  0 0.98538189E+02</rscale>
<asrwt>0</asrwt>
<pdfrwt beam="2">  1        1 0.44413837E-02 0.98538189E+02</pdfrwt>
<pdfrwt beam="1">  1       -1 0.12936123E-01 0.98538189E+02</pdfrwt>
<totfact> 0.68764016E+04</totfact>
</mgrwt>
</event>
<event>
 5    1  0.1270889E+001  0.9301941E+02  0.7546771E-02  0.1295700E+00
          1   -1    0    0  501    0  0.00000000000E+00  0.00000000000E+00  0.27513527167E+02  0.27513527167E+02  0.00000000000E+00 0. -1.
         -1   -1    0    0    0  501 -0.00000000000E+00 -0.00000000000E+00 -0.78621430666E+02  0.78621430666E+02  0.00000000000E+00 0.  1.
         23    2    1    2    0    0  0.00000000000E+00  0.00000000000E+00 -0.51107903500E+02  0.10613495783E+03  0.93019414501E+02 0.  0.
        -11    1    3    3    0    0 -0.31860582080E+02  0.21809632961E+02 -0.55140713817E+02  0.67314597976E+02  0.00000000000E+00 0.  1.
         11    1    3    3    0    0  0.31860582080E+02 -0.21809632961E+02  0.40328103179E+01  0.38820359857E+02  0.00000000000E+00 0. -1.
<mgrwt>
<rscale>  0 0.93019415E+02</rscale>
<asrwt>0</asrwt>
<pdfrwt beam="1">  1        1 0.42328503E-02 0.93019415E+02</pdfrwt>
<pdfrwt beam="2">  1       -1 0.12095605E-01 0.93019415E+02</pdfrwt>
<totfact> 0.80657531E+04</totfact>
</mgrwt>
</event>
<event>
 5    1  0.1270889E+001  0.1196762E+03  0.7546771E-02  0.1243632E+00
         -2   -1    0    0    0  501 -0.00000000000E+00  0.00000000000E+00  0.56363898414E+02  0.56363898414E+02  0.00000000000E+00 0. -1.
          2   -1    0    0  501    0  0.00000000000E+00 -0.00000000000E+00 -0.63526427521E+02  0.63526427521E+02  0.00000000000E+00 0.  1.
         23    2    1    2    0    0  0.00000000000E+00  0.00000000000E+00 -0.71625291068E+01  0.11989032593E+03  0.11967618155E+03 0.  0.
        -13    1    3    3    0    0  0.35996953778E+02 -0.12965325561E+02  0.42508850384E+02  0.57191631461E+02  0.00000000000E+00 0. -1.
         13    1    3    3    0    0 -0.35996953778E+02  0.12965325561E+02 -0.49671379491E+02  0.62698694474E+02  0.00000000000E+00 0.  1.
<mgrwt>
<rscale>  0 0.11967618E+03</rscale>
<asrwt>0</asrwt>
<pdfrwt beam="2">  1        2 0.97732965E-02 0.11967618E+03</pdfrwt>
<pdfrwt beam="1">  1       -2 0.86713690E-02 0.11967618E+03</pdfrwt>
<totfact> 0.49113964E+04</totfact>
</mgrwt>
</event>
<event>
 5    1  0.1270889E+001  0.9033397E+02  0.7546771E-02  0.1302045E+00
         -2   -1    0    0    0  501 -0.00000000000E+00  0.00000000000E+00  0.61943836501E+01  0.61943836501E+01  0.00000000000E+00 0.  1.
          2   -1    0    0  501    0  0.00000000000E+00 -0.00000000000E+00 -0.32933971517E+03  0.32933971517E+03  0.00000000000E+00 0. -1.
         23    2    1    2    0    0  0.00000000000E+00  0.00000000000E+00 -0.32314533152E+03  0.33553409882E+03  0.90333970287E+02 0.  0.
        -11    1    3    3    0    0  0.37803359439E+02 -0.22316663089E+02 -0.12210072160E+03  0.12975250923E+03  0.00000000000E+00 0. -1.
         11    1    3    3    0    0 -0.37803359439E+02  0.22316663089E+02 -0.20104460992E+03  0.20578158959E+03  0.00000000000E+00 0.  1.
<mgrwt>
<rscale>  0 0.90333970E+02</rscale>
<asrwt>0</asrwt>
<pdfrwt beam="2">  1        2 0.50667671E-01 0.90333970E+02</pdfrwt>
<pdfrwt beam="1">  1       -2 0.95298168E-03 0.90333970E+02</pdfrwt>
<totfact> 0.19064284E+05</totfact>
</mgrwt>
</event>
<event>
 5    1  0.1270889E+001  0.9126513E+02  0.7546771E-02  0.1299817E+00
          2   -1    0    0  501    0  0.00000000000E+00  0.00000000000E+00  0.15082473308E+03  0.15082473308E+03  0.00000000000E+00 0. -1.
         -2   -1    0    0    0  501 -0.00000000000E+00 -0.00000000000E+00 -0.13806295400E+02  0.13806295400E+02  0.00000000000E+00 0.  1.
         23    2    1    2    0    0  0.00000000000E+00  0.00000000000E+00  0.13701843768E+03  0.16463102848E+03  0.91265126273E+02 0.  0.
        -11    1    3    3    0    0  0.32944230469E+02 -0.89108622911E+01  0.12315224278E+03  0.12779358626E+03  0.00000000000E+00 0. -1.
         11    1    3    3    0    0 -0.32944230469E+02  0.89108622911E+01  0.13866194897E+02  0.36837442214E+02  0.00000000000E+00 0.  1.
<mgrwt>
<rscale>  0 0.91265126E+02</rscale>
<asrwt>0</asrwt>
<pdfrwt beam="1">  1        2 0.23203804E-01 0.91265126E+02</pdfrwt>
<pdfrwt beam="2">  1       -2 0.21240455E-02 0.91265126E+02</pdfrwt>
<totfact> 0.13970309E+05</totfact>
</mgrwt>
</event>
<event>
 5    1  0.1270889E+001  0.8960411E+02  0.7546771E-02  0.1303813E+00
         -1   -1    0    0    0  501 -0.00000000000E+00  0.00000000000E+00  0.85586887327E+02  0.85586887327E+02  0.00000000000E+00 0.  1.
          1   -1    0    0  501    0  0.00000000000E+00 -0.00000000000E+00 -0.23452470650E+02  0.23452470650E+02  0.00000000000E+00 0. -1.
         23    2    1    2    0    0  0.00000000000E+00  0.00000000000E+00  0.62134416677E+02  0.10903935798E+03  0.89604106224E+02 0.  0.
        -13    1    3    3    0    0 -0.29307704331E+02 -0.33594668556E+02  0.36465736390E+02  0.57595947939E+02  0.00000000000E+00 0.  1.
         13    1    3    3    0    0  0.29307704331E+02  0.33594668556E+02  0.25668680287E+02  0.51443410037E+02  0.00000000000E+00 0. -1.
<mgrwt>
<rscale>  0 0.89604106E+02</rscale>
<asrwt>0</asrwt>
<pdfrwt beam="2">  1        1 0.36080725E-02 0.89604106E+02</pdfrwt>
<pdfrwt beam="1">  1       -1 0.13167213E-01 0.89604106E+02</pdfrwt>
<totfact> 0.87491920E+04</totfact>
</mgrwt>
</event>
<event>
 5    1  0.1270889E+001  0.8966761E+02  0.7546771E-02  0.1303659E+00
          2   -1    0    0  501    0  0.00000000000E+00  0.00000000000E+00  0.11816161782E+03  0.11816161782E+03  0.00000000000E+00 0. -1.
         -2   -1    0    0    0  501 -0.00000000000E+00 -0.00000000000E+00 -0.17011192652E+02  0.17011192652E+02  0.00000000000E+00 0.  1.
         23    2    1    2    0    0  0.00000000000E+00  0.00000000000E+00  0.10115042517E+03  0.13517281047E+03  0.89667609419E+02 0.  0.
        -13    1    3    3    0    0 -0.10820126483E+02 -0.33754478929E+02  0.91911751210E+01  0.36618542912E+02  0.00000000000E+00 0.  1.
         13    1    3    3    0    0  0.10820126483E+02  0.33754478929E+02  0.91959250045E+02  0.98554267557E+02  0.00000000000E+00 0. -1.
<mgrwt>
<rscale>  0 0.89667609E+02</rscale>
<asrwt>0</asrwt>
<pdfrwt beam="1">  1        2 0.18178710E-01 0.89667609E+02</pdfrwt>
<pdfrwt beam="2">  1       -2 0.26171066E-02 0.89667609E+02</pdfrwt>
<totfact> 0.13525037E+05</totfact>
</mgrwt>
</event>
<event>
 5    1  0.1270889E+001  0.8857419E+02  0.7546771E-02  0.1306342E+00
          1   -1    0    0  501    0  0.00000000000E+00  0.00000000000E+00  0.29256080097E+03  0.29256080097E+03  0.00000000000E+00 0. -1.
         -1   -1    0    0    0  501 -0.00000000000E+00 -0.00000000000E+00 -0.67040661353E+01  0.67040661353E+01  0.00000000000E+00 0.  1.
         23    2    1    2    0    0  0.00000000000E+00  0.00000000000E+00  0.28585673484E+03  0.29926486711E+03  0.88574193946E+02 0.  0.
        -11    1    3    3    0    0 -0.60458703323E+01 -0.43861120755E+02  0.13955560006E+03  0.14641077819E+03  0.00000000000E+00 0. -1.
         11    1    3    3    0    0  0.60458703323E+01  0.43861120755E+02  0.14630113477E+03  0.15285408892E+03  0.00000000000E+00 0.  1.
<mgrwt>
<rscale>  0 0.88574194E+02</rscale>
<asrwt>0</asrwt>
<pdfrwt beam="1">  1        1 0.45009344E-01 0.88574194E+02</pdfrwt>
<pdfrwt beam="2">  1       -1 0.10313950E-02 0.88574194E+02</pdfrwt>
<totfact> 0.13771872E+05</totfact>
</mgrwt>
</event>
<event>
 5    1  0.1270889E+001  0.8866020E+02  0.7546771E-02  0.1306129E+00
         -4   -1    0    0    0  501 -0.00000000000E+00  0.00000000000E+00  0.56706698014E+02  0.56706698014E+02  0.00000000000E+00 0. -1.
          4   -1    0    0  501    0  0.00000000000E+00 -0.00000000000E+00 -0.34654777181E+02  0.34654777181E+02  0.00000000000E+00 0.  1.
         23    2    1    2    0    0  0.00000000000E+00  0.00000000000E+00  0.22051920832E+02  0.91361475195E+02  0.88660204925E+02 0.  0.
        -11    1    3    3    0    0 -0.16182283549E+02 -0.24048091238E+02 -0.23536684118E+02  0.37338351495E+02  0.00000000000E+00 0.  1.
         11    1    3    3    0    0  0.16182283549E+02  0.24048091238E+02  0.45588604950E+02  0.54023123701E+02  0.00000000000E+00 0. -1.
<mgrwt>
<rscale>  0 0.88660205E+02</rscale>
<asrwt>0</asrwt>
<pdfrwt beam="2">  1        4 0.53315042E-02 0.88660205E+02</pdfrwt>
<pdfrwt beam="1">  1       -4 0.87241074E-02 0.88660205E+02</pdfrwt>
<totfact> 0.29127945E+04</totfact>
</mgrwt>
</event>
<event>
 5    1  0.1270889E+001  0.9260288E+02  0.7546771E-02  0.1296668E+00
         -2   -1    0    0    0  501 -0.00000000000E+00  0.00000000000E+00  0.73120997629E+01  0.73120997629E+01  0.00000000000E+00 0.  1.
          2   -1    0    0  501    0  0.00000000000E+00 -0.00000000000E+00 -0.29318846477E+03  0.29318846477E+03  0.00000000000E+00 0. -1.
         23    2    1    2    0    0  0.00000000000E+00  0.00000000000E+00 -0.28587636500E+03  0.30050056453E+03  0.92602879085E+02 0.  0.
        -13    1    3    3    0    0 -0.36130317484E+02  0.23124527097E+02 -0.86388692839E+02  0.96452837415E+02  0.00000000000E+00 0.  1.
         13    1    3    3    0    0  0.36130317484E+02 -0.23124527097E+02 -0.19948767217E+03  0.20404772712E+03  0.00000000000E+00 0. -1.
<mgrwt>
<rscale>  0 0.92602879E+02</rscale>
<asrwt>0</asrwt>
<pdfrwt beam="2">  1        2 0.45105918E-01 0.92602879E+02</pdfrwt>
<pdfrwt beam="1">  1       -2 0.11249384E-02 0.92602879E+02</pdfrwt>
<totfact> 0.17089016E+05</totfact>
</mgrwt>
</event>
<event>
 5    1  0.1270889E+001  0.8928865E+02  0.7546771E-02  0.1304584E+00
          2   -1    0    0  501    0  0.00000000000E+00  0.00000000000E+00  0.83133158848E+02  0.83133158848E+02  0.00000000000E+00 0. -1.
         -2   -1    0    0    0  501 -0.00000000000E+00 -0.00000000000E+00 -0.23974978586E+02  0.23974978586E+02  0.00000000000E+00 0.  1.
         23    2    1    2    0    0  0.00000000000E+00  0.00000000000E+00  0.59158180262E+02  0.10710813743E+03  0.89288648846E+02 0.  0.
        -13    1    3    3    0    0  0.18337591925E+01 -0.32709219626E+02 -0.68029525352E+01  0.33459466291E+02  0.00000000000E+00 0.  1.
         13    1    3    3    0    0 -0.18337591925E+01  0.32709219626E+02  0.65961132797E+02  0.73648671143E+02  0.00000000000E+00 0. -1.
<mgrwt>
<rscale>  0 0.89288649E+02</rscale>
<asrwt>0</asrwt>
<pdfrwt beam="1">  1        2 0.12789717E-01 0.89288649E+02</pdfrwt>
<pdfrwt beam="2">  1       -2 0.36884583E-02 0.89288649E+02</pdfrwt>
<totfact> 0.12305591E+05</totfact>
</mgrwt>
</event>
<event>
 4    1  0.1270889E+001  0.5336911E+02  0.7546771E-02  0.1427973E+00
         -1   -1    0    0    0  501 -0.00000000000E+00  0.00000000000E+00  0.52937209264E+01  0.52937209264E+01  0.00000000000E+00 0.  1.
          1   -1    0    0  501    0  0.00000000000E+00 -0.00000000000E+00 -0.13451135801E+03  0.13451135801E+03  0.00000000000E+00 0. -1.
        -11    1    1    2    0    0 -0.80924976399E+01 -0.20019467837E+02 -0.10567857320E+03  0.10786208066E+03  0.00000000000E+00 0. -1.
         11    1    1    2    0    0  0.80924976399E+01  0.20019467837E+02 -0.23539063890E+02  0.31942998283E+02  0.00000000000E+00 0.  1.
<mgrwt>
<rscale>  0 0.53369114E+02</rscale>
<asrwt>0</asrwt>
<pdfrwt beam="2">  1        1 0.20694055E-01 0.53369114E+02</pdfrwt>
<pdfrwt beam="1">  1       -1 0.81441861E-03 0.53369114E+02</pdfrwt>
<totfact> 0.44683717E+05</totfact>
</mgrwt>
</event>
<event>
 5    1  0.1270889E+001  0.7946922E+02  0.7546771E-02  0.1330564E+00
          3   -1    0    0  501    0  0.00000000000E+00  0.00000000000E+00  0.35416013273E+02  0.35416013273E+02  0.00000000000E+00 0. -1.
         -3   -1    0    0    0  501 -0.00000000000E+00 -0.00000000000E+00 -0.44579817217E+02  0.44579817217E+02  0.00000000000E+00 0.  1.
         23    2    1    2    0    0  0.00000000000E+00  0.00000000000E+00 -0.91638039440E+01  0.79995830489E+02  0.79469224187E+02 0.  0.
        -13    1    3    3    0    0 -0.35848742521E+02  0.11592120825E+02 -0.17288136692E+02  0.41453459154E+02  0.00000000000E+00 0. -1.
         13    1    3    3    0    0  0.35848742521E+02 -0.11592120825E+02  0.81243327477E+01  0.38542371335E+02  0.00000000000E+00 0.  1.
<mgrwt>
<rscale>  0 0.79469224E+02</rscale>
<asrwt>0</asrwt>
<pdfrwt beam="1">  1        3 0.54486175E-02 0.79469224E+02</pdfrwt>
<pdfrwt beam="2">  1       -3 0.68584334E-02 0.79469224E+02</pdfrwt>
<totfact> 0.52518749E+04</totfact>
</mgrwt>
</event>
<event>
 5    1  0.1270889E+001  0.9292376E+02  0.7546771E-02  0.1295922E+00
         -3   -1    0    0    0  501 -0.00000000000E+00  0.00000000000E+00  0.19749890929E+03  0.19749890929E+03  0.00000000000E+00 0.  1.
          3   -1    0    0  501    0  0.00000000000E+00 -0.00000000000E+00 -0.10930219595E+02  0.10930219595E+02  0.00000000000E+00 0. -1.
         23    2    1    2    0    0  0.00000000000E+00  0.00000000000E+00  0.18656868970E+03  0.20842912889E+03  0.92923763339E+02 0.  0.
        -13    1    3    3    0    0  0.29247564934E+01 -0.46115730163E+02  0.10415582444E+03  0.11394582280E+03  0.00000000000E+00 0.  1.
         13    1    3    3    0    0 -0.29247564934E+01  0.46115730163E+02  0.82412865261E+02  0.94483306089E+02  0.00000000000E+00 0. -1.
<mgrwt>
<rscale>  0 0.92923763E+02</rscale>
<asrwt>0</asrwt>
<pdfrwt beam="2">  1        3 0.16815724E-02 0.92923763E+02</pdfrwt>
<pdfrwt beam="1">  1       -3 0.30384445E-01 0.92923763E+02</pdfrwt>
<totfact> 0.26663149E+04</totfact>
</mgrwt>
</event>
<event>
 5    1  0.1270889E+001  0.9172608E+02  0.7546771E-02  0.1298725E+00
          4   -1    0    0  501    0  0.00000000000E+00  0.00000000000E+00  0.99931733092E+01  0.99931733092E+01  0.00000000000E+00 0. -1.
         -4   -1    0    0    0  501 -0.00000000000E+00 -0.00000000000E+00 -0.21048554025E+03  0.21048554025E+03  0.00000000000E+00 0.  1.
         23    2    1    2    0    0  0.00000000000E+00  0.00000000000E+00 -0.20049236694E+03  0.22047871356E+03  0.91726080976E+02 0.  0.
        -11    1    3    3    0    0  0.39054289375E+02  0.39499368905E+00 -0.15803544143E+03  0.16279003128E+03  0.00000000000E+00 0.  1.
         11    1    3    3    0    0 -0.39054289375E+02 -0.39499368905E+00 -0.42456925519E+02  0.57688682279E+02  0.00000000000E+00 0. -1.
<mgrwt>
<rscale>  0 0.91726081E+02</rscale>
<asrwt>0</asrwt>
<pdfrwt beam="1">  1        4 0.15374113E-02 0.91726081E+02</pdfrwt>
<pdfrwt beam="2">  1       -4 0.32382390E-01 0.91726081E+02</pdfrwt>
<totfact> 0.20232079E+04</totfact>
</mgrwt>
</event>
<event>
 5    1  0.1270889E+001  0.9310330E+02  0.7546771E-02  0.1295506E+00
         -1   -1    0    0    0  501 -0.00000000000E+00  0.00000000000E+00  0.16163676745E+02  0.16163676745E+02  0.00000000000E+00 0.  1.
          1   -1    0    0  501    0  0.00000000000E+00 -0.00000000000E+00 -0.13406950540E+03  0.13406950540E+03  0.00000000000E+00 0. -1.
         23    2    1    2    0    0  0.00000000000E+00  0.00000000000E+00 -0.11790582865E+03  0.15023318214E+03  0.93103300620E+02 0.  0.
        -13    1    3    3    0    0 -0.18771229257E+02 -0.41092350173E+02 -0.40831769353E+02  0.60894775466E+02  0.00000000000E+00 0.  1.
         13    1    3    3    0    0  0.18771229257E+02  0.41092350173E+02 -0.77074059299E+02  0.89338406676E+02  0.00000000000E+00 0. -1.
<mgrwt>
<rscale>  0 0.93103301E+02</rscale>
<asrwt>0</asrwt>
<pdfrwt beam="2">  1        1 0.20626077E-01 0.93103301E+02</pdfrwt>
<pdfrwt beam="1">  1       -1 0.24867195E-02 0.93103301E+02</pdfrwt>
<totfact> 0.10381672E+05</totfact>
</mgrwt>
</event>
<event>
 5    1  0.1270889E+001  0.6658747E+02  0.7546771E-02  0.1372098E+00
         -3   -1    0    0    0  501 -0.00000000000E+00  0.00000000000E+00  0.12474824678E+03  0.12474824678E+03  0.00000000000E+00 0.  1.
          3   -1    0    0  501    0  0.00000000000E+00 -0.00000000000E+00 -0.88856788603E+01  0.88856788603E+01  0.00000000000E+00 0. -1.
         23    2    1    2    0    0  0.00000000000E+00  0.00000000000E+00  0.11586256792E+03  0.13363392564E+03  0.66587472074E+02 0.  0.
        -13    1    3    3    0    0  0.21867224886E+02  0.79475388593E+01  0.10137983120E+02  0.25379472017E+02  0.00000000000E+00 0. -1.
         13    1    3    3    0    0 -0.21867224886E+02 -0.79475388593E+01  0.10572458480E+03  0.10825445362E+03  0.00000000000E+00 0.  1.
<mgrwt>
<rscale>  0 0.66587472E+02</rscale>
<asrwt>0</asrwt>
<pdfrwt beam="2">  1        3 0.13670276E-02 0.66587472E+02</pdfrwt>
<pdfrwt beam="1">  1       -3 0.19192037E-01 0.66587472E+02</pdfrwt>
<totfact> 0.74551710E+04</totfact>
</mgrwt>
</event>
<event>
 5    1  0.1270889E+001  0.9215216E+02  0.7546771E-02  0.1297722E+00
         -1   -1    0    0    0  501 -0.00000000000E+00  0.00000000000E+00  0.77854799250E+02  0.77854799250E+02  0.00000000000E+00 0.  1.
          1   -1    0    0  501    0  0.00000000000E+00 -0.00000000000E+00 -0.27268778466E+02  0.27268778466E+02  0.00000000000E+00 0. -1.
         23    2    1    2    0    0  0.00000000000E+00  0.00000000000E+00  0.50586020783E+02  0.10512357772E+03  0.92152162716E+02 0.  0.
        -11    1    3    3    0    0  0.38486011545E+02  0.11775250155E+02  0.50882075465E+02  0.64875382114E+02  0.00000000000E+00 0.  1.
         11    1    3    3    0    0 -0.38486011545E+02 -0.11775250155E+02 -0.29605468140E+00  0.40248195602E+02  0.00000000000E+00 0. -1.
<mgrwt>
<rscale>  0 0.92152163E+02</rscale>
<asrwt>0</asrwt>
<pdfrwt beam="2">  1        1 0.41951967E-02 0.92152163E+02</pdfrwt>
<pdfrwt beam="1">  1       -1 0.11977661E-01 0.92152163E+02</pdfrwt>
<totfact> 0.82752959E+04</totfact>
</mgrwt>
</event>
<event>
 5    1  0.1270889E+001  0.9173837E+02  0.7546771E-02  0.1298696E+00
          1   -1    0    0  501    0  0.00000000000E+00  0.00000000000E+00  0.31240017189E+02  0.31240017189E+02  0.00000000000E+00 0. -1.
         -1   -1    0    0    0  501 -0.00000000000E+00 -0.00000000000E+00 -0.67348937541E+02  0.67348937541E+02  0.00000000000E+00 0.  1.
         23    2    1    2    0    0  0.00000000000E+00  0.00000000000E+00 -0.36108920352E+02  0.98588954731E+02  0.91738366379E+02 0.  0.
        -13    1    3    3    0    0  0.37760734817E+02  0.22033625626E+02 -0.32969939323E+02  0.54757379878E+02  0.00000000000E+00 0.  1.
         13    1    3    3    0    0 -0.37760734817E+02 -0.22033625626E+02 -0.31389810289E+01  0.43831574853E+02  0.00000000000E+00 0. -1.
<mgrwt>
<rscale>  0 0.91738366E+02</rscale>
<asrwt>0</asrwt>
<pdfrwt beam="1">  1        1 0.48061565E-02 0.91738366E+02</pdfrwt>
<pdfrwt beam="2">  1       -1 0.10361375E-01 0.91738366E+02</pdfrwt>
<totfact> 0.85726363E+04</totfact>
</mgrwt>
</event>
<event>
 5    1  0.1270889E+001  0.7055733E+02  0.7546771E-02  0.1358208E+00
         -2   -1    0    0    0  501 -0.00000000000E+00  0.00000000000E+00  0.51930533732E+01  0.51930533732E+01  0.00000000000E+00 0. -1.
          2   -1    0    0  501    0  0.00000000000E+00 -0.00000000000E+00 -0.23966329849E+03  0.23966329849E+03  0.00000000000E+00 0.  1.
         23    2    1    2    0    0  0.00000000000E+00  0.00000000000E+00 -0.23447024512E+03  0.24485635187E+03  0.70557332735E+02 0.  0.
        -13    1    3    3    0    0  0.30239994053E+02  0.10606371123E+02 -0.16843047633E+03  0.17145196909E+03  0.00000000000E+00 0.  1.
         13    1    3    3    0    0 -0.30239994053E+02 -0.10606371123E+02 -0.66039768794E+02  0.73404382778E+02  0.00000000000E+00 0. -1.
<mgrwt>
<rscale>  0 0.70557333E+02</rscale>
<asrwt>0</asrwt>
<pdfrwt beam="2">  1        2 0.36871272E-01 0.70557333E+02</pdfrwt>
<pdfrwt beam="1">  1       -2 0.79893139E-03 0.70557333E+02</pdfrwt>
<totfact> 0.32520825E+05</totfact>
</mgrwt>
</event>
<event>
 5    1  0.1270889E+001  0.8815247E+02  0.7546771E-02  0.1307388E+00
         -3   -1    0    0    0  501 -0.00000000000E+00  0.00000000000E+00  0.20030396660E+02  0.20030396660E+02  0.00000000000E+00 0.  1.
          3   -1    0    0  501    0  0.00000000000E+00 -0.00000000000E+00 -0.96988315089E+02  0.96988315089E+02  0.00000000000E+00 0. -1.
         23    2    1    2    0    0  0.00000000000E+00  0.00000000000E+00 -0.76957918429E+02  0.11701871175E+03  0.88152468431E+02 0.  0.
        -11    1    3    3    0    0  0.18153020727E+02  0.24135315406E+02 -0.81095716582E+02  0.86536471267E+02  0.00000000000E+00 0. -1.
         11    1    3    3    0    0 -0.18153020727E+02 -0.24135315406E+02  0.41377981533E+01  0.30482240482E+02  0.00000000000E+00 0.  1.
<mgrwt>
<rscale>  0 0.88152468E+02</rscale>
<asrwt>0</asrwt>
<pdfrwt beam="2">  1        3 0.14921279E-01 0.88152468E+02</pdfrwt>
<pdfrwt beam="1">  1       -3 0.30815995E-02 0.88152468E+02</pdfrwt>
<totfact> 0.36650120E+04</totfact>
</mgrwt>
</event>
<event>
 5    1  0.1270889E+001  0.8870012E+02  0.7546771E-02  0.1306030E+00
          1   -1    0    0  501    0  0.00000000000E+00  0.00000000000E+00  0.25960004747E+03  0.25960004747E+03  0.00000000000E+00 0.  1.
         -1   -1    0    0    0  501 -0.00000000000E+00 -0.00000000000E+00 -0.75767624586E+01  0.75767624586E+01  0.00000000000E+00 0. -1.
         23    2    1    2    0    0  0.00000000000E+00  0.00000000000E+00  0.25202328501E+03  0.26717680993E+03  0.88700121621E+02 0.  0.
        -13    1    3    3    0    0  0.36740698440E+02  0.78387436488E+01  0.19701139965E+03  0.20056125352E+03  0.00000000000E+00 0.  1.
         13    1    3    3    0    0 -0.36740698440E+02 -0.78387436488E+01  0.55011885363E+02  0.66615556404E+02  0.00000000000E+00 0. -1.
<mgrwt>
<rscale>  0 0.88700122E+02</rscale>
<asrwt>0</asrwt>
<pdfrwt beam="1">  1        1 0.39938462E-01 0.88700122E+02</pdfrwt>
<pdfrwt beam="2">  1       -1 0.11656560E-02 0.88700122E+02</pdfrwt>
<totfact> 0.13406790E+05</totfact>
</mgrwt>
</event>
<event>
 5    1  0.1270889E+001  0.9224736E+02  0.7546771E-02  0.1297499E+00
         -1   -1    0    0    0  501 -0.00000000000E+00  0.00000000000E+00  0.65423278784E+02  0.65423278784E+02  0.00000000000E+00 0.  1.
          1   -1    0    0  501    0  0.00000000000E+00 -0.00000000000E+00 -0.32517386411E+02  0.32517386411E+02  0.00000000000E+00 0. -1.
         23    2    1    2    0    0  0.00000000000E+00  0.00000000000E+00  0.32905892373E+02  0.97940665196E+02  0.92247363898E+02 0.  0.
        -13    1    3    3    0    0 -0.14608703118E+02  0.18152519651E+02  0.58714993116E+02  0.63169443508E+02  0.00000000000E+00 0.  1.
         13    1    3    3    0    0  0.14608703118E+02 -0.18152519651E+02 -0.25809100743E+02  0.34771221687E+02  0.00000000000E+00 0. -1.
<mgrwt>
<rscale>  0 0.92247364E+02</rscale>
<asrwt>0</asrwt>
<pdfrwt beam="2">  1        1 0.50026748E-02 0.92247364E+02</pdfrwt>
<pdfrwt beam="1">  1       -1 0.10065120E-01 0.92247364E+02</pdfrwt>
<totfact> 0.84920239E+04</totfact>
</mgrwt>
</event>
<event>
 5    1  0.1270889E+001  0.9831704E+02  0.7546771E-02  0.1283875E+00
         -1   -1    0    0    0  501 -0.00000000000E+00  0.00000000000E+00  0.13819609908E+03  0.13819609908E+03  0.00000000000E+00 0.  1.
          1   -1    0    0  501    0  0.00000000000E+00 -0.00000000000E+00 -0.17486457469E+02  0.17486457469E+02  0.00000000000E+00 0. -1.
         23    2    1    2    0    0  0.00000000000E+00  0.00000000000E+00  0.12070964161E+03  0.15568255655E+03  0.98317042449E+02 0.  0.
        -13    1    3    3    0    0 -0.48736359418E+02 -0.62296768734E+01  0.62867813565E+02  0.79789746119E+02  0.00000000000E+00 0. -1.
         13    1    3    3    0    0  0.48736359418E+02  0.62296768734E+01  0.57841828047E+02  0.75892810431E+02  0.00000000000E+00 0.  1.
<mgrwt>
<rscale>  0 0.98317042E+02</rscale>
<asrwt>0</asrwt>
<pdfrwt beam="2">  1        1 0.26902243E-02 0.98317042E+02</pdfrwt>
<pdfrwt beam="1">  1       -1 0.21260938E-01 0.98317042E+02</pdfrwt>
<totfact> 0.62644986E+04</totfact>
</mgrwt>
</event>
<event>
 5    1  0.1270889E+001  0.7556819E+02  0.7546771E-02  0.1342121E+00
         -3   -1    0    0    0  501 -0.00000000000E+00  0.00000000000E+00  0.36812294572E+02  0.36812294572E+02  0.00000000000E+00 0.  1.
          3   -1    0    0  501    0  0.00000000000E+00 -0.00000000000E+00 -0.38781547356E+02  0.38781547356E+02  0.00000000000E+00 0. -1.
         23    2    1    2    0    0  0.00000000000E+00  0.00000000000E+00 -0.19692527839E+01  0.75593841928E+02  0.75568187625E+02 0.  0.
        -11    1    3    3    0    0 -0.10992242022E+02 -0.27759916636E+02 -0.24148380661E+02  0.38400346936E+02  0.00000000000E+00 0. -1.
         11    1    3    3    0    0  0.10992242022E+02  0.27759916636E+02  0.22179127877E+02  0.37193494992E+02  0.00000000000E+00 0.  1.
<mgrwt>
<rscale>  0 0.75568188E+02</rscale>
<asrwt>0</asrwt>
<pdfrwt beam="2">  1        3 0.59663919E-02 0.75568188E+02</pdfrwt>
<pdfrwt beam="1">  1       -3 0.56634299E-02 0.75568188E+02</pdfrwt>
<totfact> 0.60705585E+04</totfact>
</mgrwt>
</event>
<event>
 5    1  0.1270889E+001  0.9111403E+02  0.7546771E-02  0.1300176E+00
         -1   -1    0    0    0  501 -0.00000000000E+00  0.00000000000E+00  0.11983164694E+02  0.11983164694E+02  0.00000000000E+00 0.  1.
          1   -1    0    0  501    0  0.00000000000E+00 -0.00000000000E+00 -0.17319643840E+03  0.17319643840E+03  0.00000000000E+00 0. -1.
         23    2    1    2    0    0  0.00000000000E+00  0.00000000000E+00 -0.16121327370E+03  0.18517960309E+03  0.91114026269E+02 0.  0.
        -11    1    3    3    0    0  0.16279866340E+02 -0.42488492007E+02 -0.76000923148E+02  0.88580168889E+02  0.00000000000E+00 0.  1.
         11    1    3    3    0    0 -0.16279866340E+02  0.42488492007E+02 -0.85212350553E+02  0.96599434200E+02  0.00000000000E+00 0. -1.
<mgrwt>
<rscale>  0 0.91114026E+02</rscale>
<asrwt>0</asrwt>
<pdfrwt beam="2">  1        1 0.26645604E-01 0.91114026E+02</pdfrwt>
<pdfrwt beam="1">  1       -1 0.18435639E-02 0.91114026E+02</pdfrwt>
<totfact> 0.11539331E+05</totfact>
</mgrwt>
</event>
<event>
 5    1  0.1270889E+001  0.9192465E+02  0.7546771E-02  0.1298257E+00
          1   -1    0    0  501    0  0.00000000000E+00  0.00000000000E+00  0.72158485997E+01  0.72158485997E+01  0.00000000000E+00 0. -1.
         -1   -1    0    0    0  501 -0.00000000000E+00 -0.00000000000E+00 -0.29276326612E+03  0.29276326612E+03  0.00000000000E+00 0.  1.
         23    2    1    2    0    0  0.00000000000E+00  0.00000000000E+00 -0.28554741752E+03  0.29997911472E+03  0.91924651838E+02 0.  0.
        -11    1    3    3    0    0  0.65714177319E+01 -0.41976318286E+02 -0.19998331728E+03  0.20444686844E+03  0.00000000000E+00 0.  1.
         11    1    3    3    0    0 -0.65714177319E+01  0.41976318286E+02 -0.85564100245E+02  0.95532246276E+02  0.00000000000E+00 0. -1.
<mgrwt>
<rscale>  0 0.91924652E+02</rscale>
<asrwt>0</asrwt>
<pdfrwt beam="1">  1        1 0.11101302E-02 0.91924652E+02</pdfrwt>
<pdfrwt beam="2">  1       -1 0.45040516E-01 0.91924652E+02</pdfrwt>
<totfact> 0.59871986E+04</totfact>
</mgrwt>
</event>
<event>
 5    1  0.1270889E+001  0.9039838E+02  0.7546771E-02  0.1301890E+00
          3   -1    0    0  501    0  0.00000000000E+00  0.00000000000E+00  0.65608549439E+01  0.65608549439E+01  0.00000000000E+00 0. -1.
         -3   -1    0    0    0  501 -0.00000000000E+00 -0.00000000000E+00 -0.31138726304E+03  0.31138726304E+03  0.00000000000E+00 0.  1.
         23    2    1    2    0    0  0.00000000000E+00  0.00000000000E+00 -0.30482640810E+03  0.31794811798E+03  0.90398377512E+02 0.  0.
        -13    1    3    3    0    0 -0.33933940014E+02  0.24364354751E+02 -0.21311223211E+03  0.21716803987E+03  0.00000000000E+00 0.  1.
         13    1    3    3    0    0  0.33933940014E+02 -0.24364354751E+02 -0.91714175990E+02  0.10078007811E+03  0.00000000000E+00 0. -1.
<mgrwt>
<rscale>  0 0.90398378E+02</rscale>
<asrwt>0</asrwt>
<pdfrwt beam="1">  1        3 0.10093625E-02 0.90398378E+02</pdfrwt>
<pdfrwt beam="2">  1       -3 0.47905723E-01 0.90398378E+02</pdfrwt>
<totfact> 0.23886416E+04</totfact>
</mgrwt>
</event>
<event>
 5    1  0.1270889E+001  0.9513222E+02  0.7546771E-02  0.1290879E+00
          2   -1    0    0  501    0  0.00000000000E+00  0.00000000000E+00  0.10973361814E+03  0.10973361814E+03  0.00000000000E+00 0. -1.
         -2   -1    0    0    0  501 -0.00000000000E+00 -0.00000000000E+00 -0.20618428646E+02  0.20618428646E+02  0.00000000000E+00 0.  1.
         23    2    1    2    0    0  0.00000000000E+00  0.00000000000E+00  0.89115189490E+02  0.13035204678E+03  0.95132219056E+02 0.  0.
        -11    1    3    3    0    0 -0.32831661328E+02  0.14870823298E+02  0.20261100043E+01  0.36099369702E+02  0.00000000000E+00 0.  1.
         11    1    3    3    0    0  0.32831661328E+02 -0.14870823298E+02  0.87089079486E+02  0.94252677080E+02  0.00000000000E+00 0. -1.
<mgrwt>
<rscale>  0 0.95132219E+02</rscale>
<asrwt>0</asrwt>
<pdfrwt beam="1">  1        2 0.16882095E-01 0.95132219E+02</pdfrwt>
<pdfrwt beam="2">  1       -2 0.31720660E-02 0.95132219E+02</pdfrwt>
<totfact> 0.11230958E+05</totfact>
</mgrwt>
</event>
<event>
 5    1  0.1270889E+001  0.5947007E+02  0.7546771E-02  0.1400069E+00
          4   -1    0    0  501    0  0.00000000000E+00  0.00000000000E+00  0.10902002619E+03  0.10902002619E+03  0.00000000000E+00 0.  1.
         -4   -1    0    0    0  501 -0.00000000000E+00 -0.00000000000E+00 -0.81101835541E+01  0.81101835541E+01  0.00000000000E+00 0. -1.
         23    2    1    2    0    0  0.00000000000E+00  0.00000000000E+00  0.10090984264E+03  0.11713020975E+03  0.59470073937E+02 0.  0.
        -13    1    3    3    0    0  0.13785794447E+02 -0.21516462577E+02  0.20509353896E+02  0.32766444536E+02  0.00000000000E+00 0. -1.
         13    1    3    3    0    0 -0.13785794447E+02  0.21516462577E+02  0.80400488745E+02  0.84363765212E+02  0.00000000000E+00 0.  1.
<mgrwt>
<rscale>  0 0.59470074E+02</rscale>
<asrwt>0</asrwt>
<pdfrwt beam="1">  1        4 0.16772311E-01 0.59470074E+02</pdfrwt>
<pdfrwt beam="2">  1       -4 0.12477206E-02 0.59470074E+02</pdfrwt>
<totfact> 0.77806191E+04</totfact>
</mgrwt>
</event>
<event>
 5    1  0.1270889E+001  0.9295397E+02  0.7546771E-02  0.1295852E+00
         -3   -1    0    0    0  501 -0.00000000000E+00  0.00000000000E+00  0.92343717643E+02  0.92343717643E+02  0.00000000000E+00 0.  1.
          3   -1    0    0  501    0  0.00000000000E+00 -0.00000000000E+00 -0.23392061856E+02  0.23392061856E+02  0.00000000000E+00 0. -1.
         23    2    1    2    0    0  0.00000000000E+00  0.00000000000E+00  0.68951655788E+02  0.11573577950E+03  0.92953966136E+02 0.  0.
        -11    1    3    3    0    0 -0.22077253424E+02  0.30219613288E+02  0.16289566928E+00  0.37425348108E+02  0.00000000000E+00 0. -1.
         11    1    3    3    0    0  0.22077253424E+02 -0.30219613288E+02  0.68788760118E+02  0.78310431391E+02  0.00000000000E+00 0.  1.
<mgrwt>
<rscale>  0 0.92953966E+02</rscale>
<asrwt>0</asrwt>
<pdfrwt beam="2">  1        3 0.35987788E-02 0.92953966E+02</pdfrwt>
<pdfrwt beam="1">  1       -3 0.14206726E-01 0.92953966E+02</pdfrwt>
<totfact> 0.31823857E+04</totfact>
</mgrwt>
</event>
<event>
 5    1  0.1270889E+001  0.9103687E+02  0.7546771E-02  0.1300360E+00
          3   -1    0    0  501    0  0.00000000000E+00  0.00000000000E+00  0.84618844693E+02  0.84618844693E+02  0.00000000000E+00 0. -1.
         -3   -1    0    0    0  501 -0.00000000000E+00 -0.00000000000E+00 -0.24485421389E+02  0.24485421389E+02  0.00000000000E+00 0.  1.
         23    2    1    2    0    0  0.00000000000E+00  0.00000000000E+00  0.60133423304E+02  0.10910426608E+03  0.91036873184E+02 0.  0.
        -11    1    3    3    0    0  0.10243652857E+02  0.32746902521E+02 -0.57798569836E+01  0.34795097289E+02  0.00000000000E+00 0.  1.
         11    1    3    3    0    0 -0.10243652857E+02 -0.32746902521E+02  0.65913280288E+02  0.74309168794E+02  0.00000000000E+00 0. -1.
<mgrwt>
<rscale>  0 0.91036873E+02</rscale>
<asrwt>0</asrwt>
<pdfrwt beam="1">  1        3 0.13018284E-01 0.91036873E+02</pdfrwt>
<pdfrwt beam="2">  1       -3 0.37669879E-02 0.91036873E+02</pdfrwt>
<totfact> 0.34151326E+04</totfact>
</mgrwt>
</event>
<event>
 5    1  0.1270889E+001  0.9166130E+02  0.7546771E-02  0.1298878E+00
         -1   -1    0    0    0  501 -0.00000000000E+00  0.00000000000E+00  0.13331871990E+03  0.13331871990E+03  0.00000000000E+00 0.  1.
          1   -1    0    0  501    0  0.00000000000E+00 -0.00000000000E+00 -0.15755091737E+02  0.15755091737E+02  0.00000000000E+00 0. -1.
         23    2    1    2    0    0  0.00000000000E+00  0.00000000000E+00  0.11756362816E+03  0.14907381163E+03  0.91661303988E+02 0.  0.
        -11    1    3    3    0    0 -0.26365837321E+02  0.13016331304E+02  0.16074835663E+01  0.29447686864E+02  0.00000000000E+00 0. -1.
         11    1    3    3    0    0  0.26365837321E+02 -0.13016331304E+02  0.11595614459E+03  0.11962612477E+03  0.00000000000E+00 0.  1.
<mgrwt>
<rscale>  0 0.91661304E+02</rscale>
<asrwt>0</asrwt>
<pdfrwt beam="2">  1        1 0.24238603E-02 0.91661304E+02</pdfrwt>
<pdfrwt beam="1">  1       -1 0.20510572E-01 0.91661304E+02</pdfrwt>
<totfact> 0.75757085E+04</totfact>
</mgrwt>
</event>
<event>
 5    1  0.1270889E+001  0.9627928E+02  0.7546771E-02  0.1288321E+00
          2   -1    0    0  501    0  0.00000000000E+00  0.00000000000E+00  0.31454835637E+02  0.31454835637E+02  0.00000000000E+00 0. -1.
         -2   -1    0    0    0  501 -0.00000000000E+00 -0.00000000000E+00 -0.73674683624E+02  0.73674683624E+02  0.00000000000E+00 0.  1.
         23    2    1    2    0    0  0.00000000000E+00  0.00000000000E+00 -0.42219847987E+02  0.10512951926E+03  0.96279282591E+02 0.  0.
        -13    1    3    3    0    0  0.38490756094E+02  0.27198450623E+02 -0.31815835769E+02  0.56864236799E+02  0.00000000000E+00 0.  1.
         13    1    3    3    0    0 -0.38490756094E+02 -0.27198450623E+02 -0.10404012217E+02  0.48265282463E+02  0.00000000000E+00 0. -1.
<mgrwt>
<rscale>  0 0.96279283E+02</rscale>
<asrwt>0</asrwt>
<pdfrwt beam="1">  1        2 0.48392056E-02 0.96279283E+02</pdfrwt>
<pdfrwt beam="2">  1       -2 0.11334567E-01 0.96279283E+02</pdfrwt>
<totfact> 0.76178639E+04</totfact>
</mgrwt>
</event>
<event>
 5    1  0.1270889E+001  0.9145898E+02  0.7546771E-02  0.1299357E+00
         -3   -1    0    0    0  501 -0.00000000000E+00  0.00000000000E+00  0.62720373135E+02  0.62720373135E+02  0.00000000000E+00 0.  1.
          3   -1    0    0  501    0  0.00000000000E+00 -0.00000000000E+00 -0.33341418258E+02  0.33341418258E+02  0.00000000000E+00 0. -1.
         23    2    1    2    0    0  0.00000000000E+00  0.00000000000E+00  0.29378954877E+02  0.96061791393E+02  0.91458978651E+02 0.  0.
        -11    1    3    3    0    0  0.11887365746E+02 -0.43777356733E+02  0.20761397476E+02  0.49887894845E+02  0.00000000000E+00 0.  1.
         11    1    3    3    0    0 -0.11887365746E+02  0.43777356733E+02  0.86175574007E+01  0.46173896548E+02  0.00000000000E+00 0. -1.
<mgrwt>
<rscale>  0 0.91458979E+02</rscale>
<asrwt>0</asrwt>
<pdfrwt beam="2">  1        3 0.51294490E-02 0.91458979E+02</pdfrwt>
<pdfrwt beam="1">  1       -3 0.96492882E-02 0.91458979E+02</pdfrwt>
<totfact> 0.34673378E+04</totfact>
</mgrwt>
</event>
<event>
 5    1  0.1270889E+001  0.9090926E+02  0.7546771E-02  0.1300665E+00
          3   -1    0    0  501    0  0.00000000000E+00  0.00000000000E+00  0.70869815759E+01  0.70869815759E+01  0.00000000000E+00 0. -1.
         -3   -1    0    0    0  501 -0.00000000000E+00 -0.00000000000E+00 -0.29153784514E+03  0.29153784514E+03  0.00000000000E+00 0.  1.
         23    2    1    2    0    0  0.00000000000E+00  0.00000000000E+00 -0.28445086356E+03  0.29862482671E+03  0.90909258872E+02 0.  0.
        -11    1    3    3    0    0 -0.57393912791E+01 -0.42949901239E+02 -0.18732376205E+03  0.19227019129E+03  0.00000000000E+00 0.  1.
         11    1    3    3    0    0  0.57393912791E+01  0.42949901239E+02 -0.97127101506E+02  0.10635463542E+03  0.00000000000E+00 0. -1.
<mgrwt>
<rscale>  0 0.90909259E+02</rscale>
<asrwt>0</asrwt>
<pdfrwt beam="1">  1        3 0.10903050E-02 0.90909259E+02</pdfrwt>
<pdfrwt beam="2">  1       -3 0.44851972E-01 0.90909259E+02</pdfrwt>
<totfact> 0.24267573E+04</totfact>
</mgrwt>
</event>
<event>
 5    1  0.1270889E+001  0.8096477E+02  0.7546771E-02  0.1326336E+00
          1   -1    0    0  501    0  0.00000000000E+00  0.00000000000E+00  0.93223980678E+01  0.93223980678E+01  0.00000000000E+00 0. -1.
         -1   -1    0    0    0  501 -0.00000000000E+00 -0.00000000000E+00 -0.17579421878E+03  0.17579421878E+03  0.00000000000E+00 0.  1.
         23    2    1    2    0    0  0.00000000000E+00  0.00000000000E+00 -0.16647182072E+03  0.18511661685E+03  0.80964774699E+02 0.  0.
        -11    1    3    3    0    0  0.37964325323E+02 -0.40754859862E+01 -0.52482200971E+02  0.64902087809E+02  0.00000000000E+00 0. -1.
         11    1    3    3    0    0 -0.37964325323E+02  0.40754859862E+01 -0.11398961975E+03  0.12021452904E+03  0.00000000000E+00 0.  1.
<mgrwt>
<rscale>  0 0.80964775E+02</rscale>
<asrwt>0</asrwt>
<pdfrwt beam="1">  1        1 0.14342152E-02 0.80964775E+02</pdfrwt>
<pdfrwt beam="2">  1       -1 0.27045262E-01 0.80964775E+02</pdfrwt>
<totfact> 0.97833338E+04</totfact>
</mgrwt>
</event>
<event>
 5    1  0.1270889E+001  0.8450359E+02  0.7546771E-02  0.1316736E+00
          2   -1    0    0  501    0  0.00000000000E+00  0.00000000000E+00  0.26649493486E+02  0.26649493486E+02  0.00000000000E+00 0. -1.
         -2   -1    0    0    0  501 -0.00000000000E+00 -0.00000000000E+00 -0.66988678571E+02  0.66988678571E+02  0.00000000000E+00 0.  1.
         23    2    1    2    0    0  0.00000000000E+00  0.00000000000E+00 -0.40339185085E+02  0.93638172057E+02  0.84503594083E+02 0.  0.
        -13    1    3    3    0    0  0.10093726794E+02 -0.39740245077E+01  0.25080100480E+02  0.27325585656E+02  0.00000000000E+00 0. -1.
         13    1    3    3    0    0 -0.10093726794E+02  0.39740245077E+01 -0.65419285565E+02  0.66312586401E+02  0.00000000000E+00 0.  1.
<mgrwt>
<rscale>  0 0.84503594E+02</rscale>
<asrwt>0</asrwt>
<pdfrwt beam="1">  1        2 0.40999221E-02 0.84503594E+02</pdfrwt>
<pdfrwt beam="2">  1       -2 0.10305950E-01 0.84503594E+02</pdfrwt>
<totfact> 0.10737539E+05</totfact>
</mgrwt>
</event>
<event>
 5    1  0.1270889E+001  0.9105511E+02  0.7546771E-02  0.1300317E+00
         -3   -1    0    0    0  501 -0.00000000000E+00  0.00000000000E+00  0.26796321105E+02  0.26796321105E+02  0.00000000000E+00 0.  1.
          3   -1    0    0  501    0  0.00000000000E+00 -0.00000000000E+00 -0.77352336893E+02  0.77352336893E+02  0.00000000000E+00 0. -1.
         23    2    1    2    0    0  0.00000000000E+00  0.00000000000E+00 -0.50556015788E+02  0.10414865800E+03  0.91055105460E+02 0.  0.
        -13    1    3    3    0    0 -0.41219354213E+02  0.16963020489E+02 -0.14672166050E+02  0.46926023509E+02  0.00000000000E+00 0.  1.
         13    1    3    3    0    0  0.41219354213E+02 -0.16963020489E+02 -0.35883849738E+02  0.57222634489E+02  0.00000000000E+00 0. -1.
<mgrwt>
<rscale>  0 0.91055105E+02</rscale>
<asrwt>0</asrwt>
<pdfrwt beam="2">  1        3 0.11900359E-01 0.91055105E+02</pdfrwt>
<pdfrwt beam="1">  1       -3 0.41225110E-02 0.91055105E+02</pdfrwt>
<totfact> 0.34491605E+04</totfact>
</mgrwt>
</event>
<event>
 5    1  0.1270889E+001  0.9362117E+02  0.7546771E-02  0.1294312E+00
         -2   -1    0    0    0  501 -0.00000000000E+00  0.00000000000E+00  0.34967063268E+02  0.34967063268E+02  0.00000000000E+00 0.  1.
          2   -1    0    0  501    0  0.00000000000E+00 -0.00000000000E+00 -0.62665570974E+02  0.62665570974E+02  0.00000000000E+00 0. -1.
         23    2    1    2    0    0  0.00000000000E+00  0.00000000000E+00 -0.27698507705E+02  0.97632634242E+02  0.93621172498E+02 0.  0.
        -13    1    3    3    0    0 -0.26174053847E+02  0.20514355523E+02 -0.48204894803E+02  0.58563057982E+02  0.00000000000E+00 0. -1.
         13    1    3    3    0    0  0.26174053847E+02 -0.20514355523E+02  0.20506387097E+02  0.39069576259E+02  0.00000000000E+00 0.  1.
<mgrwt>
<rscale>  0 0.93621172E+02</rscale>
<asrwt>0</asrwt>
<pdfrwt beam="2">  1        2 0.96408570E-02 0.93621172E+02</pdfrwt>
<pdfrwt beam="1">  1       -2 0.53795483E-02 0.93621172E+02</pdfrwt>
<totfact> 0.99595495E+04</totfact>
</mgrwt>
</event>
<event>
 5    1  0.1270889E+001  0.9156188E+02  0.7546771E-02  0.1299113E+00
         -2   -1    0    0    0  501 -0.00000000000E+00  0.00000000000E+00  0.23697533878E+03  0.23697533878E+03  0.00000000000E+00 0.  1.
          2   -1    0    0  501    0  0.00000000000E+00 -0.00000000000E+00 -0.88443569064E+01  0.88443569064E+01  0.00000000000E+00 0. -1.
         23    2    1    2    0    0  0.00000000000E+00  0.00000000000E+00  0.22813098188E+03  0.24581969569E+03  0.91561880152E+02 0.  0.
        -13    1    3    3    0    0  0.34244019678E+02  0.18274384484E+02  0.48892756384E+02  0.62426818266E+02  0.00000000000E+00 0. -1.
         13    1    3    3    0    0 -0.34244019678E+02 -0.18274384484E+02  0.17923822549E+03  0.18339287742E+03  0.00000000000E+00 0.  1.
<mgrwt>
<rscale>  0 0.91561880E+02</rscale>
<asrwt>0</asrwt>
<pdfrwt beam="2">  1        2 0.13606705E-02 0.91561880E+02</pdfrwt>
<pdfrwt beam="1">  1       -2 0.36457740E-01 0.91561880E+02</pdfrwt>
<totfact> 0.57050711E+04</totfact>
</mgrwt>
</event>
<event>
 5    1  0.1270889E+001  0.9008873E+02  0.7546771E-02  0.1302637E+00
          4   -1    0    0  501    0  0.00000000000E+00  0.00000000000E+00  0.15216546452E+02  0.15216546452E+02  0.00000000000E+00 0. -1.
         -4   -1    0    0    0  501 -0.00000000000E+00 -0.00000000000E+00 -0.13334134432E+03  0.13334134432E+03  0.00000000000E+00 0.  1.
         23    2    1    2    0    0  0.00000000000E+00  0.00000000000E+00 -0.11812479787E+03  0.14855789077E+03  0.90088728703E+02 0.  0.
        -11    1    3    3    0    0  0.12613064136E+02 -0.43008166688E+02 -0.51650442006E+02  0.68385378176E+02  0.00000000000E+00 0. -1.
         11    1    3    3    0    0 -0.12613064136E+02  0.43008166688E+02 -0.66474355865E+02  0.80172512599E+02  0.00000000000E+00 0.  1.
<mgrwt>
<rscale>  0 0.90088729E+02</rscale>
<asrwt>0</asrwt>
<pdfrwt beam="1">  1        4 0.23410072E-02 0.90088729E+02</pdfrwt>
<pdfrwt beam="2">  1       -4 0.20514053E-01 0.90088729E+02</pdfrwt>
<totfact> 0.24523633E+04</totfact>
</mgrwt>
</event>
<event>
 5    1  0.1270889E+001  0.9155140E+02  0.7546771E-02  0.1299138E+00
         -2   -1    0    0    0  501 -0.00000000000E+00  0.00000000000E+00  0.17170757451E+02  0.17170757451E+02  0.00000000000E+00 0.  1.
          2   -1    0    0  501    0  0.00000000000E+00 -0.00000000000E+00 -0.12203391125E+03  0.12203391125E+03  0.00000000000E+00 0. -1.
         23    2    1    2    0    0  0.00000000000E+00  0.00000000000E+00 -0.10486315380E+03  0.13920466871E+03  0.91551399572E+02 0.  0.
        -13    1    3    3    0    0  0.30040033641E+02  0.24788774174E+01 -0.10481449655E+03  0.10906249191E+03  0.00000000000E+00 0. -1.
         13    1    3    3    0    0 -0.30040033641E+02 -0.24788774174E+01 -0.48657252506E-01  0.30142176795E+02  0.00000000000E+00 0.  1.
<mgrwt>
<rscale>  0 0.91551400E+02</rscale>
<asrwt>0</asrwt>
<pdfrwt beam="2">  1        2 0.18774448E-01 0.91551400E+02</pdfrwt>
<pdfrwt beam="1">  1       -2 0.26416550E-02 0.91551400E+02</pdfrwt>
<totfact> 0.12911067E+05</totfact>
</mgrwt>
</event>
<event>
 5    1  0.1270889E+001  0.9752032E+02  0.7546771E-02  0.1285598E+00
         -2   -1    0    0    0  501 -0.00000000000E+00  0.00000000000E+00  0.27675626227E+02  0.27675626227E+02  0.00000000000E+00 0.  1.
          2   -1    0    0  501    0  0.00000000000E+00 -0.00000000000E+00 -0.85907838574E+02  0.85907838574E+02  0.00000000000E+00 0. -1.
         23    2    1    2    0    0  0.00000000000E+00  0.00000000000E+00 -0.58232212347E+02  0.11358346480E+03  0.97520320556E+02 0.  0.
        -13    1    3    3    0    0 -0.10918654889E+02  0.46656600250E+02 -0.18601498041E+02  0.51401080736E+02  0.00000000000E+00 0.  1.
         13    1    3    3    0    0  0.10918654889E+02 -0.46656600250E+02 -0.39630714307E+02  0.62182384064E+02  0.00000000000E+00 0. -1.
<mgrwt>
<rscale>  0 0.97520321E+02</rscale>
<asrwt>0</asrwt>
<pdfrwt beam="2">  1        2 0.13216590E-01 0.97520321E+02</pdfrwt>
<pdfrwt beam="1">  1       -2 0.42577887E-02 0.97520321E+02</pdfrwt>
<totfact> 0.97201946E+04</totfact>
</mgrwt>
</event>
<event>
 5    1  0.1270889E+001  0.7832884E+02  0.7546771E-02  0.1333862E+00
          2   -1    0    0  501    0  0.00000000000E+00  0.00000000000E+00  0.19979336831E+03  0.19979336831E+03  0.00000000000E+00 0. -1.
         -2   -1    0    0    0  501 -0.00000000000E+00 -0.00000000000E+00 -0.76771908375E+01  0.76771908375E+01  0.00000000000E+00 0.  1.
         23    2    1    2    0    0  0.00000000000E+00  0.00000000000E+00  0.19211617748E+03  0.20747055915E+03  0.78328840579E+02 0.  0.
        -11    1    3    3    0    0 -0.13698965549E+02 -0.28233898106E+02  0.15812150076E+03  0.16120553236E+03  0.00000000000E+00 0. -1.
         11    1    3    3    0    0  0.13698965549E+02  0.28233898106E+02  0.33994676716E+02  0.46265026796E+02  0.00000000000E+00 0.  1.
<mgrwt>
<rscale>  0 0.78328841E+02</rscale>
<asrwt>0</asrwt>
<pdfrwt beam="1">  1        2 0.30737437E-01 0.78328841E+02</pdfrwt>
<pdfrwt beam="2">  1       -2 0.11811064E-02 0.78328841E+02</pdfrwt>
<totfact> 0.23184688E+05</totfact>
</mgrwt>
</event>
<event>
 5    1  0.1270889E+001  0.9103062E+02  0.7546771E-02  0.1300375E+00
          2   -1    0    0  501    0  0.00000000000E+00  0.00000000000E+00  0.14320650332E+03  0.14320650332E+03  0.00000000000E+00 0. -1.
         -2   -1    0    0    0  501 -0.00000000000E+00 -0.00000000000E+00 -0.14466125617E+02  0.14466125617E+02  0.00000000000E+00 0.  1.
         23    2    1    2    0    0  0.00000000000E+00  0.00000000000E+00  0.12874037770E+03  0.15767262894E+03  0.91030616086E+02 0.  0.
        -11    1    3    3    0    0  0.26766531059E+02 -0.28851167408E+02  0.24766175341E+02  0.46499467597E+02  0.00000000000E+00 0.  1.
         11    1    3    3    0    0 -0.26766531059E+02  0.28851167408E+02  0.10397420236E+03  0.11117316134E+03  0.00000000000E+00 0. -1.
<mgrwt>
<rscale>  0 0.91030616E+02</rscale>
<asrwt>0</asrwt>
<pdfrwt beam="1">  1        2 0.22031769E-01 0.91030616E+02</pdfrwt>
<pdfrwt beam="2">  1       -2 0.22255579E-02 0.91030616E+02</pdfrwt>
<totfact> 0.13823708E+05</totfact>
</mgrwt>
</event>
<event>
 5    1  0.1270889E+001  0.9193176E+02  0.7546771E-02  0.1298240E+00
         -3   -1    0    0    0  501 -0.00000000000E+00  0.00000000000E+00  0.16311567947E+02  0.16311567947E+02  0.00000000000E+00 0.  1.
          3   -1    0    0  501    0  0.00000000000E+00 -0.00000000000E+00 -0.12953152071E+03  0.12953152071E+03  0.00000000000E+00 0. -1.
         23    2    1    2    0    0  0.00000000000E+00  0.00000000000E+00 -0.11321995276E+03  0.14584308865E+03  0.91931761677E+02 0.  0.
        -11    1    3    3    0    0 -0.25234337181E+02  0.31628434171E+02 -0.91212017513E+02  0.99783574599E+02  0.00000000000E+00 0. -1.
         11    1    3    3    0    0  0.25234337181E+02 -0.31628434171E+02 -0.22007935248E+02  0.46059514054E+02  0.00000000000E+00 0.  1.
<mgrwt>
<rscale>  0 0.91931762E+02</rscale>
<asrwt>0</asrwt>
<pdfrwt beam="2">  1        3 0.19927926E-01 0.91931762E+02</pdfrwt>
<pdfrwt beam="1">  1       -3 0.25094720E-02 0.91931762E+02</pdfrwt>
<totfact> 0.30864610E+04</totfact>
</mgrwt>
</event>
<event>
 5    1  0.1270889E+001  0.8917378E+02  0.7546771E-02  0.1304865E+00
         -1   -1    0    0    0  501 -0.00000000000E+00  0.00000000000E+00  0.64470952817E+01  0.64470952817E+01  0.00000000000E+00 0.  1.
          1   -1    0    0  501    0  0.00000000000E+00 -0.00000000000E+00 -0.30835449876E+03  0.30835449876E+03  0.00000000000E+00 0. -1.
         23    2    1    2    0    0  0.00000000000E+00  0.00000000000E+00 -0.30190740347E+03  0.31480159404E+03  0.89173781663E+02 0.  0.
        -13    1    3    3    0    0  0.41682097688E+02 -0.54986341616E+01 -0.20335773691E+03  0.20765837668E+03  0.00000000000E+00 0. -1.
         13    1    3    3    0    0 -0.41682097688E+02  0.54986341616E+01 -0.98549666569E+02  0.10714321736E+03  0.00000000000E+00 0.  1.
<mgrwt>
<rscale>  0 0.89173782E+02</rscale>
<asrwt>0</asrwt>
<pdfrwt beam="2">  1        1 0.47439159E-01 0.89173782E+02</pdfrwt>
<pdfrwt beam="1">  1       -1 0.99186070E-03 0.89173782E+02</pdfrwt>
<totfact> 0.13662863E+05</totfact>
</mgrwt>
</event>
<event>
 4    1  0.1270889E+001  0.1285925E+03  0.7546771E-02  0.1229559E+00
         -1   -1    0    0    0  501 -0.00000000000E+00  0.00000000000E+00  0.19014146999E+02  0.19014146999E+02  0.00000000000E+00 0.  1.
          1   -1    0    0  501    0  0.00000000000E+00 -0.00000000000E+00 -0.21741755506E+03  0.21741755506E+03  0.00000000000E+00 0. -1.
        -13    1    1    2    0    0  0.13304897667E+02  0.55398133953E+02 -0.44411209052E+02  0.72238002720E+02  0.00000000000E+00 0.  1.
         13    1    1    2    0    0 -0.13304897667E+02 -0.55398133953E+02 -0.15399219901E+03  0.16419369934E+03  0.00000000000E+00 0. -1.
<mgrwt>
<rscale>  0 0.12859252E+03</rscale>
<asrwt>0</asrwt>
<pdfrwt beam="2">  1        1 0.33448854E-01 0.12859252E+03</pdfrwt>
<pdfrwt beam="1">  1       -1 0.29252535E-02 0.12859252E+03</pdfrwt>
<totfact> 0.47051513E+04</totfact>
</mgrwt>
</event>
<event>
 5    1  0.1270889E+001  0.9088954E+02  0.7546771E-02  0.1300712E+00
          2   -1    0    0  501    0  0.00000000000E+00  0.00000000000E+00  0.14521270995E+03  0.14521270995E+03  0.00000000000E+00 0. -1.
         -2   -1    0    0    0  501 -0.00000000000E+00 -0.00000000000E+00 -0.14222083162E+02  0.14222083162E+02  0.00000000000E+00 0.  1.
         23    2    1    2    0    0  0.00000000000E+00  0.00000000000E+00  0.13099062679E+03  0.15943479311E+03  0.90889542567E+02 0.  0.
        -13    1    3    3    0    0 -0.79272112661E+01  0.24438435415E+02 -0.25993779007E+00  0.25693294293E+02  0.00000000000E+00 0.  1.
         13    1    3    3    0    0  0.79272112661E+01 -0.24438435415E+02  0.13125056458E+03  0.13374149882E+03  0.00000000000E+00 0. -1.
<mgrwt>
<rscale>  0 0.90889543E+02</rscale>
<asrwt>0</asrwt>
<pdfrwt beam="1">  1        2 0.22340416E-01 0.90889543E+02</pdfrwt>
<pdfrwt beam="2">  1       -2 0.21880129E-02 0.90889543E+02</pdfrwt>
<totfact> 0.13947206E+05</totfact>
</mgrwt>
</event>
<event>
 5    1  0.1270889E+001  0.9068898E+02  0.7546771E-02  0.1301192E+00
          4   -1    0    0  501    0  0.00000000000E+00  0.00000000000E+00  0.64774097872E+02  0.64774097872E+02  0.00000000000E+00 0.  1.
         -4   -1    0    0    0  501 -0.00000000000E+00 -0.00000000000E+00 -0.31742979539E+02  0.31742979539E+02  0.00000000000E+00 0. -1.
         23    2    1    2    0    0  0.00000000000E+00  0.00000000000E+00  0.33031118333E+02  0.96517077410E+02  0.90688981985E+02 0.  0.
        -11    1    3    3    0    0 -0.13493267741E+02 -0.40871069037E+02  0.31701773077E+02  0.53455729111E+02  0.00000000000E+00 0.  1.
         11    1    3    3    0    0  0.13493267741E+02  0.40871069037E+02  0.13293452559E+01  0.43061348299E+02  0.00000000000E+00 0. -1.
<mgrwt>
<rscale>  0 0.90688982E+02</rscale>
<asrwt>0</asrwt>
<pdfrwt beam="1">  1        4 0.99652458E-02 0.90688982E+02</pdfrwt>
<pdfrwt beam="2">  1       -4 0.48835353E-02 0.90688982E+02</pdfrwt>
<totfact> 0.27066151E+04</totfact>
</mgrwt>
</event>
<event>
 5    1  0.1270889E+001  0.9122956E+02  0.7546771E-02  0.1299901E+00
          3   -1    0    0  501    0  0.00000000000E+00  0.00000000000E+00  0.10914322637E+02  0.10914322637E+02  0.00000000000E+00 0. -1.
         -3   -1    0    0    0  501 -0.00000000000E+00 -0.00000000000E+00 -0.19064016741E+03  0.19064016741E+03  0.00000000000E+00 0.  1.
         23    2    1    2    0    0  0.00000000000E+00  0.00000000000E+00 -0.17972584477E+03  0.20155449004E+03  0.91229563074E+02 0.  0.
        -11    1    3    3    0    0 -0.10258549630E+02 -0.36591879518E+02 -0.34124108003E+02  0.51075025542E+02  0.00000000000E+00 0. -1.
         11    1    3    3    0    0  0.10258549630E+02  0.36591879518E+02 -0.14560173677E+03  0.15047946450E+03  0.00000000000E+00 0.  1.
<mgrwt>
<rscale>  0 0.91229563E+02</rscale>
<asrwt>0</asrwt>
<pdfrwt beam="1">  1        3 0.16791266E-02 0.91229563E+02</pdfrwt>
<pdfrwt beam="2">  1       -3 0.29329256E-01 0.91229563E+02</pdfrwt>
<totfact> 0.28372693E+04</totfact>
</mgrwt>
</event>
<event>
 5    1  0.1270889E+001  0.9111548E+02  0.7546771E-02  0.1300173E+00
         -2   -1    0    0    0  501 -0.00000000000E+00  0.00000000000E+00  0.10927215164E+02  0.10927215164E+02  0.00000000000E+00 0.  1.
          2   -1    0    0  501    0  0.00000000000E+00 -0.00000000000E+00 -0.18993928914E+03  0.18993928914E+03  0.00000000000E+00 0. -1.
         23    2    1    2    0    0  0.00000000000E+00  0.00000000000E+00 -0.17901207397E+03  0.20086650430E+03  0.91115475754E+02 0.  0.
        -13    1    3    3    0    0  0.40094020148E+02  0.21148642459E+02 -0.79473150940E+02  0.91491951831E+02  0.00000000000E+00 0. -1.
         13    1    3    3    0    0 -0.40094020148E+02 -0.21148642459E+02 -0.99538923032E+02  0.10937455247E+03  0.00000000000E+00 0.  1.
<mgrwt>
<rscale>  0 0.91115476E+02</rscale>
<asrwt>0</asrwt>
<pdfrwt beam="2">  1        2 0.29221430E-01 0.91115476E+02</pdfrwt>
<pdfrwt beam="1">  1       -2 0.16811100E-02 0.91115476E+02</pdfrwt>
<totfact> 0.15210709E+05</totfact>
</mgrwt>
</event>
<event>
 5    1  0.1270889E+001  0.9827283E+02  0.7546771E-02  0.1283970E+00
          2   -1    0    0  501    0  0.00000000000E+00  0.00000000000E+00  0.77972273335E+02  0.77972273335E+02  0.00000000000E+00 0. -1.
         -2   -1    0    0    0  501 -0.00000000000E+00 -0.00000000000E+00 -0.30964690424E+02  0.30964690424E+02  0.00000000000E+00 0.  1.
         23    2    1    2    0    0  0.00000000000E+00  0.00000000000E+00  0.47007582911E+02  0.10893696376E+03  0.98272830538E+02 0.  0.
        -13    1    3    3    0    0 -0.47526576693E+02 -0.78033277501E+01  0.12715258502E+02  0.49813102844E+02  0.00000000000E+00 0.  1.
         13    1    3    3    0    0  0.47526576693E+02  0.78033277501E+01  0.34292324409E+02  0.59123860916E+02  0.00000000000E+00 0. -1.
<mgrwt>
<rscale>  0 0.98272831E+02</rscale>
<asrwt>0</asrwt>
<pdfrwt beam="1">  1        2 0.11995734E-01 0.98272831E+02</pdfrwt>
<pdfrwt beam="2">  1       -2 0.47637985E-02 0.98272831E+02</pdfrwt>
<totfact> 0.92419947E+04</totfact>
</mgrwt>
</event>
<event>
 5    1  0.1270889E+001  0.9227799E+02  0.7546771E-02  0.1297427E+00
         -4   -1    0    0    0  501 -0.00000000000E+00  0.00000000000E+00  0.31295777159E+02  0.31295777159E+02  0.00000000000E+00 0.  1.
          4   -1    0    0  501    0  0.00000000000E+00 -0.00000000000E+00 -0.68022170453E+02  0.68022170453E+02  0.00000000000E+00 0. -1.
         23    2    1    2    0    0  0.00000000000E+00  0.00000000000E+00 -0.36726393294E+02  0.99317947612E+02  0.92277986289E+02 0.  0.
        -11    1    3    3    0    0 -0.17221792806E+01  0.14818391161E+02 -0.65354798281E+02  0.67035813386E+02  0.00000000000E+00 0. -1.
         11    1    3    3    0    0  0.17221792806E+01 -0.14818391161E+02  0.28628404987E+02  0.32282134226E+02  0.00000000000E+00 0.  1.
<mgrwt>
<rscale>  0 0.92277986E+02</rscale>
<asrwt>0</asrwt>
<pdfrwt beam="2">  1        4 0.10464949E-01 0.92277986E+02</pdfrwt>
<pdfrwt beam="1">  1       -4 0.48147350E-02 0.92277986E+02</pdfrwt>
<totfact> 0.25649685E+04</totfact>
</mgrwt>
</event>
<event>
 5    1  0.1270889E+001  0.9141046E+02  0.7546771E-02  0.1299472E+00
          4   -1    0    0  501    0  0.00000000000E+00  0.00000000000E+00  0.14052336900E+02  0.14052336900E+02  0.00000000000E+00 0.  1.
         -4   -1    0    0    0  501 -0.00000000000E+00 -0.00000000000E+00 -0.14865627977E+03  0.14865627977E+03  0.00000000000E+00 0. -1.
         23    2    1    2    0    0  0.00000000000E+00  0.00000000000E+00 -0.13460394287E+03  0.16270861667E+03  0.91410461668E+02 0.  0.
        -13    1    3    3    0    0  0.41066586326E+02 -0.19130816329E+02 -0.56545912939E+02  0.72456144777E+02  0.00000000000E+00 0.  1.
         13    1    3    3    0    0 -0.41066586326E+02  0.19130816329E+02 -0.78058029930E+02  0.90252471891E+02  0.00000000000E+00 0. -1.
<mgrwt>
<rscale>  0 0.91410462E+02</rscale>
<asrwt>0</asrwt>
<pdfrwt beam="1">  1        4 0.21618980E-02 0.91410462E+02</pdfrwt>
<pdfrwt beam="2">  1       -4 0.22870197E-01 0.91410462E+02</pdfrwt>
<totfact> 0.22892686E+04</totfact>
</mgrwt>
</event>
<event>
 5    1  0.1270889E+001  0.9006638E+02  0.7546771E-02  0.1302691E+00
         -1   -1    0    0    0  501 -0.00000000000E+00  0.00000000000E+00  0.15488846139E+03  0.15488846139E+03  0.00000000000E+00 0.  1.
          1   -1    0    0  501    0  0.00000000000E+00 -0.00000000000E+00 -0.13093215726E+02  0.13093215726E+02  0.00000000000E+00 0. -1.
         23    2    1    2    0    0  0.00000000000E+00  0.00000000000E+00  0.14179524567E+03  0.16798167712E+03  0.90066376379E+02 0.  0.
        -11    1    3    3    0    0 -0.42236502755E+02  0.10758590651E+02  0.49770321320E+02  0.66157042876E+02  0.00000000000E+00 0. -1.
         11    1    3    3    0    0  0.42236502755E+02 -0.10758590651E+02  0.92024924347E+02  0.10182463424E+03  0.00000000000E+00 0.  1.
<mgrwt>
<rscale>  0 0.90066376E+02</rscale>
<asrwt>0</asrwt>
<pdfrwt beam="2">  1        1 0.20143410E-02 0.90066376E+02</pdfrwt>
<pdfrwt beam="1">  1       -1 0.23828993E-01 0.90066376E+02</pdfrwt>
<totfact> 0.76620653E+04</totfact>
</mgrwt>
</event>
<event>
 5    1  0.1270889E+001  0.1054450E+03  0.7546771E-02  0.1269245E+00
          3   -1    0    0  501    0  0.00000000000E+00  0.00000000000E+00  0.67294838056E+02  0.67294838056E+02  0.00000000000E+00 0. -1.
         -3   -1    0    0    0  501 -0.00000000000E+00 -0.00000000000E+00 -0.41305695050E+02  0.41305695050E+02  0.00000000000E+00 0.  1.
         23    2    1    2    0    0  0.00000000000E+00  0.00000000000E+00  0.25989143006E+02  0.10860053311E+03  0.10544496307E+03 0.  0.
        -13    1    3    3    0    0 -0.35251702918E+02  0.25633829276E+02  0.43545112251E+02  0.61611302233E+02  0.00000000000E+00 0.  1.
         13    1    3    3    0    0  0.35251702918E+02 -0.25633829276E+02 -0.17555969245E+02  0.46989230873E+02  0.00000000000E+00 0. -1.
<mgrwt>
<rscale>  0 0.10544496E+03</rscale>
<asrwt>0</asrwt>
<pdfrwt beam="1">  1        3 0.10353052E-01 0.10544496E+03</pdfrwt>
<pdfrwt beam="2">  1       -3 0.63547223E-02 0.10544496E+03</pdfrwt>
<totfact> 0.22841560E+04</totfact>
</mgrwt>
</event>
<event>
 5    1  0.1270889E+001  0.9279134E+02  0.7546771E-02  0.1296229E+00
         -3   -1    0    0    0  501 -0.00000000000E+00  0.00000000000E+00  0.30591210064E+02  0.30591210064E+02  0.00000000000E+00 0.  1.
          3   -1    0    0  501    0  0.00000000000E+00 -0.00000000000E+00 -0.70365255833E+02  0.70365255833E+02  0.00000000000E+00 0. -1.
         23    2    1    2    0    0  0.00000000000E+00  0.00000000000E+00 -0.39774045769E+02  0.10095646590E+03  0.92791342750E+02 0.  0.
        -13    1    3    3    0    0  0.15016538766E+01 -0.38400195103E+02  0.83951490159E+01  0.39335842120E+02  0.00000000000E+00 0.  1.
         13    1    3    3    0    0 -0.15016538766E+01  0.38400195103E+02 -0.48169194785E+02  0.61620623776E+02  0.00000000000E+00 0. -1.
<mgrwt>
<rscale>  0 0.92791343E+02</rscale>
<asrwt>0</asrwt>
<pdfrwt beam="2">  1        3 0.10825424E-01 0.92791343E+02</pdfrwt>
<pdfrwt beam="1">  1       -3 0.47063401E-02 0.92791343E+02</pdfrwt>
<totfact> 0.32982028E+04</totfact>
</mgrwt>
</event>
