<event>
 5    1  0.1401471E+000  0.9405366E+02  0.7818608E-02  0.1293322E+00
          3   -1    0    0  501    0  0.00000000000E+00  0.00000000000E+00  0.11894277470E+02  0.11894641043E+02  0.93000000000E-01 0. -1.
         -3   -1    0    0    0  501 -0.00000000000E+00 -0.00000000000E+00 -0.18592844900E+03  0.18592847226E+03  0.93000000000E-01 0.  1.
         23    2    1    2    0    0  0.00000000000E+00  0.00000000000E+00 -0.17403417153E+03  0.19782311330E+03  0.94053661792E+02 0.  0.
        -13    1    3    3    0    0  0.38162049930E+02 -0.25845822630E+02 -0.10665374174E+03  0.11618683403E+03  0.10570000000E+00 0.  1.
         13    1    3    3    0    0 -0.38162049930E+02  0.25845822630E+02 -0.67380429787E+02  0.81636279270E+02  0.10570000000E+00 0. -1.
<mgrwt>
<rscale>  0 0.94053662E+02</rscale>
<asrwt>0</asrwt>
<pdfrwt beam="1">  1        3 0.18299187E-02 0.94053662E+02</pdfrwt>
<pdfrwt beam="2">  1       -3 0.28604404E-01 0.94053662E+02</pdfrwt>
<totfact> 0.26302921E+04</totfact>
</mgrwt>
</event>
<event>
 5    1  0.1401471E+000  0.9255546E+02  0.7818608E-02  0.1296779E+00
          3   -1    0    0  501    0  0.00000000000E+00  0.00000000000E+00  0.63936939668E+02  0.63937007305E+02  0.93000000000E-01 0. -1.
         -3   -1    0    0    0  501 -0.00000000000E+00 -0.00000000000E+00 -0.33495795625E+02  0.33495924731E+02  0.93000000000E-01 0.  1.
         23    2    1    2    0    0  0.00000000000E+00  0.00000000000E+00  0.30441144043E+02  0.97432932035E+02  0.92555459020E+02 0.  0.
        -13    1    3    3    0    0 -0.25860020205E+02  0.30907872118E+02  0.39169849867E+02  0.56198981440E+02  0.10570000000E+00 0. -1.
         13    1    3    3    0    0  0.25860020205E+02 -0.30907872118E+02 -0.87287058242E+01  0.41233950595E+02  0.10570000000E+00 0.  1.
<mgrwt>
<rscale>  0 0.92555459E+02</rscale>
<asrwt>0</asrwt>
<pdfrwt beam="1">  1        3 0.98364673E-02 0.92555459E+02</pdfrwt>
<pdfrwt beam="2">  1       -3 0.51532145E-02 0.92555459E+02</pdfrwt>
<totfact> 0.33463484E+04</totfact>
</mgrwt>
</event>
<event>
 5    1  0.1401471E+000  0.9222369E+02  0.7818608E-02  0.1297554E+00
         -3   -1    0    0    0  501 -0.00000000000E+00  0.00000000000E+00  0.19177736410E+02  0.19177961905E+02  0.93000000000E-01 0.  1.
          3   -1    0    0  501    0  0.00000000000E+00 -0.00000000000E+00 -0.11087256808E+03  0.11087260708E+03  0.93000000000E-01 0. -1.
         23    2    1    2    0    0  0.00000000000E+00  0.00000000000E+00 -0.91694831666E+02  0.13005056898E+03  0.92223686432E+02 0.  0.
        -13    1    3    3    0    0 -0.94724285162E+01 -0.23248400981E+02  0.86965342546E+01  0.26567949313E+02  0.10570000000E+00 0.  1.
         13    1    3    3    0    0  0.94724285162E+01  0.23248400981E+02 -0.10039136592E+03  0.10348261967E+03  0.10570000000E+00 0. -1.
<mgrwt>
<rscale>  0 0.92223686E+02</rscale>
<asrwt>0</asrwt>
<pdfrwt beam="2">  1        3 0.17057338E-01 0.92223686E+02</pdfrwt>
<pdfrwt beam="1">  1       -3 0.29504414E-02 0.92223686E+02</pdfrwt>
<totfact> 0.31576940E+04</totfact>
</mgrwt>
</event>
<event>
 5    1  0.1401471E+000  0.8747523E+02  0.7818608E-02  0.1309084E+00
          3   -1    0    0  501    0  0.00000000000E+00  0.00000000000E+00  0.42975460373E+02  0.42975561000E+02  0.93000000000E-01 0. -1.
         -3   -1    0    0    0  501 -0.00000000000E+00 -0.00000000000E+00 -0.44513089932E+02  0.44513187083E+02  0.93000000000E-01 0.  1.
         23    2    1    2    0    0  0.00000000000E+00  0.00000000000E+00 -0.15376295585E+01  0.87488748083E+02  0.87475234990E+02 0.  0.
        -13    1    3    3    0    0 -0.24776809316E+02  0.47626403064E+01 -0.36501004359E+02  0.44372373322E+02  0.10570000000E+00 0.  1.
         13    1    3    3    0    0  0.24776809316E+02 -0.47626403064E+01  0.34963374800E+02  0.43116374761E+02  0.10570000000E+00 0. -1.
<mgrwt>
<rscale>  0 0.87475235E+02</rscale>
<asrwt>0</asrwt>
<pdfrwt beam="1">  1        3 0.66116244E-02 0.87475235E+02</pdfrwt>
<pdfrwt beam="2">  1       -3 0.68481830E-02 0.87475235E+02</pdfrwt>
<totfact> 0.39868236E+04</totfact>
</mgrwt>
</event>
<event>
 5    1  0.1401471E+000  0.9155948E+02  0.7818608E-02  0.1299119E+00
          3   -1    0    0  501    0  0.00000000000E+00  0.00000000000E+00  0.13904854733E+02  0.13905165736E+02  0.93000000000E-01 0.  1.
         -3   -1    0    0    0  501 -0.00000000000E+00 -0.00000000000E+00 -0.15072121510E+03  0.15072124380E+03  0.93000000000E-01 0. -1.
         23    2    1    2    0    0  0.00000000000E+00  0.00000000000E+00 -0.13681636037E+03  0.16462640953E+03  0.91559479304E+02 0.  0.
        -13    1    3    3    0    0  0.43082770680E+02 -0.12942943591E+02 -0.53137810269E+02  0.69622431522E+02  0.10570000000E+00 0.  1.
         13    1    3    3    0    0 -0.43082770680E+02  0.12942943591E+02 -0.83678550101E+02  0.95003978010E+02  0.10570000000E+00 0. -1.
<mgrwt>
<rscale>  0 0.91559479E+02</rscale>
<asrwt>0</asrwt>
<pdfrwt beam="1">  1        3 0.21392347E-02 0.91559479E+02</pdfrwt>
<pdfrwt beam="2">  1       -3 0.23187904E-01 0.91559479E+02</pdfrwt>
<totfact> 0.30092588E+04</totfact>
</mgrwt>
</event>
<event>
 5    1  0.1401471E+000  0.8746249E+02  0.7818608E-02  0.1309116E+00
          3   -1    0    0  501    0  0.00000000000E+00  0.00000000000E+00  0.52158374113E+02  0.52158457024E+02  0.93000000000E-01 0. -1.
         -3   -1    0    0    0  501 -0.00000000000E+00 -0.00000000000E+00 -0.36665503514E+02  0.36665621459E+02  0.93000000000E-01 0.  1.
         23    2    1    2    0    0  0.00000000000E+00  0.00000000000E+00  0.15492870598E+02  0.88824078482E+02  0.87462494127E+02 0.  0.
        -13    1    3    3    0    0 -0.72911789944E+01  0.77421031090E+01 -0.35332183526E+02  0.36898181756E+02  0.10570000000E+00 0.  1.
         13    1    3    3    0    0  0.72911789944E+01 -0.77421031090E+01  0.50825054124E+02  0.51925896727E+02  0.10570000000E+00 0. -1.
<mgrwt>
<rscale>  0 0.87462494E+02</rscale>
<asrwt>0</asrwt>
<pdfrwt beam="1">  1        3 0.80243807E-02 0.87462494E+02</pdfrwt>
<pdfrwt beam="2">  1       -3 0.56408622E-02 0.87462494E+02</pdfrwt>
<totfact> 0.39766085E+04</totfact>
</mgrwt>
</event>
<event>
 5    1  0.1401471E+000  0.9106809E+02  0.7818608E-02  0.1300286E+00
          3   -1    0    0  501    0  0.00000000000E+00  0.00000000000E+00  0.28458988948E+02  0.28459140904E+02  0.93000000000E-01 0. -1.
         -3   -1    0    0    0  501 -0.00000000000E+00 -0.00000000000E+00 -0.72853562503E+02  0.72853621862E+02  0.93000000000E-01 0.  1.
         23    2    1    2    0    0  0.00000000000E+00  0.00000000000E+00 -0.44394573554E+02  0.10131276277E+03  0.91068093963E+02 0.  0.
        -13    1    3    3    0    0  0.16969551528E+02  0.22306657764E+02 -0.62119967382E+02  0.68150232426E+02  0.10570000000E+00 0.  1.
         13    1    3    3    0    0 -0.16969551528E+02 -0.22306657764E+02  0.17725393828E+02  0.33162530339E+02  0.10570000000E+00 0. -1.
<mgrwt>
<rscale>  0 0.91068094E+02</rscale>
<asrwt>0</asrwt>
<pdfrwt beam="1">  1        3 0.43783223E-02 0.91068094E+02</pdfrwt>
<pdfrwt beam="2">  1       -3 0.11208257E-01 0.91068094E+02</pdfrwt>
<totfact> 0.34688127E+04</totfact>
</mgrwt>
</event>
<event>
 5    1  0.1401471E+000  0.9269361E+02  0.7818608E-02  0.1296457E+00
         -3   -1    0    0    0  501 -0.00000000000E+00  0.00000000000E+00  0.11466524889E+02  0.11466902024E+02  0.93000000000E-01 0.  1.
          3   -1    0    0  501    0  0.00000000000E+00 -0.00000000000E+00 -0.18732671898E+03  0.18732674206E+03  0.93000000000E-01 0. -1.
         23    2    1    2    0    0  0.00000000000E+00  0.00000000000E+00 -0.17586019409E+03  0.19879364408E+03  0.92693608541E+02 0.  0.
        -13    1    3    3    0    0  0.15018924013E+02 -0.41395947453E+02 -0.56938682280E+02  0.71980672797E+02  0.10570000000E+00 0.  1.
         13    1    3    3    0    0 -0.15018924013E+02  0.41395947453E+02 -0.11892151181E+03  0.12681297129E+03  0.10570000000E+00 0. -1.
<mgrwt>
<rscale>  0 0.92693609E+02</rscale>
<asrwt>0</asrwt>
<pdfrwt beam="2">  1        3 0.28819524E-01 0.92693609E+02</pdfrwt>
<pdfrwt beam="1">  1       -3 0.17641117E-02 0.92693609E+02</pdfrwt>
<totfact> 0.27314599E+04</totfact>
</mgrwt>
</event>
<event>
 5    1  0.1401471E+000  0.9082365E+02  0.7818608E-02  0.1300869E+00
          3   -1    0    0  501    0  0.00000000000E+00  0.00000000000E+00  0.88230746682E+02  0.88230795696E+02  0.93000000000E-01 0. -1.
         -3   -1    0    0    0  501 -0.00000000000E+00 -0.00000000000E+00 -0.23373042024E+02  0.23373227044E+02  0.93000000000E-01 0.  1.
         23    2    1    2    0    0  0.00000000000E+00  0.00000000000E+00  0.64857704658E+02  0.11160402274E+03  0.90823653517E+02 0.  0.
        -13    1    3    3    0    0  0.18591087724E+02  0.35370174284E+02  0.59156769438E+01  0.40394110682E+02  0.10570000000E+00 0.  1.
         13    1    3    3    0    0 -0.18591087724E+02 -0.35370174284E+02  0.58942027714E+02  0.71209912057E+02  0.10570000000E+00 0. -1.
<mgrwt>
<rscale>  0 0.90823654E+02</rscale>
<asrwt>0</asrwt>
<pdfrwt beam="1">  1        3 0.13573979E-01 0.90823654E+02</pdfrwt>
<pdfrwt beam="2">  1       -3 0.35958706E-02 0.90823654E+02</pdfrwt>
<totfact> 0.34189227E+04</totfact>
</mgrwt>
</event>
<event>
 5    1  0.1401471E+000  0.8998326E+02  0.7818608E-02  0.1302892E+00
          3   -1    0    0  501    0  0.00000000000E+00  0.00000000000E+00  0.52269200065E+02  0.52269282800E+02  0.93000000000E-01 0. -1.
         -3   -1    0    0    0  501 -0.00000000000E+00 -0.00000000000E+00 -0.38727162442E+02  0.38727274107E+02  0.93000000000E-01 0.  1.
         23    2    1    2    0    0  0.00000000000E+00  0.00000000000E+00  0.13542037623E+02  0.90996556907E+02  0.89983257254E+02 0.  0.
        -13    1    3    3    0    0 -0.82675039835E+01  0.42539002789E+02  0.19003393714E+02  0.47318691080E+02  0.10570000000E+00 0.  1.
         13    1    3    3    0    0  0.82675039835E+01 -0.42539002789E+02 -0.54613560907E+01  0.43677865827E+02  0.10570000000E+00 0. -1.
<mgrwt>
<rscale>  0 0.89983257E+02</rscale>
<asrwt>0</asrwt>
<pdfrwt beam="1">  1        3 0.80414304E-02 0.89983257E+02</pdfrwt>
<pdfrwt beam="2">  1       -3 0.59580399E-02 0.89983257E+02</pdfrwt>
<totfact> 0.36642272E+04</totfact>
</mgrwt>
</event>
<event>
 5    1  0.1401471E+000  0.9394995E+02  0.7818608E-02  0.1293559E+00
         -3   -1    0    0    0  501 -0.00000000000E+00  0.00000000000E+00  0.28001083152E+02  0.28001237592E+02  0.93000000000E-01 0.  1.
          3   -1    0    0  501    0  0.00000000000E+00 -0.00000000000E+00 -0.78805418015E+02  0.78805472891E+02  0.93000000000E-01 0. -1.
         23    2    1    2    0    0  0.00000000000E+00  0.00000000000E+00 -0.50804334864E+02  0.10680671048E+03  0.93949949245E+02 0.  0.
        -13    1    3    3    0    0 -0.28308894764E+02  0.34317777026E+02 -0.42550617713E+02  0.61560292259E+02  0.10570000000E+00 0. -1.
         13    1    3    3    0    0  0.28308894764E+02 -0.34317777026E+02 -0.82537171503E+01  0.45246418223E+02  0.10570000000E+00 0.  1.
<mgrwt>
<rscale>  0 0.93949949E+02</rscale>
<asrwt>0</asrwt>
<pdfrwt beam="2">  1        3 0.12123926E-01 0.93949949E+02</pdfrwt>
<pdfrwt beam="1">  1       -3 0.43078751E-02 0.93949949E+02</pdfrwt>
<totfact> 0.31491091E+04</totfact>
</mgrwt>
</event>
<event>
 5    1  0.1401471E+000  0.9061127E+02  0.7818608E-02  0.1301378E+00
          3   -1    0    0  501    0  0.00000000000E+00  0.00000000000E+00  0.95876811393E+01  0.95881321763E+01  0.93000000000E-01 0. -1.
         -3   -1    0    0    0  501 -0.00000000000E+00 -0.00000000000E+00 -0.21408176257E+03  0.21408178277E+03  0.93000000000E-01 0.  1.
         23    2    1    2    0    0  0.00000000000E+00  0.00000000000E+00 -0.20449408143E+03  0.22366991495E+03  0.90611265923E+02 0.  0.
        -13    1    3    3    0    0 -0.27635743143E+02 -0.35856045556E+02 -0.97832089096E+02  0.10779851173E+03  0.10570000000E+00 0.  1.
         13    1    3    3    0    0  0.27635743143E+02  0.35856045556E+02 -0.10666199234E+03  0.11587140322E+03  0.10570000000E+00 0. -1.
<mgrwt>
<rscale>  0 0.90611266E+02</rscale>
<asrwt>0</asrwt>
<pdfrwt beam="1">  1        3 0.14750643E-02 0.90611266E+02</pdfrwt>
<pdfrwt beam="2">  1       -3 0.32935688E-01 0.90611266E+02</pdfrwt>
<totfact> 0.27778048E+04</totfact>
</mgrwt>
</event>
<event>
 5    1  0.1401471E+000  0.1000613E+03  0.7818608E-02  0.1280167E+00
         -3   -1    0    0    0  501 -0.00000000000E+00  0.00000000000E+00  0.13636057879E+02  0.13636375012E+02  0.93000000000E-01 0. -1.
          3   -1    0    0  501    0  0.00000000000E+00 -0.00000000000E+00 -0.18355980779E+03  0.18355983134E+03  0.93000000000E-01 0.  1.
         23    2    1    2    0    0  0.00000000000E+00  0.00000000000E+00 -0.16992374991E+03  0.19719620636E+03  0.10006129631E+03 0.  0.
        -13    1    3    3    0    0 -0.41225367722E+02 -0.27966667351E+02 -0.94076299471E+02  0.10645199257E+03  0.10570000000E+00 0. -1.
         13    1    3    3    0    0  0.41225367722E+02  0.27966667351E+02 -0.75847450436E+02  0.90744213792E+02  0.10570000000E+00 0.  1.
<mgrwt>
<rscale>  0 0.10006130E+03</rscale>
<asrwt>0</asrwt>
<pdfrwt beam="2">  1        3 0.28239995E-01 0.10006130E+03</pdfrwt>
<pdfrwt beam="1">  1       -3 0.20978814E-02 0.10006130E+03</pdfrwt>
<totfact> 0.22251608E+04</totfact>
</mgrwt>
</event>
<event>
 5    1  0.1401471E+000  0.9019070E+02  0.7818608E-02  0.1302391E+00
          3   -1    0    0  501    0  0.00000000000E+00  0.00000000000E+00  0.10881009263E+02  0.10881406692E+02  0.93000000000E-01 0. -1.
         -3   -1    0    0    0  501 -0.00000000000E+00 -0.00000000000E+00 -0.18688973359E+03  0.18688975673E+03  0.93000000000E-01 0.  1.
         23    2    1    2    0    0  0.00000000000E+00  0.00000000000E+00 -0.17600872433E+03  0.19777116342E+03  0.90190698199E+02 0.  0.
        -13    1    3    3    0    0  0.10734988983E+02  0.37669733811E+02 -0.13700427058E+03  0.14249361447E+03  0.10570000000E+00 0.  1.
         13    1    3    3    0    0 -0.10734988983E+02 -0.37669733811E+02 -0.39004453744E+02  0.55277548952E+02  0.10570000000E+00 0. -1.
<mgrwt>
<rscale>  0 0.90190698E+02</rscale>
<asrwt>0</asrwt>
<pdfrwt beam="1">  1        3 0.16740339E-02 0.90190698E+02</pdfrwt>
<pdfrwt beam="2">  1       -3 0.28752297E-01 0.90190698E+02</pdfrwt>
<totfact> 0.29463549E+04</totfact>
</mgrwt>
</event>
<event>
 5    1  0.1401471E+000  0.8894669E+02  0.7818608E-02  0.1305423E+00
         -3   -1    0    0    0  501 -0.00000000000E+00  0.00000000000E+00  0.42398520311E+03  0.42398521330E+03  0.93000000000E-01 0.  1.
          3   -1    0    0  501    0  0.00000000000E+00 -0.00000000000E+00 -0.46644964440E+01  0.46654234616E+01  0.93000000000E-01 0. -1.
         23    2    1    2    0    0  0.00000000000E+00  0.00000000000E+00  0.41932070666E+03  0.42865063677E+03  0.88946688333E+02 0.  0.
        -13    1    3    3    0    0 -0.43398102327E+02 -0.95025902051E+01  0.21950455103E+03  0.22395524910E+03  0.10570000000E+00 0.  1.
         13    1    3    3    0    0  0.43398102327E+02  0.95025902051E+01  0.19981615563E+03  0.20469538766E+03  0.10570000000E+00 0. -1.
<mgrwt>
<rscale>  0 0.88946688E+02</rscale>
<asrwt>0</asrwt>
<pdfrwt beam="2">  1        3 0.71768693E-03 0.88946688E+02</pdfrwt>
<pdfrwt beam="1">  1       -3 0.65228565E-01 0.88946688E+02</pdfrwt>
<totfact> 0.21110057E+04</totfact>
</mgrwt>
</event>
<event>
 5    1  0.1401471E+000  0.9731605E+02  0.7818608E-02  0.1286043E+00
          3   -1    0    0  501    0  0.00000000000E+00  0.00000000000E+00  0.31197440196E+02  0.31197578812E+02  0.93000000000E-01 0. -1.
         -3   -1    0    0    0  501 -0.00000000000E+00 -0.00000000000E+00 -0.75890609580E+02  0.75890666563E+02  0.93000000000E-01 0.  1.
         23    2    1    2    0    0  0.00000000000E+00  0.00000000000E+00 -0.44693169384E+02  0.10708824538E+03  0.97316046508E+02 0.  0.
        -13    1    3    3    0    0 -0.44618518729E+02  0.33250223256E+01 -0.43390866851E+02  0.62326932265E+02  0.10570000000E+00 0.  1.
         13    1    3    3    0    0  0.44618518729E+02 -0.33250223256E+01 -0.13023025334E+01  0.44761313111E+02  0.10570000000E+00 0. -1.
<mgrwt>
<rscale>  0 0.97316047E+02</rscale>
<asrwt>0</asrwt>
<pdfrwt beam="1">  1        3 0.47996212E-02 0.97316047E+02</pdfrwt>
<pdfrwt beam="2">  1       -3 0.11675493E-01 0.97316047E+02</pdfrwt>
<totfact> 0.28581143E+04</totfact>
</mgrwt>
</event>
<event>
 5    1  0.1401471E+000  0.9244393E+02  0.7818608E-02  0.1297039E+00
          3   -1    0    0  501    0  0.00000000000E+00  0.00000000000E+00  0.28918661380E+02  0.28918810919E+02  0.93000000000E-01 0. -1.
         -3   -1    0    0    0  501 -0.00000000000E+00 -0.00000000000E+00 -0.73878219211E+02  0.73878277746E+02  0.93000000000E-01 0.  1.
         23    2    1    2    0    0  0.00000000000E+00  0.00000000000E+00 -0.44959557831E+02  0.10279708867E+03  0.92443926776E+02 0.  0.
        -13    1    3    3    0    0  0.15325882469E+02  0.31877928681E+02  0.10607857346E+02  0.36927263917E+02  0.10570000000E+00 0. -1.
         13    1    3    3    0    0 -0.15325882469E+02 -0.31877928681E+02 -0.55567415177E+02  0.65869824748E+02  0.10570000000E+00 0.  1.
<mgrwt>
<rscale>  0 0.92443927E+02</rscale>
<asrwt>0</asrwt>
<pdfrwt beam="1">  1        3 0.44490409E-02 0.92443927E+02</pdfrwt>
<pdfrwt beam="2">  1       -3 0.11365896E-01 0.92443927E+02</pdfrwt>
<totfact> 0.33192947E+04</totfact>
</mgrwt>
</event>
<event>
 5    1  0.1401471E+000  0.8979140E+02  0.7818608E-02  0.1303358E+00
          3   -1    0    0  501    0  0.00000000000E+00  0.00000000000E+00  0.27949634314E+03  0.27949635861E+03  0.93000000000E-01 0. -1.
         -3   -1    0    0    0  501 -0.00000000000E+00 -0.00000000000E+00 -0.72113132744E+01  0.72119129322E+01  0.93000000000E-01 0.  1.
         23    2    1    2    0    0  0.00000000000E+00  0.00000000000E+00  0.27228502987E+03  0.28670827154E+03  0.89791399829E+02 0.  0.
        -13    1    3    3    0    0 -0.41153196201E+02  0.16181863557E+02  0.16091168656E+03  0.16687726121E+03  0.10570000000E+00 0. -1.
         13    1    3    3    0    0  0.41153196201E+02 -0.16181863557E+02  0.11137334330E+03  0.11983101033E+03  0.10570000000E+00 0.  1.
<mgrwt>
<rscale>  0 0.89791400E+02</rscale>
<asrwt>0</asrwt>
<pdfrwt beam="1">  1        3 0.42999485E-01 0.89791400E+02</pdfrwt>
<pdfrwt beam="2">  1       -3 0.11094801E-02 0.89791400E+02</pdfrwt>
<totfact> 0.25583264E+04</totfact>
</mgrwt>
</event>
<event>
 5    1  0.1401471E+000  0.9095384E+02  0.7818608E-02  0.1300558E+00
          3   -1    0    0  501    0  0.00000000000E+00  0.00000000000E+00  0.28337822446E+02  0.28337975051E+02  0.93000000000E-01 0. -1.
         -3   -1    0    0    0  501 -0.00000000000E+00 -0.00000000000E+00 -0.72981600833E+02  0.72981660088E+02  0.93000000000E-01 0.  1.
         23    2    1    2    0    0  0.00000000000E+00  0.00000000000E+00 -0.44643778388E+02  0.10131963514E+03  0.90953842777E+02 0.  0.
        -13    1    3    3    0    0  0.78625393205E+01 -0.32321606364E+02  0.12222486163E+02  0.35438765540E+02  0.10570000000E+00 0. -1.
         13    1    3    3    0    0 -0.78625393205E+01  0.32321606364E+02 -0.56866264551E+02  0.65880869598E+02  0.10570000000E+00 0.  1.
<mgrwt>
<rscale>  0 0.90953843E+02</rscale>
<asrwt>0</asrwt>
<pdfrwt beam="1">  1        3 0.43596813E-02 0.90953843E+02</pdfrwt>
<pdfrwt beam="2">  1       -3 0.11227955E-01 0.90953843E+02</pdfrwt>
<totfact> 0.34806247E+04</totfact>
</mgrwt>
</event>
<event>
 5    1  0.1401471E+000  0.9207182E+02  0.7818608E-02  0.1297911E+00
         -3   -1    0    0    0  501 -0.00000000000E+00  0.00000000000E+00  0.49420019415E+02  0.49420106920E+02  0.93000000000E-01 0.  1.
          3   -1    0    0  501    0  0.00000000000E+00 -0.00000000000E+00 -0.42883359779E+02  0.42883460622E+02  0.93000000000E-01 0. -1.
         23    2    1    2    0    0  0.00000000000E+00  0.00000000000E+00  0.65366596360E+01  0.92303567542E+02  0.92071823386E+02 0.  0.
        -13    1    3    3    0    0 -0.12429547553E+01 -0.23509016570E+02  0.42928935950E+02  0.48960428010E+02  0.10570000000E+00 0.  1.
         13    1    3    3    0    0  0.12429547553E+01  0.23509016570E+02 -0.36392276314E+02  0.43343139531E+02  0.10570000000E+00 0. -1.
<mgrwt>
<rscale>  0 0.92071823E+02</rscale>
<asrwt>0</asrwt>
<pdfrwt beam="2">  1        3 0.65974544E-02 0.92071823E+02</pdfrwt>
<pdfrwt beam="1">  1       -3 0.76030944E-02 0.92071823E+02</pdfrwt>
<totfact> 0.34324513E+04</totfact>
</mgrwt>
</event>
<event>
 5    1  0.1401471E+000  0.9138991E+02  0.7818608E-02  0.1299520E+00
         -3   -1    0    0    0  501 -0.00000000000E+00  0.00000000000E+00  0.87696994248E+02  0.87697043560E+02  0.93000000000E-01 0.  1.
          3   -1    0    0  501    0  0.00000000000E+00 -0.00000000000E+00 -0.23809434821E+02  0.23809616450E+02  0.93000000000E-01 0. -1.
         23    2    1    2    0    0  0.00000000000E+00  0.00000000000E+00  0.63887559428E+02  0.11150666001E+03  0.91389906319E+02 0.  0.
        -13    1    3    3    0    0 -0.36523442812E+02 -0.12347868930E+02  0.61869965952E+02  0.72899489719E+02  0.10570000000E+00 0.  1.
         13    1    3    3    0    0  0.36523442812E+02  0.12347868930E+02  0.20175934763E+01  0.38607170291E+02  0.10570000000E+00 0. -1.
<mgrwt>
<rscale>  0 0.91389906E+02</rscale>
<asrwt>0</asrwt>
<pdfrwt beam="2">  1        3 0.36630077E-02 0.91389906E+02</pdfrwt>
<pdfrwt beam="1">  1       -3 0.13491863E-01 0.91389906E+02</pdfrwt>
<totfact> 0.33624895E+04</totfact>
</mgrwt>
</event>
<event>
 5    1  0.1401471E+000  0.8918658E+02  0.7818608E-02  0.1304834E+00
          3   -1    0    0  501    0  0.00000000000E+00  0.00000000000E+00  0.96841086836E+02  0.96841131491E+02  0.93000000000E-01 0. -1.
         -3   -1    0    0    0  501 -0.00000000000E+00 -0.00000000000E+00 -0.20534120879E+02  0.20534331479E+02  0.93000000000E-01 0.  1.
         23    2    1    2    0    0  0.00000000000E+00  0.00000000000E+00  0.76306965957E+02  0.11737546297E+03  0.89186581131E+02 0.  0.
        -13    1    3    3    0    0  0.92179928671E+01  0.32320322139E+02  0.76725136795E+02  0.83763550572E+02  0.10570000000E+00 0. -1.
         13    1    3    3    0    0 -0.92179928671E+01 -0.32320322139E+02 -0.41817083841E+00  0.33611912398E+02  0.10570000000E+00 0.  1.
<mgrwt>
<rscale>  0 0.89186581E+02</rscale>
<asrwt>0</asrwt>
<pdfrwt beam="1">  1        3 0.14898648E-01 0.89186581E+02</pdfrwt>
<pdfrwt beam="2">  1       -3 0.31591151E-02 0.89186581E+02</pdfrwt>
<totfact> 0.35486265E+04</totfact>
</mgrwt>
</event>
<event>
 5    1  0.1401471E+000  0.9153102E+02  0.7818608E-02  0.1299186E+00
          3   -1    0    0  501    0  0.00000000000E+00  0.00000000000E+00  0.48111720571E+02  0.48111810455E+02  0.93000000000E-01 0. -1.
         -3   -1    0    0    0  501 -0.00000000000E+00 -0.00000000000E+00 -0.43533538690E+02  0.43533638027E+02  0.93000000000E-01 0.  1.
         23    2    1    2    0    0  0.00000000000E+00  0.00000000000E+00  0.45781818807E+01  0.91645448482E+02  0.91531024676E+02 0.  0.
        -13    1    3    3    0    0  0.83944527564E+01  0.23710960532E+02  0.40570307633E+02  0.47735076415E+02  0.10570000000E+00 0. -1.
         13    1    3    3    0    0 -0.83944527564E+01 -0.23710960532E+02 -0.35992125752E+02  0.43910372067E+02  0.10570000000E+00 0.  1.
<mgrwt>
<rscale>  0 0.91531025E+02</rscale>
<asrwt>0</asrwt>
<pdfrwt beam="1">  1        3 0.74018178E-02 0.91531025E+02</pdfrwt>
<pdfrwt beam="2">  1       -3 0.66974820E-02 0.91531025E+02</pdfrwt>
<totfact> 0.34930852E+04</totfact>
</mgrwt>
</event>
<event>
 5    1  0.1401471E+000  0.9518575E+02  0.7818608E-02  0.1290758E+00
          3   -1    0    0  501    0  0.00000000000E+00  0.00000000000E+00  0.21383743433E+02  0.21383945665E+02  0.93000000000E-01 0. -1.
         -3   -1    0    0    0  501 -0.00000000000E+00 -0.00000000000E+00 -0.10592468624E+03  0.10592472706E+03  0.93000000000E-01 0.  1.
         23    2    1    2    0    0  0.00000000000E+00  0.00000000000E+00 -0.84540942803E+02  0.12730867273E+03  0.95185750727E+02 0.  0.
        -13    1    3    3    0    0 -0.24475083342E+02  0.30382747185E+02 -0.58152385535E+01  0.39445775477E+02  0.10570000000E+00 0.  1.
         13    1    3    3    0    0  0.24475083342E+02 -0.30382747185E+02 -0.78725704250E+02  0.87862897250E+02  0.10570000000E+00 0. -1.
<mgrwt>
<rscale>  0 0.95185751E+02</rscale>
<asrwt>0</asrwt>
<pdfrwt beam="1">  1        3 0.32898254E-02 0.95185751E+02</pdfrwt>
<pdfrwt beam="2">  1       -3 0.16296124E-01 0.95185751E+02</pdfrwt>
<totfact> 0.29131428E+04</totfact>
</mgrwt>
</event>
<event>
 5    1  0.1401471E+000  0.8582008E+02  0.7818608E-02  0.1313302E+00
         -3   -1    0    0    0  501 -0.00000000000E+00  0.00000000000E+00  0.18763158360E+02  0.18763388836E+02  0.93000000000E-01 0.  1.
          3   -1    0    0  501    0  0.00000000000E+00 -0.00000000000E+00 -0.98131424585E+02  0.98131468653E+02  0.93000000000E-01 0. -1.
         23    2    1    2    0    0  0.00000000000E+00  0.00000000000E+00 -0.79368266225E+02  0.11689485749E+03  0.85820079375E+02 0.  0.
        -13    1    3    3    0    0 -0.19113179316E+02  0.14740427303E+02 -0.88008017082E+02  0.91257964386E+02  0.10570000000E+00 0. -1.
         13    1    3    3    0    0  0.19113179316E+02 -0.14740427303E+02  0.86397508566E+01  0.25636893104E+02  0.10570000000E+00 0.  1.
<mgrwt>
<rscale>  0 0.85820079E+02</rscale>
<asrwt>0</asrwt>
<pdfrwt beam="2">  1        3 0.15097163E-01 0.85820079E+02</pdfrwt>
<pdfrwt beam="1">  1       -3 0.28866609E-02 0.85820079E+02</pdfrwt>
<totfact> 0.39409971E+04</totfact>
</mgrwt>
</event>
<event>
 5    1  0.1401471E+000  0.8564646E+02  0.7818608E-02  0.1313751E+00
          3   -1    0    0  501    0  0.00000000000E+00  0.00000000000E+00  0.17424620565E+03  0.17424623047E+03  0.93000000000E-01 0. -1.
         -3   -1    0    0    0  501 -0.00000000000E+00 -0.00000000000E+00 -0.10524123507E+02  0.10524534412E+02  0.93000000000E-01 0.  1.
         23    2    1    2    0    0  0.00000000000E+00  0.00000000000E+00  0.16372208214E+03  0.18477076488E+03  0.85646455696E+02 0.  0.
        -13    1    3    3    0    0 -0.27549400225E+02  0.27254840887E+02  0.42550664463E+02  0.57553158239E+02  0.10570000000E+00 0.  1.
         13    1    3    3    0    0  0.27549400225E+02 -0.27254840887E+02  0.12117141768E+03  0.12721760664E+03  0.10570000000E+00 0. -1.
<mgrwt>
<rscale>  0 0.85646456E+02</rscale>
<asrwt>0</asrwt>
<pdfrwt beam="1">  1        3 0.26807143E-01 0.85646456E+02</pdfrwt>
<pdfrwt beam="2">  1       -3 0.16191294E-02 0.85646456E+02</pdfrwt>
<totfact> 0.34671405E+04</totfact>
</mgrwt>
</event>
<event>
 5    1  0.1401471E+000  0.8853509E+02  0.7818608E-02  0.1306438E+00
          3   -1    0    0  501    0  0.00000000000E+00  0.00000000000E+00  0.19249078864E+03  0.19249081111E+03  0.93000000000E-01 0. -1.
         -3   -1    0    0    0  501 -0.00000000000E+00 -0.00000000000E+00 -0.10180071894E+02  0.10180496685E+02  0.93000000000E-01 0.  1.
         23    2    1    2    0    0  0.00000000000E+00  0.00000000000E+00  0.18231071675E+03  0.20267130779E+03  0.88535086611E+02 0.  0.
        -13    1    3    3    0    0  0.39486166789E+02 -0.23357510332E+01  0.45659640932E+02  0.60410488188E+02  0.10570000000E+00 0.  1.
         13    1    3    3    0    0 -0.39486166789E+02  0.23357510332E+01  0.13665107581E+03  0.14226081960E+03  0.10570000000E+00 0. -1.
<mgrwt>
<rscale>  0 0.88535087E+02</rscale>
<asrwt>0</asrwt>
<pdfrwt beam="1">  1        3 0.29613999E-01 0.88535087E+02</pdfrwt>
<pdfrwt beam="2">  1       -3 0.15661994E-02 0.88535087E+02</pdfrwt>
<totfact> 0.30694463E+04</totfact>
</mgrwt>
</event>
<event>
 5    1  0.1401471E+000  0.9167219E+02  0.7818608E-02  0.1298852E+00
         -3   -1    0    0    0  501 -0.00000000000E+00  0.00000000000E+00  0.16533210386E+03  0.16533213001E+03  0.93000000000E-01 0.  1.
          3   -1    0    0  501    0  0.00000000000E+00 -0.00000000000E+00 -0.12707241919E+02  0.12707582232E+02  0.93000000000E-01 0. -1.
         23    2    1    2    0    0  0.00000000000E+00  0.00000000000E+00  0.15262486194E+03  0.17803971225E+03  0.91672191286E+02 0.  0.
        -13    1    3    3    0    0 -0.30337329215E+02 -0.29563285466E+02  0.11031892626E+03  0.11817198507E+03  0.10570000000E+00 0.  1.
         13    1    3    3    0    0  0.30337329215E+02  0.29563285466E+02  0.42305935683E+02  0.59867727182E+02  0.10570000000E+00 0. -1.
<mgrwt>
<rscale>  0 0.91672191E+02</rscale>
<asrwt>0</asrwt>
<pdfrwt beam="2">  1        3 0.19549885E-02 0.91672191E+02</pdfrwt>
<pdfrwt beam="1">  1       -3 0.25435737E-01 0.91672191E+02</pdfrwt>
<totfact> 0.29242363E+04</totfact>
</mgrwt>
</event>
<event>
 5    1  0.1401471E+000  0.9396920E+02  0.7818608E-02  0.1293515E+00
         -3   -1    0    0    0  501 -0.00000000000E+00  0.00000000000E+00  0.84710565100E+02  0.84710616150E+02  0.93000000000E-01 0.  1.
          3   -1    0    0  501    0  0.00000000000E+00 -0.00000000000E+00 -0.26059805425E+02  0.26059971370E+02  0.93000000000E-01 0. -1.
         23    2    1    2    0    0  0.00000000000E+00  0.00000000000E+00  0.58650759675E+02  0.11077058752E+03  0.93969204791E+02 0.  0.
        -13    1    3    3    0    0 -0.37605974329E+01 -0.39487565843E+02  0.59009805689E+02  0.71102589892E+02  0.10570000000E+00 0. -1.
         13    1    3    3    0    0  0.37605974329E+01  0.39487565843E+02 -0.35904601491E+00  0.39667997628E+02  0.10570000000E+00 0.  1.
<mgrwt>
<rscale>  0 0.93969205E+02</rscale>
<asrwt>0</asrwt>
<pdfrwt beam="2">  1        3 0.40092174E-02 0.93969205E+02</pdfrwt>
<pdfrwt beam="1">  1       -3 0.13032412E-01 0.93969205E+02</pdfrwt>
<totfact> 0.31215035E+04</totfact>
</mgrwt>
</event>
<event>
 5    1  0.1401471E+000  0.8733413E+02  0.7818608E-02  0.1309439E+00
          3   -1    0    0  501    0  0.00000000000E+00  0.00000000000E+00  0.91534969603E+02  0.91535016847E+02  0.93000000000E-01 0. -1.
         -3   -1    0    0    0  501 -0.00000000000E+00 -0.00000000000E+00 -0.20831361565E+02  0.20831569160E+02  0.93000000000E-01 0.  1.
         23    2    1    2    0    0  0.00000000000E+00  0.00000000000E+00  0.70703608038E+02  0.11236658601E+03  0.87334125411E+02 0.  0.
        -13    1    3    3    0    0 -0.69012662811E+01 -0.41380849358E+02  0.50940679681E+02  0.65992167632E+02  0.10570000000E+00 0. -1.
         13    1    3    3    0    0  0.69012662811E+01  0.41380849358E+02  0.19762928356E+02  0.46374418375E+02  0.10570000000E+00 0.  1.
<mgrwt>
<rscale>  0 0.87334125E+02</rscale>
<asrwt>0</asrwt>
<pdfrwt beam="1">  1        3 0.14082323E-01 0.87334125E+02</pdfrwt>
<pdfrwt beam="2">  1       -3 0.32048444E-02 0.87334125E+02</pdfrwt>
<totfact> 0.37952291E+04</totfact>
</mgrwt>
</event>
<event>
 4    1  0.1401471E+000  0.3715987E+02  0.7818608E-02  0.1530216E+00
         -3   -1    0    0    0  501 -0.00000000000E+00  0.00000000000E+00  0.29185100414E+01  0.29199914146E+01  0.93000000000E-01 0.  1.
          3   -1    0    0  501    0  0.00000000000E+00 -0.00000000000E+00 -0.11825278173E+03  0.11825281830E+03  0.93000000000E-01 0. -1.
        -13    1    1    2    0    0  0.58954264303E+01  0.15364290244E+02 -0.85790966967E+02  0.87355129518E+02  0.10570000000E+00 0. -1.
         13    1    1    2    0    0 -0.58954264303E+01 -0.15364290244E+02 -0.29543304721E+02  0.33817680196E+02  0.10570000000E+00 0.  1.
<mgrwt>
<rscale>  0 0.37159865E+02</rscale>
<asrwt>0</asrwt>
<pdfrwt beam="2">  1        3 0.18192849E-01 0.37159865E+02</pdfrwt>
<pdfrwt beam="1">  1       -3 0.44911840E-03 0.37159865E+02</pdfrwt>
<totfact> 0.32945061E+05</totfact>
</mgrwt>
</event>
<event>
 5    1  0.1401471E+000  0.9177635E+02  0.7818608E-02  0.1298606E+00
         -3   -1    0    0    0  501 -0.00000000000E+00  0.00000000000E+00  0.25874783139E+02  0.25874950270E+02  0.93000000000E-01 0.  1.
          3   -1    0    0  501    0  0.00000000000E+00 -0.00000000000E+00 -0.81380894801E+02  0.81380947940E+02  0.93000000000E-01 0. -1.
         23    2    1    2    0    0  0.00000000000E+00  0.00000000000E+00 -0.55506111662E+02  0.10725589821E+03  0.91776354630E+02 0.  0.
        -13    1    3    3    0    0  0.38746109229E+02  0.63644169506E+01 -0.55506026244E+02  0.67990417747E+02  0.10570000000E+00 0. -1.
         13    1    3    3    0    0 -0.38746109229E+02 -0.63644169506E+01 -0.85417536983E-04  0.39265480463E+02  0.10570000000E+00 0.  1.
<mgrwt>
<rscale>  0 0.91776355E+02</rscale>
<asrwt>0</asrwt>
<pdfrwt beam="2">  1        3 0.12520154E-01 0.91776355E+02</pdfrwt>
<pdfrwt beam="1">  1       -3 0.39807529E-02 0.91776355E+02</pdfrwt>
<totfact> 0.33536992E+04</totfact>
</mgrwt>
</event>
<event>
 5    1  0.1401471E+000  0.9156175E+02  0.7818608E-02  0.1299113E+00
          3   -1    0    0  501    0  0.00000000000E+00  0.00000000000E+00  0.14286304809E+03  0.14286307836E+03  0.93000000000E-01 0. -1.
         -3   -1    0    0    0  501 -0.00000000000E+00 -0.00000000000E+00 -0.14670432713E+02  0.14670727486E+02  0.93000000000E-01 0.  1.
         23    2    1    2    0    0  0.00000000000E+00  0.00000000000E+00  0.12819261537E+03  0.15753380584E+03  0.91561746089E+02 0.  0.
        -13    1    3    3    0    0  0.40646089340E+02 -0.19065493861E+02  0.79511967156E+02  0.91311345014E+02  0.10570000000E+00 0.  1.
         13    1    3    3    0    0 -0.40646089340E+02  0.19065493861E+02  0.48680648219E+02  0.66222460829E+02  0.10570000000E+00 0. -1.
<mgrwt>
<rscale>  0 0.91561746E+02</rscale>
<asrwt>0</asrwt>
<pdfrwt beam="1">  1        3 0.21978955E-01 0.91561746E+02</pdfrwt>
<pdfrwt beam="2">  1       -3 0.22570147E-02 0.91561746E+02</pdfrwt>
<totfact> 0.30502008E+04</totfact>
</mgrwt>
</event>
<event>
 5    1  0.1401471E+000  0.9203862E+02  0.7818608E-02  0.1297989E+00
         -3   -1    0    0    0  501 -0.00000000000E+00  0.00000000000E+00  0.58094488425E+02  0.58094562864E+02  0.93000000000E-01 0.  1.
          3   -1    0    0  501    0  0.00000000000E+00 -0.00000000000E+00 -0.36453849650E+02  0.36453968279E+02  0.93000000000E-01 0. -1.
         23    2    1    2    0    0  0.00000000000E+00  0.00000000000E+00  0.21640638775E+02  0.94548531143E+02  0.92038619583E+02 0.  0.
        -13    1    3    3    0    0 -0.12652515410E+01  0.11954855699E+02  0.56452932037E+02  0.57718836997E+02  0.10570000000E+00 0.  1.
         13    1    3    3    0    0  0.12652515410E+01 -0.11954855699E+02 -0.34812293262E+02  0.36829694146E+02  0.10570000000E+00 0. -1.
<mgrwt>
<rscale>  0 0.92038620E+02</rscale>
<asrwt>0</asrwt>
<pdfrwt beam="2">  1        3 0.56082995E-02 0.92038620E+02</pdfrwt>
<pdfrwt beam="1">  1       -3 0.89376284E-02 0.92038620E+02</pdfrwt>
<totfact> 0.34192616E+04</totfact>
</mgrwt>
</event>
<event>
 5    1  0.1401471E+000  0.9256934E+02  0.7818608E-02  0.1296746E+00
          3   -1    0    0  501    0  0.00000000000E+00  0.00000000000E+00  0.12919029748E+03  0.12919033095E+03  0.93000000000E-01 0. -1.
         -3   -1    0    0    0  501 -0.00000000000E+00 -0.00000000000E+00 -0.16582121693E+02  0.16582382484E+02  0.93000000000E-01 0.  1.
         23    2    1    2    0    0  0.00000000000E+00  0.00000000000E+00  0.11260817578E+03  0.14577271344E+03  0.92569340112E+02 0.  0.
        -13    1    3    3    0    0 -0.19196141236E+02 -0.36511998213E+02  0.23247970182E+02  0.47350788187E+02  0.10570000000E+00 0.  1.
         13    1    3    3    0    0  0.19196141236E+02  0.36511998213E+02  0.89360205603E+02  0.98421925249E+02  0.10570000000E+00 0. -1.
<mgrwt>
<rscale>  0 0.92569340E+02</rscale>
<asrwt>0</asrwt>
<pdfrwt beam="1">  1        3 0.19875453E-01 0.92569340E+02</pdfrwt>
<pdfrwt beam="2">  1       -3 0.25511182E-02 0.92569340E+02</pdfrwt>
<totfact> 0.30294684E+04</totfact>
</mgrwt>
</event>
<event>
 5    1  0.1401471E+000  0.9050130E+02  0.7818608E-02  0.1301642E+00
          3   -1    0    0  501    0  0.00000000000E+00  0.00000000000E+00  0.18013680163E+02  0.18013920229E+02  0.93000000000E-01 0. -1.
         -3   -1    0    0    0  501 -0.00000000000E+00 -0.00000000000E+00 -0.11366933641E+03  0.11366937446E+03  0.93000000000E-01 0.  1.
         23    2    1    2    0    0  0.00000000000E+00  0.00000000000E+00 -0.95655656250E+02  0.13168329469E+03  0.90501301244E+02 0.  0.
        -13    1    3    3    0    0 -0.25790533502E+02 -0.10000375809E+02 -0.99934851323E+02  0.10369254947E+03  0.10570000000E+00 0.  1.
         13    1    3    3    0    0  0.25790533502E+02  0.10000375809E+02  0.42791950736E+01  0.27990745214E+02  0.10570000000E+00 0. -1.
<mgrwt>
<rscale>  0 0.90501301E+02</rscale>
<asrwt>0</asrwt>
<pdfrwt beam="1">  1        3 0.27713569E-02 0.90501301E+02</pdfrwt>
<pdfrwt beam="2">  1       -3 0.17487611E-01 0.90501301E+02</pdfrwt>
<totfact> 0.33127620E+04</totfact>
</mgrwt>
</event>
<event>
 5    1  0.1401471E+000  0.9558699E+02  0.7818608E-02  0.1289859E+00
          3   -1    0    0  501    0  0.00000000000E+00  0.00000000000E+00  0.33754211720E+02  0.33754339837E+02  0.93000000000E-01 0. -1.
         -3   -1    0    0    0  501 -0.00000000000E+00 -0.00000000000E+00 -0.67671806029E+02  0.67671869933E+02  0.93000000000E-01 0.  1.
         23    2    1    2    0    0  0.00000000000E+00  0.00000000000E+00 -0.33917594309E+02  0.10142620977E+03  0.95586990875E+02 0.  0.
        -13    1    3    3    0    0 -0.35101901599E+02 -0.30777761744E+02 -0.60966076078E+01  0.47080716973E+02  0.10570000000E+00 0. -1.
         13    1    3    3    0    0  0.35101901599E+02  0.30777761744E+02 -0.27820986701E+02  0.54345492797E+02  0.10570000000E+00 0.  1.
<mgrwt>
<rscale>  0 0.95586991E+02</rscale>
<asrwt>0</asrwt>
<pdfrwt beam="1">  1        3 0.51929704E-02 0.95586991E+02</pdfrwt>
<pdfrwt beam="2">  1       -3 0.10411062E-01 0.95586991E+02</pdfrwt>
<totfact> 0.30380370E+04</totfact>
</mgrwt>
</event>
<event>
 5    1  0.1401471E+000  0.8540922E+02  0.7818608E-02  0.1314366E+00
          3   -1    0    0  501    0  0.00000000000E+00  0.00000000000E+00  0.65177015374E+02  0.65177081724E+02  0.93000000000E-01 0.  1.
         -3   -1    0    0    0  501 -0.00000000000E+00 -0.00000000000E+00 -0.27980316432E+02  0.27980470986E+02  0.93000000000E-01 0. -1.
         23    2    1    2    0    0  0.00000000000E+00  0.00000000000E+00  0.37196698942E+02  0.93157552710E+02  0.85409222071E+02 0.  0.
        -13    1    3    3    0    0  0.12193679950E+02 -0.10494610443E+02  0.61745255132E+02  0.63806820818E+02  0.10570000000E+00 0.  1.
         13    1    3    3    0    0 -0.12193679950E+02  0.10494610443E+02 -0.24548556190E+02  0.29350731892E+02  0.10570000000E+00 0. -1.
<mgrwt>
<rscale>  0 0.85409222E+02</rscale>
<asrwt>0</asrwt>
<pdfrwt beam="1">  1        3 0.10027250E-01 0.85409222E+02</pdfrwt>
<pdfrwt beam="2">  1       -3 0.43046811E-02 0.85409222E+02</pdfrwt>
<totfact> 0.42001895E+04</totfact>
</mgrwt>
</event>
<event>
 5    1  0.1401471E+000  0.8151964E+02  0.7818608E-02  0.1324793E+00
         -3   -1    0    0    0  501 -0.00000000000E+00  0.00000000000E+00  0.15981671989E+02  0.15981942578E+02  0.93000000000E-01 0.  1.
          3   -1    0    0  501    0  0.00000000000E+00 -0.00000000000E+00 -0.10395310190E+03  0.10395314350E+03  0.93000000000E-01 0. -1.
         23    2    1    2    0    0  0.00000000000E+00  0.00000000000E+00 -0.87971429915E+02  0.11993508608E+03  0.81519644212E+02 0.  0.
        -13    1    3    3    0    0  0.11856122932E+02 -0.38897521990E+02 -0.48085982935E+02  0.62975056929E+02  0.10570000000E+00 0.  1.
         13    1    3    3    0    0 -0.11856122932E+02  0.38897521990E+02 -0.39885446980E+02  0.56960029154E+02  0.10570000000E+00 0. -1.
<mgrwt>
<rscale>  0 0.81519644E+02</rscale>
<asrwt>0</asrwt>
<pdfrwt beam="2">  1        3 0.15992808E-01 0.81519644E+02</pdfrwt>
<pdfrwt beam="1">  1       -3 0.24587428E-02 0.81519644E+02</pdfrwt>
<totfact> 0.44958372E+04</totfact>
</mgrwt>
</event>
<event>
 5    1  0.1401471E+000  0.9176421E+02  0.7818608E-02  0.1298635E+00
          3   -1    0    0  501    0  0.00000000000E+00  0.00000000000E+00  0.12660315134E+03  0.12660318550E+03  0.93000000000E-01 0. -1.
         -3   -1    0    0    0  501 -0.00000000000E+00 -0.00000000000E+00 -0.16627914939E+02  0.16628175012E+02  0.93000000000E-01 0.  1.
         23    2    1    2    0    0  0.00000000000E+00  0.00000000000E+00  0.10997523640E+03  0.14323136051E+03  0.91764208774E+02 0.  0.
        -13    1    3    3    0    0  0.44910587349E+02 -0.42021975631E+01  0.68096731485E+02  0.81681058586E+02  0.10570000000E+00 0.  1.
         13    1    3    3    0    0 -0.44910587349E+02  0.42021975631E+01  0.41878504917E+02  0.61550301924E+02  0.10570000000E+00 0. -1.
<mgrwt>
<rscale>  0 0.91764209E+02</rscale>
<asrwt>0</asrwt>
<pdfrwt beam="1">  1        3 0.19477431E-01 0.91764209E+02</pdfrwt>
<pdfrwt beam="2">  1       -3 0.25581634E-02 0.91764209E+02</pdfrwt>
<totfact> 0.31177973E+04</totfact>
</mgrwt>
</event>
<event>
 5    1  0.1401471E+000  0.9043699E+02  0.7818608E-02  0.1301797E+00
          3   -1    0    0  501    0  0.00000000000E+00  0.00000000000E+00  0.65351897142E+01  0.65358514060E+01  0.93000000000E-01 0. -1.
         -3   -1    0    0    0  501 -0.00000000000E+00 -0.00000000000E+00 -0.31286076249E+03  0.31286077631E+03  0.93000000000E-01 0.  1.
         23    2    1    2    0    0  0.00000000000E+00  0.00000000000E+00 -0.30632557278E+03  0.31939662772E+03  0.90436990560E+02 0.  0.
        -13    1    3    3    0    0 -0.40814545716E+02 -0.15515144220E+01 -0.84638019337E+02  0.93977868825E+02  0.10570000000E+00 0. -1.
         13    1    3    3    0    0  0.40814545716E+02  0.15515144220E+01 -0.22168755344E+03  0.22541875890E+03  0.10570000000E+00 0.  1.
<mgrwt>
<rscale>  0 0.90436991E+02</rscale>
<asrwt>0</asrwt>
<pdfrwt beam="1">  1        3 0.10054660E-02 0.90436991E+02</pdfrwt>
<pdfrwt beam="2">  1       -3 0.48132465E-01 0.90436991E+02</pdfrwt>
<totfact> 0.23804476E+04</totfact>
</mgrwt>
</event>
<event>
 5    1  0.1401471E+000  0.9060173E+02  0.7818608E-02  0.1301401E+00
          3   -1    0    0  501    0  0.00000000000E+00  0.00000000000E+00  0.10041752615E+03  0.10041756922E+03  0.93000000000E-01 0. -1.
         -3   -1    0    0    0  501 -0.00000000000E+00 -0.00000000000E+00 -0.20436203546E+02  0.20436415155E+02  0.93000000000E-01 0.  1.
         23    2    1    2    0    0  0.00000000000E+00  0.00000000000E+00  0.79981322606E+02  0.12085398437E+03  0.90601730518E+02 0.  0.
        -13    1    3    3    0    0  0.10577297950E+02 -0.33136731612E+02  0.12790610572E+01  0.34807605255E+02  0.10570000000E+00 0.  1.
         13    1    3    3    0    0 -0.10577297950E+02  0.33136731612E+02  0.78702261549E+02  0.86046379118E+02  0.10570000000E+00 0. -1.
<mgrwt>
<rscale>  0 0.90601731E+02</rscale>
<asrwt>0</asrwt>
<pdfrwt beam="1">  1        3 0.15448870E-01 0.90601731E+02</pdfrwt>
<pdfrwt beam="2">  1       -3 0.31440509E-02 0.90601731E+02</pdfrwt>
<totfact> 0.33762444E+04</totfact>
</mgrwt>
</event>
<event>
 5    1  0.1401471E+000  0.8907434E+02  0.7818608E-02  0.1305109E+00
          3   -1    0    0  501    0  0.00000000000E+00  0.00000000000E+00  0.44282264624E+02  0.44282362281E+02  0.93000000000E-01 0. -1.
         -3   -1    0    0    0  501 -0.00000000000E+00 -0.00000000000E+00 -0.44793350405E+02  0.44793446949E+02  0.93000000000E-01 0.  1.
         23    2    1    2    0    0  0.00000000000E+00  0.00000000000E+00 -0.51108578171E+00  0.89075809230E+02  0.89074343002E+02 0.  0.
        -13    1    3    3    0    0 -0.17931409016E+02  0.21280107092E+02 -0.35029238318E+02  0.44737423895E+02  0.10570000000E+00 0.  1.
         13    1    3    3    0    0  0.17931409016E+02 -0.21280107092E+02  0.34518152536E+02  0.44338385335E+02  0.10570000000E+00 0. -1.
<mgrwt>
<rscale>  0 0.89074343E+02</rscale>
<asrwt>0</asrwt>
<pdfrwt beam="1">  1        3 0.68126710E-02 0.89074343E+02</pdfrwt>
<pdfrwt beam="2">  1       -3 0.68912996E-02 0.89074343E+02</pdfrwt>
<totfact> 0.37824835E+04</totfact>
</mgrwt>
</event>
<event>
 5    1  0.1401471E+000  0.7807144E+02  0.7818608E-02  0.1334615E+00
         -3   -1    0    0    0  501 -0.00000000000E+00  0.00000000000E+00  0.53920300583E+01  0.53928320157E+01  0.93000000000E-01 0.  1.
          3   -1    0    0  501    0  0.00000000000E+00 -0.00000000000E+00 -0.28257815540E+03  0.28257817070E+03  0.93000000000E-01 0. -1.
         23    2    1    2    0    0  0.00000000000E+00  0.00000000000E+00 -0.27718612534E+03  0.28797100272E+03  0.78071443724E+02 0.  0.
        -13    1    3    3    0    0  0.37002203880E+02 -0.83983638455E+01 -0.10477061997E+03  0.11142975181E+03  0.10570000000E+00 0.  1.
         13    1    3    3    0    0 -0.37002203880E+02  0.83983638455E+01 -0.17241550537E+03  0.17654125090E+03  0.10570000000E+00 0. -1.
<mgrwt>
<rscale>  0 0.78071444E+02</rscale>
<asrwt>0</asrwt>
<pdfrwt beam="2">  1        3 0.43473614E-01 0.78071444E+02</pdfrwt>
<pdfrwt beam="1">  1       -3 0.82960617E-03 0.78071444E+02</pdfrwt>
<totfact> 0.37020833E+04</totfact>
</mgrwt>
</event>
<event>
 5    1  0.1401471E+000  0.9015244E+02  0.7818608E-02  0.1302483E+00
          3   -1    0    0  501    0  0.00000000000E+00  0.00000000000E+00  0.21476576325E+03  0.21476578339E+03  0.93000000000E-01 0. -1.
         -3   -1    0    0    0  501 -0.00000000000E+00 -0.00000000000E+00 -0.94605966650E+01  0.94610537605E+01  0.93000000000E-01 0.  1.
         23    2    1    2    0    0  0.00000000000E+00  0.00000000000E+00  0.20530516659E+03  0.22422683715E+03  0.90152443507E+02 0.  0.
        -13    1    3    3    0    0 -0.22712649015E+01 -0.43323946697E+02  0.13308712818E+03  0.13997970518E+03  0.10570000000E+00 0. -1.
         13    1    3    3    0    0  0.22712649015E+01  0.43323946697E+02  0.72218038406E+02  0.84247131971E+02  0.10570000000E+00 0.  1.
<mgrwt>
<rscale>  0 0.90152444E+02</rscale>
<asrwt>0</asrwt>
<pdfrwt beam="1">  1        3 0.33040919E-01 0.90152444E+02</pdfrwt>
<pdfrwt beam="2">  1       -3 0.14555133E-02 0.90152444E+02</pdfrwt>
<totfact> 0.28134735E+04</totfact>
</mgrwt>
</event>
<event>
 5    1  0.1401471E+000  0.9125778E+02  0.7818608E-02  0.1299834E+00
         -3   -1    0    0    0  501 -0.00000000000E+00  0.00000000000E+00  0.78222655680E+02  0.78222710965E+02  0.93000000000E-01 0.  1.
          3   -1    0    0  501    0  0.00000000000E+00 -0.00000000000E+00 -0.26616127133E+02  0.26616289609E+02  0.93000000000E-01 0. -1.
         23    2    1    2    0    0  0.00000000000E+00  0.00000000000E+00  0.51606528548E+02  0.10483900057E+03  0.91257779135E+02 0.  0.
        -13    1    3    3    0    0 -0.18631259347E+02 -0.36725274728E+02  0.48377402483E+02  0.63531518730E+02  0.10570000000E+00 0.  1.
         13    1    3    3    0    0  0.18631259347E+02  0.36725274728E+02  0.32291260650E+01  0.41307481844E+02  0.10570000000E+00 0. -1.
<mgrwt>
<rscale>  0 0.91257779E+02</rscale>
<asrwt>0</asrwt>
<pdfrwt beam="2">  1        3 0.40948056E-02 0.91257779E+02</pdfrwt>
<pdfrwt beam="1">  1       -3 0.12034271E-01 0.91257779E+02</pdfrwt>
<totfact> 0.34234700E+04</totfact>
</mgrwt>
</event>
<event>
 5    1  0.1401471E+000  0.9026531E+02  0.7818608E-02  0.1302210E+00
          3   -1    0    0  501    0  0.00000000000E+00  0.00000000000E+00  0.23306343192E+02  0.23306528741E+02  0.93000000000E-01 0. -1.
         -3   -1    0    0    0  501 -0.00000000000E+00 -0.00000000000E+00 -0.87398678694E+02  0.87398728174E+02  0.93000000000E-01 0.  1.
         23    2    1    2    0    0  0.00000000000E+00  0.00000000000E+00 -0.64092335502E+02  0.11070525691E+03  0.90265311380E+02 0.  0.
        -13    1    3    3    0    0  0.12455641559E+02 -0.10485993116E+02 -0.83671206683E+02  0.85240724179E+02  0.10570000000E+00 0.  1.
         13    1    3    3    0    0 -0.12455641559E+02  0.10485993116E+02  0.19578871181E+02  0.25464532736E+02  0.10570000000E+00 0. -1.
<mgrwt>
<rscale>  0 0.90265311E+02</rscale>
<asrwt>0</asrwt>
<pdfrwt beam="1">  1        3 0.35856094E-02 0.90265311E+02</pdfrwt>
<pdfrwt beam="2">  1       -3 0.13445968E-01 0.90265311E+02</pdfrwt>
<totfact> 0.34832982E+04</totfact>
</mgrwt>
</event>
<event>
 5    1  0.1401471E+000  0.8995208E+02  0.7818608E-02  0.1302968E+00
          3   -1    0    0  501    0  0.00000000000E+00  0.00000000000E+00  0.19574015268E+03  0.19574017478E+03  0.93000000000E-01 0. -1.
         -3   -1    0    0    0  501 -0.00000000000E+00 -0.00000000000E+00 -0.10334103426E+02  0.10334521886E+02  0.93000000000E-01 0.  1.
         23    2    1    2    0    0  0.00000000000E+00  0.00000000000E+00  0.18540604926E+03  0.20607469666E+03  0.89952084486E+02 0.  0.
        -13    1    3    3    0    0 -0.28279632171E+02  0.33606943036E+02  0.70530693800E+02  0.83088832923E+02  0.10570000000E+00 0.  1.
         13    1    3    3    0    0  0.28279632171E+02 -0.33606943036E+02  0.11487535546E+03  0.12298586374E+03  0.10570000000E+00 0. -1.
<mgrwt>
<rscale>  0 0.89952084E+02</rscale>
<asrwt>0</asrwt>
<pdfrwt beam="1">  1        3 0.30113903E-01 0.89952084E+02</pdfrwt>
<pdfrwt beam="2">  1       -3 0.15898960E-02 0.89952084E+02</pdfrwt>
<totfact> 0.29232392E+04</totfact>
</mgrwt>
</event>
<event>
 5    1  0.1401471E+000  0.8777664E+02  0.7818608E-02  0.1308327E+00
         -3   -1    0    0    0  501 -0.00000000000E+00  0.00000000000E+00  0.25322854169E+02  0.25323024943E+02  0.93000000000E-01 0.  1.
          3   -1    0    0  501    0  0.00000000000E+00 -0.00000000000E+00 -0.76064607285E+02  0.76064664138E+02  0.93000000000E-01 0. -1.
         23    2    1    2    0    0  0.00000000000E+00  0.00000000000E+00 -0.50741753116E+02  0.10138768908E+03  0.87776636914E+02 0.  0.
        -13    1    3    3    0    0  0.38668139334E+02  0.12434289644E+02 -0.61697980891E+01  0.41084232249E+02  0.10570000000E+00 0.  1.
         13    1    3    3    0    0 -0.38668139334E+02 -0.12434289644E+02 -0.44571955026E+02  0.60303456832E+02  0.10570000000E+00 0. -1.
<mgrwt>
<rscale>  0 0.87776637E+02</rscale>
<asrwt>0</asrwt>
<pdfrwt beam="2">  1        3 0.11702265E-01 0.87776637E+02</pdfrwt>
<pdfrwt beam="1">  1       -3 0.38958413E-02 0.87776637E+02</pdfrwt>
<totfact> 0.38320027E+04</totfact>
</mgrwt>
</event>
<event>
 5    1  0.1401471E+000  0.9023239E+02  0.7818608E-02  0.1302290E+00
         -3   -1    0    0    0  501 -0.00000000000E+00  0.00000000000E+00  0.21389604231E+02  0.21389806408E+02  0.93000000000E-01 0.  1.
          3   -1    0    0  501    0  0.00000000000E+00 -0.00000000000E+00 -0.95161015679E+02  0.95161061123E+02  0.93000000000E-01 0. -1.
         23    2    1    2    0    0  0.00000000000E+00  0.00000000000E+00 -0.73771411448E+02  0.11655086753E+03  0.90232386510E+02 0.  0.
        -13    1    3    3    0    0 -0.62689884644E+00 -0.41997350255E+02 -0.15610714403E+02  0.44809329467E+02  0.10570000000E+00 0.  1.
         13    1    3    3    0    0  0.62689884644E+00  0.41997350255E+02 -0.58160697045E+02  0.71741538065E+02  0.10570000000E+00 0. -1.
<mgrwt>
<rscale>  0 0.90232387E+02</rscale>
<asrwt>0</asrwt>
<pdfrwt beam="2">  1        3 0.14640175E-01 0.90232387E+02</pdfrwt>
<pdfrwt beam="1">  1       -3 0.32907274E-02 0.90232387E+02</pdfrwt>
<totfact> 0.34442762E+04</totfact>
</mgrwt>
</event>
<event>
 5    1  0.1401471E+000  0.9008997E+02  0.7818608E-02  0.1302634E+00
          3   -1    0    0  501    0  0.00000000000E+00  0.00000000000E+00  0.33960476363E+03  0.33960477636E+03  0.93000000000E-01 0. -1.
         -3   -1    0    0    0  501 -0.00000000000E+00 -0.00000000000E+00 -0.59743666349E+01  0.59750904335E+01  0.93000000000E-01 0.  1.
         23    2    1    2    0    0  0.00000000000E+00  0.00000000000E+00  0.33363039700E+03  0.34557986680E+03  0.90089969123E+02 0.  0.
        -13    1    3    3    0    0  0.42840773559E+02  0.11623934189E+02  0.13745289120E+03  0.14444291674E+03  0.10570000000E+00 0.  1.
         13    1    3    3    0    0 -0.42840773559E+02 -0.11623934189E+02  0.19617750580E+03  0.20113695006E+03  0.10570000000E+00 0. -1.
<mgrwt>
<rscale>  0 0.90089969E+02</rscale>
<asrwt>0</asrwt>
<pdfrwt beam="1">  1        3 0.52246949E-01 0.90089969E+02</pdfrwt>
<pdfrwt beam="2">  1       -3 0.91918988E-03 0.90089969E+02</pdfrwt>
<totfact> 0.23097580E+04</totfact>
</mgrwt>
</event>
<event>
 5    1  0.1401471E+000  0.9165940E+02  0.7818608E-02  0.1298882E+00
          3   -1    0    0  501    0  0.00000000000E+00  0.00000000000E+00  0.12700697765E+02  0.12701038253E+02  0.93000000000E-01 0. -1.
         -3   -1    0    0    0  501 -0.00000000000E+00 -0.00000000000E+00 -0.16537111602E+03  0.16537114217E+03  0.93000000000E-01 0.  1.
         23    2    1    2    0    0  0.00000000000E+00  0.00000000000E+00 -0.15267041825E+03  0.17807218042E+03  0.91659395756E+02 0.  0.
        -13    1    3    3    0    0  0.25231586106E+02 -0.32067647741E+02 -0.35797905930E+02  0.54281379962E+02  0.10570000000E+00 0. -1.
         13    1    3    3    0    0 -0.25231586106E+02  0.32067647741E+02 -0.11687251232E+03  0.12379080046E+03  0.10570000000E+00 0.  1.
<mgrwt>
<rscale>  0 0.91659396E+02</rscale>
<asrwt>0</asrwt>
<pdfrwt beam="1">  1        3 0.19539818E-02 0.91659396E+02</pdfrwt>
<pdfrwt beam="2">  1       -3 0.25441737E-01 0.91659396E+02</pdfrwt>
<totfact> 0.29251642E+04</totfact>
</mgrwt>
</event>
<event>
 5    1  0.1401471E+000  0.9018278E+02  0.7818608E-02  0.1302410E+00
          3   -1    0    0  501    0  0.00000000000E+00  0.00000000000E+00  0.33427667409E+02  0.33427796777E+02  0.93000000000E-01 0. -1.
         -3   -1    0    0    0  501 -0.00000000000E+00 -0.00000000000E+00 -0.60824583209E+02  0.60824654307E+02  0.93000000000E-01 0.  1.
         23    2    1    2    0    0  0.00000000000E+00  0.00000000000E+00 -0.27396915800E+02  0.94252451084E+02  0.90182778511E+02 0.  0.
        -13    1    3    3    0    0  0.86999837222E+01  0.63881165055E+01 -0.59454545659E+02  0.60426417412E+02  0.10570000000E+00 0.  1.
         13    1    3    3    0    0 -0.86999837222E+01 -0.63881165055E+01  0.32057629859E+02  0.33826033671E+02  0.10570000000E+00 0. -1.
<mgrwt>
<rscale>  0 0.90182779E+02</rscale>
<asrwt>0</asrwt>
<pdfrwt beam="1">  1        3 0.51427335E-02 0.90182779E+02</pdfrwt>
<pdfrwt beam="2">  1       -3 0.93576436E-02 0.90182779E+02</pdfrwt>
<totfact> 0.36165864E+04</totfact>
</mgrwt>
</event>
<event>
 5    1  0.1401471E+000  0.1019716E+03  0.7818608E-02  0.1276204E+00
         -3   -1    0    0    0  501 -0.00000000000E+00  0.00000000000E+00  0.34367324766E+02  0.34367450597E+02  0.93000000000E-01 0.  1.
          3   -1    0    0  501    0  0.00000000000E+00 -0.00000000000E+00 -0.75639977364E+02  0.75640034536E+02  0.93000000000E-01 0. -1.
         23    2    1    2    0    0  0.00000000000E+00  0.00000000000E+00 -0.41272652598E+02  0.11000748513E+03  0.10197163788E+03 0.  0.
        -13    1    3    3    0    0 -0.33340264892E+01 -0.50854016373E+02 -0.22270936852E+02  0.55617016412E+02  0.10570000000E+00 0.  1.
         13    1    3    3    0    0  0.33340264892E+01  0.50854016373E+02 -0.19001715746E+02  0.54390468721E+02  0.10570000000E+00 0. -1.
<mgrwt>
<rscale>  0 0.10197164E+03</rscale>
<asrwt>0</asrwt>
<pdfrwt beam="2">  1        3 0.11636934E-01 0.10197164E+03</pdfrwt>
<pdfrwt beam="1">  1       -3 0.52872948E-02 0.10197164E+03</pdfrwt>
<totfact> 0.24981992E+04</totfact>
</mgrwt>
</event>
<event>
 5    1  0.1401471E+000  0.9409044E+02  0.7818608E-02  0.1293238E+00
         -3   -1    0    0    0  501 -0.00000000000E+00  0.00000000000E+00  0.21518240529E+03  0.21518242539E+03  0.93000000000E-01 0.  1.
          3   -1    0    0  501    0  0.00000000000E+00 -0.00000000000E+00 -0.10285241666E+02  0.10285662115E+02  0.93000000000E-01 0. -1.
         23    2    1    2    0    0  0.00000000000E+00  0.00000000000E+00  0.20489716363E+03  0.22546808750E+03  0.94090439582E+02 0.  0.
        -13    1    3    3    0    0  0.31536270014E+02 -0.10771594202E+02  0.18202125195E+03  0.18504678031E+03  0.10570000000E+00 0.  1.
         13    1    3    3    0    0 -0.31536270014E+02  0.10771594202E+02  0.22875911677E+02  0.40421307198E+02  0.10570000000E+00 0. -1.
<mgrwt>
<rscale>  0 0.94090440E+02</rscale>
<asrwt>0</asrwt>
<pdfrwt beam="2">  1        3 0.15823790E-02 0.94090440E+02</pdfrwt>
<pdfrwt beam="1">  1       -3 0.33105015E-01 0.94090440E+02</pdfrwt>
<totfact> 0.25011427E+04</totfact>
</mgrwt>
</event>
<event>
 5    1  0.1401471E+000  0.9061711E+02  0.7818608E-02  0.1301364E+00
         -3   -1    0    0    0  501 -0.00000000000E+00  0.00000000000E+00  0.10418337737E+02  0.10418752814E+02  0.93000000000E-01 0.  1.
          3   -1    0    0  501    0  0.00000000000E+00 -0.00000000000E+00 -0.19703907914E+03  0.19703910108E+03  0.93000000000E-01 0. -1.
         23    2    1    2    0    0  0.00000000000E+00  0.00000000000E+00 -0.18662074140E+03  0.20745785390E+03  0.90617106681E+02 0.  0.
        -13    1    3    3    0    0  0.44294092990E+02  0.93231845595E+01 -0.88751444123E+02  0.99627899961E+02  0.10570000000E+00 0.  1.
         13    1    3    3    0    0 -0.44294092990E+02 -0.93231845595E+01 -0.97869297276E+02  0.10782995394E+03  0.10570000000E+00 0. -1.
<mgrwt>
<rscale>  0 0.90617107E+02</rscale>
<asrwt>0</asrwt>
<pdfrwt beam="2">  1        3 0.30313735E-01 0.90617107E+02</pdfrwt>
<pdfrwt beam="1">  1       -3 0.16028550E-02 0.90617107E+02</pdfrwt>
<totfact> 0.28587786E+04</totfact>
</mgrwt>
</event>
<event>
 5    1  0.1401471E+000  0.9079753E+02  0.7818608E-02  0.1300932E+00
          3   -1    0    0  501    0  0.00000000000E+00  0.00000000000E+00  0.12305921974E+03  0.12305925488E+03  0.93000000000E-01 0. -1.
         -3   -1    0    0    0  501 -0.00000000000E+00 -0.00000000000E+00 -0.16748255957E+02  0.16748514161E+02  0.93000000000E-01 0.  1.
         23    2    1    2    0    0  0.00000000000E+00  0.00000000000E+00  0.10631096378E+03  0.13980776904E+03  0.90797528953E+02 0.  0.
        -13    1    3    3    0    0 -0.16220114027E+02 -0.33510928226E+02  0.13152071931E+02  0.39484966483E+02  0.10570000000E+00 0. -1.
         13    1    3    3    0    0  0.16220114027E+02  0.33510928226E+02  0.93158891851E+02  0.10032280256E+03  0.10570000000E+00 0.  1.
<mgrwt>
<rscale>  0 0.90797529E+02</rscale>
<asrwt>0</asrwt>
<pdfrwt beam="1">  1        3 0.18932210E-01 0.90797529E+02</pdfrwt>
<pdfrwt beam="2">  1       -3 0.25766774E-02 0.90797529E+02</pdfrwt>
<totfact> 0.32305097E+04</totfact>
</mgrwt>
</event>
<event>
 5    1  0.1401471E+000  0.8652689E+02  0.7818608E-02  0.1311487E+00
         -3   -1    0    0    0  501 -0.00000000000E+00  0.00000000000E+00  0.41522459233E+02  0.41522563381E+02  0.93000000000E-01 0.  1.
          3   -1    0    0  501    0  0.00000000000E+00 -0.00000000000E+00 -0.45077224076E+02  0.45077320011E+02  0.93000000000E-01 0. -1.
         23    2    1    2    0    0  0.00000000000E+00  0.00000000000E+00 -0.35547648431E+01  0.86599883392E+02  0.86526894376E+02 0.  0.
        -13    1    3    3    0    0  0.41239079461E+02  0.14334389948E+01 -0.14788281788E+02  0.43834015021E+02  0.10570000000E+00 0. -1.
         13    1    3    3    0    0 -0.41239079461E+02 -0.14334389948E+01  0.11233516945E+02  0.42765868371E+02  0.10570000000E+00 0.  1.
<mgrwt>
<rscale>  0 0.86526894E+02</rscale>
<asrwt>0</asrwt>
<pdfrwt beam="2">  1        3 0.69349730E-02 0.86526894E+02</pdfrwt>
<pdfrwt beam="1">  1       -3 0.63880860E-02 0.86526894E+02</pdfrwt>
<totfact> 0.41143207E+04</totfact>
</mgrwt>
</event>
<event>
 5    1  0.1401471E+000  0.9065495E+02  0.7818608E-02  0.1301273E+00
          3   -1    0    0  501    0  0.00000000000E+00  0.00000000000E+00  0.13312163208E+03  0.13312166456E+03  0.93000000000E-01 0. -1.
         -3   -1    0    0    0  501 -0.00000000000E+00 -0.00000000000E+00 -0.15433679602E+02  0.15433959799E+02  0.93000000000E-01 0.  1.
         23    2    1    2    0    0  0.00000000000E+00  0.00000000000E+00  0.11768795247E+03  0.14855562436E+03  0.90654946757E+02 0.  0.
        -13    1    3    3    0    0 -0.44330025339E+02  0.72618924866E+01  0.48919063249E+02  0.66415150009E+02  0.10570000000E+00 0.  1.
         13    1    3    3    0    0  0.44330025339E+02 -0.72618924866E+01  0.68768889225E+02  0.82140474351E+02  0.10570000000E+00 0. -1.
<mgrwt>
<rscale>  0 0.90654947E+02</rscale>
<asrwt>0</asrwt>
<pdfrwt beam="1">  1        3 0.20480276E-01 0.90654947E+02</pdfrwt>
<pdfrwt beam="2">  1       -3 0.23744363E-02 0.90654947E+02</pdfrwt>
<totfact> 0.31886952E+04</totfact>
</mgrwt>
</event>
<event>
 5    1  0.1401471E+000  0.9090781E+02  0.7818608E-02  0.1300668E+00
         -3   -1    0    0    0  501 -0.00000000000E+00  0.00000000000E+00  0.19825975580E+03  0.19825977761E+03  0.93000000000E-01 0.  1.
          3   -1    0    0  501    0  0.00000000000E+00 -0.00000000000E+00 -0.10420732560E+02  0.10421147542E+02  0.93000000000E-01 0. -1.
         23    2    1    2    0    0  0.00000000000E+00  0.00000000000E+00  0.18783902324E+03  0.20868092516E+03  0.90907809740E+02 0.  0.
        -13    1    3    3    0    0  0.25050906607E+02 -0.37661072660E+02  0.10422177470E+03  0.11361379234E+03  0.10570000000E+00 0.  1.
         13    1    3    3    0    0 -0.25050906607E+02  0.37661072660E+02  0.83617248544E+02  0.95067132818E+02  0.10570000000E+00 0. -1.
<mgrwt>
<rscale>  0 0.90907810E+02</rscale>
<asrwt>0</asrwt>
<pdfrwt beam="2">  1        3 0.16032232E-02 0.90907810E+02</pdfrwt>
<pdfrwt beam="1">  1       -3 0.30501534E-01 0.90907810E+02</pdfrwt>
<totfact> 0.28278571E+04</totfact>
</mgrwt>
</event>
<event>
 5    1  0.1401471E+000  0.9233908E+02  0.7818608E-02  0.1297284E+00
         -3   -1    0    0    0  501 -0.00000000000E+00  0.00000000000E+00  0.29605540581E+02  0.29605686651E+02  0.93000000000E-01 0.  1.
          3   -1    0    0  501    0  0.00000000000E+00 -0.00000000000E+00 -0.72000575021E+02  0.72000635083E+02  0.93000000000E-01 0. -1.
         23    2    1    2    0    0  0.00000000000E+00  0.00000000000E+00 -0.42395034440E+02  0.10160632173E+03  0.92339079870E+02 0.  0.
        -13    1    3    3    0    0 -0.12203221952E+02 -0.28063510745E+02  0.16842775342E+02  0.34930924910E+02  0.10570000000E+00 0.  1.
         13    1    3    3    0    0  0.12203221952E+02  0.28063510745E+02 -0.59237809782E+02  0.66675396824E+02  0.10570000000E+00 0. -1.
<mgrwt>
<rscale>  0 0.92339080E+02</rscale>
<asrwt>0</asrwt>
<pdfrwt beam="2">  1        3 0.11077027E-01 0.92339080E+02</pdfrwt>
<pdfrwt beam="1">  1       -3 0.45547144E-02 0.92339080E+02</pdfrwt>
<totfact> 0.33378846E+04</totfact>
</mgrwt>
</event>
<event>
 5    1  0.1401471E+000  0.9294124E+02  0.7818608E-02  0.1295881E+00
         -3   -1    0    0    0  501 -0.00000000000E+00  0.00000000000E+00  0.20637552364E+03  0.20637554459E+03  0.93000000000E-01 0.  1.
          3   -1    0    0  501    0  0.00000000000E+00 -0.00000000000E+00 -0.10463796944E+02  0.10464210218E+02  0.93000000000E-01 0. -1.
         23    2    1    2    0    0  0.00000000000E+00  0.00000000000E+00  0.19591172669E+03  0.21683975481E+03  0.92941242784E+02 0.  0.
        -13    1    3    3    0    0  0.27172990557E+02 -0.32751843925E+02  0.14150729152E+03  0.14776799187E+03  0.10570000000E+00 0. -1.
         13    1    3    3    0    0 -0.27172990557E+02  0.32751843925E+02  0.54404435169E+02  0.69071762934E+02  0.10570000000E+00 0.  1.
<mgrwt>
<rscale>  0 0.92941243E+02</rscale>
<asrwt>0</asrwt>
<pdfrwt beam="2">  1        3 0.16098484E-02 0.92941243E+02</pdfrwt>
<pdfrwt beam="1">  1       -3 0.31750113E-01 0.92941243E+02</pdfrwt>
<totfact> 0.26253096E+04</totfact>
</mgrwt>
</event>
<event>
 5    1  0.1401471E+000  0.9125883E+02  0.7818608E-02  0.1299832E+00
         -3   -1    0    0    0  501 -0.00000000000E+00  0.00000000000E+00  0.32638043999E+02  0.32638176498E+02  0.93000000000E-01 0.  1.
          3   -1    0    0  501    0  0.00000000000E+00 -0.00000000000E+00 -0.63791626307E+02  0.63791694098E+02  0.93000000000E-01 0. -1.
         23    2    1    2    0    0  0.00000000000E+00  0.00000000000E+00 -0.31153582308E+02  0.96429870596E+02  0.91258831093E+02 0.  0.
        -13    1    3    3    0    0  0.21664829377E+02 -0.40157460294E+02 -0.15803275872E+02  0.48288105678E+02  0.10570000000E+00 0. -1.
         13    1    3    3    0    0 -0.21664829377E+02  0.40157460294E+02 -0.15350306436E+02  0.48141764918E+02  0.10570000000E+00 0.  1.
<mgrwt>
<rscale>  0 0.91258831E+02</rscale>
<asrwt>0</asrwt>
<pdfrwt beam="2">  1        3 0.98141118E-02 0.91258831E+02</pdfrwt>
<pdfrwt beam="1">  1       -3 0.50212529E-02 0.91258831E+02</pdfrwt>
<totfact> 0.34852436E+04</totfact>
</mgrwt>
</event>
<event>
 5    1  0.1401471E+000  0.9333393E+02  0.7818608E-02  0.1294973E+00
         -3   -1    0    0    0  501 -0.00000000000E+00  0.00000000000E+00  0.38367690253E+02  0.38367802965E+02  0.93000000000E-01 0.  1.
          3   -1    0    0  501    0  0.00000000000E+00 -0.00000000000E+00 -0.56761210540E+02  0.56761286728E+02  0.93000000000E-01 0. -1.
         23    2    1    2    0    0  0.00000000000E+00  0.00000000000E+00 -0.18393520287E+02  0.95129089692E+02  0.93333928006E+02 0.  0.
        -13    1    3    3    0    0  0.19414713915E+02  0.19520077707E+02  0.29208608820E+02  0.40138741283E+02  0.10570000000E+00 0.  1.
         13    1    3    3    0    0 -0.19414713915E+02 -0.19520077707E+02 -0.47602129107E+02  0.54990348409E+02  0.10570000000E+00 0. -1.
<mgrwt>
<rscale>  0 0.93333928E+02</rscale>
<asrwt>0</asrwt>
<pdfrwt beam="2">  1        3 0.87325084E-02 0.93333928E+02</pdfrwt>
<pdfrwt beam="1">  1       -3 0.59027361E-02 0.93333928E+02</pdfrwt>
<totfact> 0.32869588E+04</totfact>
</mgrwt>
</event>
<event>
 5    1  0.1401471E+000  0.9156742E+02  0.7818608E-02  0.1299100E+00
          3   -1    0    0  501    0  0.00000000000E+00  0.00000000000E+00  0.22813049369E+02  0.22813238931E+02  0.93000000000E-01 0. -1.
         -3   -1    0    0    0  501 -0.00000000000E+00 -0.00000000000E+00 -0.91883131361E+02  0.91883178426E+02  0.93000000000E-01 0.  1.
         23    2    1    2    0    0  0.00000000000E+00  0.00000000000E+00 -0.69070081992E+02  0.11469641736E+03  0.91567417394E+02 0.  0.
        -13    1    3    3    0    0 -0.35020601851E+02 -0.50236492342E+00  0.23991989581E+01  0.35106441754E+02  0.10570000000E+00 0. -1.
         13    1    3    3    0    0  0.35020601851E+02  0.50236492342E+00 -0.71469280950E+02  0.79589975603E+02  0.10570000000E+00 0.  1.
<mgrwt>
<rscale>  0 0.91567417E+02</rscale>
<asrwt>0</asrwt>
<pdfrwt beam="1">  1        3 0.35097182E-02 0.91567417E+02</pdfrwt>
<pdfrwt beam="2">  1       -3 0.14135884E-01 0.91567417E+02</pdfrwt>
<totfact> 0.33225829E+04</totfact>
</mgrwt>
</event>
<event>
 5    1  0.1401471E+000  0.9459450E+02  0.7818608E-02  0.1292092E+00
         -3   -1    0    0    0  501 -0.00000000000E+00  0.00000000000E+00  0.13976509766E+03  0.13976512860E+03  0.93000000000E-01 0.  1.
          3   -1    0    0  501    0  0.00000000000E+00 -0.00000000000E+00 -0.16005471394E+02  0.16005741580E+02  0.93000000000E-01 0. -1.
         23    2    1    2    0    0  0.00000000000E+00  0.00000000000E+00  0.12375962626E+03  0.15577087018E+03  0.94594497214E+02 0.  0.
        -13    1    3    3    0    0  0.30394084900E+02  0.31483147655E+02  0.91430545519E+02  0.10136342935E+03  0.10570000000E+00 0.  1.
         13    1    3    3    0    0 -0.30394084900E+02 -0.31483147655E+02  0.32329080743E+02  0.54407440827E+02  0.10570000000E+00 0. -1.
<mgrwt>
<rscale>  0 0.94594497E+02</rscale>
<asrwt>0</asrwt>
<pdfrwt beam="2">  1        3 0.24624034E-02 0.94594497E+02</pdfrwt>
<pdfrwt beam="1">  1       -3 0.21502346E-01 0.94594497E+02</pdfrwt>
<totfact> 0.28013439E+04</totfact>
</mgrwt>
</event>
<event>
 5    1  0.1401471E+000  0.9110236E+02  0.7818608E-02  0.1300204E+00
          3   -1    0    0  501    0  0.00000000000E+00  0.00000000000E+00  0.89028965942E+02  0.89029014516E+02  0.93000000000E-01 0. -1.
         -3   -1    0    0    0  501 -0.00000000000E+00 -0.00000000000E+00 -0.23305860975E+02  0.23306046528E+02  0.93000000000E-01 0.  1.
         23    2    1    2    0    0  0.00000000000E+00  0.00000000000E+00  0.65723104967E+02  0.11233506104E+03  0.91102356793E+02 0.  0.
        -13    1    3    3    0    0  0.32380630201E+02 -0.31656663857E+02  0.38933577393E+02  0.59720048559E+02  0.10570000000E+00 0. -1.
         13    1    3    3    0    0 -0.32380630201E+02  0.31656663857E+02  0.26789527574E+02  0.52615012485E+02  0.10570000000E+00 0.  1.
<mgrwt>
<rscale>  0 0.91102357E+02</rscale>
<asrwt>0</asrwt>
<pdfrwt beam="1">  1        3 0.13696782E-01 0.91102357E+02</pdfrwt>
<pdfrwt beam="2">  1       -3 0.35855351E-02 0.91102357E+02</pdfrwt>
<totfact> 0.33854200E+04</totfact>
</mgrwt>
</event>
<event>
 5    1  0.1401471E+000  0.8821444E+02  0.7818608E-02  0.1307234E+00
          3   -1    0    0  501    0  0.00000000000E+00  0.00000000000E+00  0.23933851641E+02  0.23934032326E+02  0.93000000000E-01 0. -1.
         -3   -1    0    0    0  501 -0.00000000000E+00 -0.00000000000E+00 -0.81283812272E+02  0.81283865474E+02  0.93000000000E-01 0.  1.
         23    2    1    2    0    0  0.00000000000E+00  0.00000000000E+00 -0.57349960631E+02  0.10521789780E+03  0.88214443449E+02 0.  0.
        -13    1    3    3    0    0  0.15584127162E+02  0.32776534422E+02  0.12216986376E+01  0.36313495400E+02  0.10570000000E+00 0. -1.
         13    1    3    3    0    0 -0.15584127162E+02 -0.32776534422E+02 -0.58571659269E+02  0.68904402400E+02  0.10570000000E+00 0.  1.
<mgrwt>
<rscale>  0 0.88214443E+02</rscale>
<asrwt>0</asrwt>
<pdfrwt beam="1">  1        3 0.36821491E-02 0.88214443E+02</pdfrwt>
<pdfrwt beam="2">  1       -3 0.12505220E-01 0.88214443E+02</pdfrwt>
<totfact> 0.37501822E+04</totfact>
</mgrwt>
</event>
<event>
 5    1  0.1401471E+000  0.9223334E+02  0.7818608E-02  0.1297532E+00
          3   -1    0    0  501    0  0.00000000000E+00  0.00000000000E+00  0.19266006119E+03  0.19266008364E+03  0.93000000000E-01 0. -1.
         -3   -1    0    0    0  501 -0.00000000000E+00 -0.00000000000E+00 -0.11038639294E+02  0.11039031047E+02  0.93000000000E-01 0.  1.
         23    2    1    2    0    0  0.00000000000E+00  0.00000000000E+00  0.18162142190E+03  0.20369911469E+03  0.92233336877E+02 0.  0.
        -13    1    3    3    0    0  0.24174193021E+02  0.35403780408E+02  0.12835012705E+03  0.13532030728E+03  0.10570000000E+00 0.  1.
         13    1    3    3    0    0 -0.24174193021E+02 -0.35403780408E+02  0.53271294850E+02  0.68378807410E+02  0.10570000000E+00 0. -1.
<mgrwt>
<rscale>  0 0.92233337E+02</rscale>
<asrwt>0</asrwt>
<pdfrwt beam="1">  1        3 0.29640040E-01 0.92233337E+02</pdfrwt>
<pdfrwt beam="2">  1       -3 0.16982841E-02 0.92233337E+02</pdfrwt>
<totfact> 0.27440459E+04</totfact>
</mgrwt>
</event>
<event>
 5    1  0.1401471E+000  0.8159116E+02  0.7818608E-02  0.1324596E+00
         -3   -1    0    0    0  501 -0.00000000000E+00  0.00000000000E+00  0.14945903081E+02  0.14946192422E+02  0.93000000000E-01 0.  1.
          3   -1    0    0  501    0  0.00000000000E+00 -0.00000000000E+00 -0.11135217287E+03  0.11135221170E+03  0.93000000000E-01 0. -1.
         23    2    1    2    0    0  0.00000000000E+00  0.00000000000E+00 -0.96406269785E+02  0.12629840412E+03  0.81591163924E+02 0.  0.
        -13    1    3    3    0    0  0.42917012981E+01 -0.33822188316E+02 -0.82882194971E+02  0.89620469415E+02  0.10570000000E+00 0. -1.
         13    1    3    3    0    0 -0.42917012981E+01  0.33822188316E+02 -0.13524074814E+02  0.36677934710E+02  0.10570000000E+00 0.  1.
<mgrwt>
<rscale>  0 0.81591164E+02</rscale>
<asrwt>0</asrwt>
<pdfrwt beam="2">  1        3 0.17131128E-01 0.81591164E+02</pdfrwt>
<pdfrwt beam="1">  1       -3 0.22993950E-02 0.81591164E+02</pdfrwt>
<totfact> 0.44264848E+04</totfact>
</mgrwt>
</event>
<event>
 5    1  0.1401471E+000  0.1202917E+03  0.7818608E-02  0.1242617E+00
          3   -1    0    0  501    0  0.00000000000E+00  0.00000000000E+00  0.18046536128E+03  0.18046538524E+03  0.93000000000E-01 0. -1.
         -3   -1    0    0    0  501 -0.00000000000E+00 -0.00000000000E+00 -0.20045405821E+02  0.20045621555E+02  0.93000000000E-01 0.  1.
         23    2    1    2    0    0  0.00000000000E+00  0.00000000000E+00  0.16041995546E+03  0.20051100680E+03  0.12029173595E+03 0.  0.
        -13    1    3    3    0    0  0.44291501275E+02  0.40090840707E+02  0.68601353242E+02  0.90967958276E+02  0.10570000000E+00 0.  1.
         13    1    3    3    0    0 -0.44291501275E+02 -0.40090840707E+02  0.91818602218E+02  0.10954304852E+03  0.10570000000E+00 0. -1.
<mgrwt>
<rscale>  0 0.12029174E+03</rscale>
<asrwt>0</asrwt>
<pdfrwt beam="1">  1        3 0.27763919E-01 0.12029174E+03</pdfrwt>
<pdfrwt beam="2">  1       -3 0.30839272E-02 0.12029174E+03</pdfrwt>
<totfact> 0.13306431E+04</totfact>
</mgrwt>
</event>
<event>
 5    1  0.1401471E+000  0.9147117E+02  0.7818608E-02  0.1299328E+00
         -3   -1    0    0    0  501 -0.00000000000E+00  0.00000000000E+00  0.50616696851E+02  0.50616782288E+02  0.93000000000E-01 0.  1.
          3   -1    0    0  501    0  0.00000000000E+00 -0.00000000000E+00 -0.41325004296E+02  0.41325108942E+02  0.93000000000E-01 0. -1.
         23    2    1    2    0    0  0.00000000000E+00  0.00000000000E+00  0.92916925558E+01  0.91941891229E+02  0.91471174761E+02 0.  0.
        -13    1    3    3    0    0  0.10564734644E+02 -0.44250058813E+02  0.93659096166E+01  0.46447957527E+02  0.10570000000E+00 0.  1.
         13    1    3    3    0    0 -0.10564734644E+02  0.44250058813E+02 -0.74217060856E-01  0.45493933702E+02  0.10570000000E+00 0. -1.
<mgrwt>
<rscale>  0 0.91471175E+02</rscale>
<asrwt>0</asrwt>
<pdfrwt beam="2">  1        3 0.63577076E-02 0.91471175E+02</pdfrwt>
<pdfrwt beam="1">  1       -3 0.77871988E-02 0.91471175E+02</pdfrwt>
<totfact> 0.34971316E+04</totfact>
</mgrwt>
</event>
<event>
 5    1  0.1401471E+000  0.9151526E+02  0.7818608E-02  0.1299223E+00
          3   -1    0    0  501    0  0.00000000000E+00  0.00000000000E+00  0.21985213563E+03  0.21985215530E+03  0.93000000000E-01 0. -1.
         -3   -1    0    0    0  501 -0.00000000000E+00 -0.00000000000E+00 -0.95232485211E+01  0.95237026095E+01  0.93000000000E-01 0.  1.
         23    2    1    2    0    0  0.00000000000E+00  0.00000000000E+00  0.21032888711E+03  0.22937585791E+03  0.91515263422E+02 0.  0.
        -13    1    3    3    0    0 -0.12714463022E+02  0.41532382150E+02  0.69089957490E+02  0.81609005235E+02  0.10570000000E+00 0. -1.
         13    1    3    3    0    0  0.12714463022E+02 -0.41532382150E+02  0.14123892962E+03  0.14776685267E+03  0.10570000000E+00 0.  1.
<mgrwt>
<rscale>  0 0.91515263E+02</rscale>
<asrwt>0</asrwt>
<pdfrwt beam="1">  1        3 0.33823443E-01 0.91515263E+02</pdfrwt>
<pdfrwt beam="2">  1       -3 0.14651516E-02 0.91515263E+02</pdfrwt>
<totfact> 0.26778879E+04</totfact>
</mgrwt>
</event>
<event>
 5    1  0.1401471E+000  0.9333589E+02  0.7818608E-02  0.1294969E+00
          3   -1    0    0  501    0  0.00000000000E+00  0.00000000000E+00  0.22040562654E+02  0.22040758860E+02  0.93000000000E-01 0. -1.
         -3   -1    0    0    0  501 -0.00000000000E+00 -0.00000000000E+00 -0.98812482147E+02  0.98812525912E+02  0.93000000000E-01 0.  1.
         23    2    1    2    0    0  0.00000000000E+00  0.00000000000E+00 -0.76771919493E+02  0.12085328477E+03  0.93335892439E+02 0.  0.
        -13    1    3    3    0    0  0.32029439416E+02  0.29549624785E+02 -0.16765133088E+02  0.46692035447E+02  0.10570000000E+00 0. -1.
         13    1    3    3    0    0 -0.32029439416E+02 -0.29549624785E+02 -0.60006786405E+02  0.74161249325E+02  0.10570000000E+00 0.  1.
<mgrwt>
<rscale>  0 0.93335892E+02</rscale>
<asrwt>0</asrwt>
<pdfrwt beam="1">  1        3 0.33908743E-02 0.93335892E+02</pdfrwt>
<pdfrwt beam="2">  1       -3 0.15201939E-01 0.93335892E+02</pdfrwt>
<totfact> 0.31140101E+04</totfact>
</mgrwt>
</event>
<event>
 5    1  0.1401471E+000  0.9043421E+02  0.7818608E-02  0.1301804E+00
         -3   -1    0    0    0  501 -0.00000000000E+00  0.00000000000E+00  0.75786418780E+02  0.75786475841E+02  0.93000000000E-01 0.  1.
          3   -1    0    0  501    0  0.00000000000E+00 -0.00000000000E+00 -0.26978123913E+02  0.26978284209E+02  0.93000000000E-01 0. -1.
         23    2    1    2    0    0  0.00000000000E+00  0.00000000000E+00  0.48808294867E+02  0.10276476005E+03  0.90434209569E+02 0.  0.
        -13    1    3    3    0    0 -0.35495811273E+02 -0.23537160287E+02  0.41661116703E+02  0.59578606477E+02  0.10570000000E+00 0.  1.
         13    1    3    3    0    0  0.35495811273E+02  0.23537160287E+02  0.71471781641E+01  0.43186153574E+02  0.10570000000E+00 0. -1.
<mgrwt>
<rscale>  0 0.90434210E+02</rscale>
<asrwt>0</asrwt>
<pdfrwt beam="2">  1        3 0.41504973E-02 0.90434210E+02</pdfrwt>
<pdfrwt beam="1">  1       -3 0.11659466E-01 0.90434210E+02</pdfrwt>
<totfact> 0.35243266E+04</totfact>
</mgrwt>
</event>
<event>
 5    1  0.1401471E+000  0.9114744E+02  0.7818608E-02  0.1300097E+00
          3   -1    0    0  501    0  0.00000000000E+00  0.00000000000E+00  0.31504059795E+02  0.31504197063E+02  0.93000000000E-01 0. -1.
         -3   -1    0    0    0  501 -0.00000000000E+00 -0.00000000000E+00 -0.65926546928E+02  0.65926612524E+02  0.93000000000E-01 0.  1.
         23    2    1    2    0    0  0.00000000000E+00  0.00000000000E+00 -0.34422487133E+02  0.97430809587E+02  0.91147435709E+02 0.  0.
        -13    1    3    3    0    0  0.10336004705E+02  0.27392010996E+02 -0.54544484662E+02  0.61905308651E+02  0.10570000000E+00 0.  1.
         13    1    3    3    0    0 -0.10336004705E+02 -0.27392010996E+02  0.20121997529E+02  0.35525500935E+02  0.10570000000E+00 0. -1.
<mgrwt>
<rscale>  0 0.91147436E+02</rscale>
<asrwt>0</asrwt>
<pdfrwt beam="1">  1        3 0.48467941E-02 0.91147436E+02</pdfrwt>
<pdfrwt beam="2">  1       -3 0.10142561E-01 0.91147436E+02</pdfrwt>
<totfact> 0.34894485E+04</totfact>
</mgrwt>
</event>
<event>
 5    1  0.1401471E+000  0.9716044E+02  0.7818608E-02  0.1286383E+00
          3   -1    0    0  501    0  0.00000000000E+00  0.00000000000E+00  0.48321542428E+02  0.48321631923E+02  0.93000000000E-01 0. -1.
         -3   -1    0    0    0  501 -0.00000000000E+00 -0.00000000000E+00 -0.48840101783E+02  0.48840190327E+02  0.93000000000E-01 0.  1.
         23    2    1    2    0    0  0.00000000000E+00  0.00000000000E+00 -0.51855935475E+00  0.97161822250E+02  0.97160438446E+02 0.  0.
        -13    1    3    3    0    0 -0.22658548993E+02  0.68531347968E+01  0.42163620878E+02  0.48354497175E+02  0.10570000000E+00 0. -1.
         13    1    3    3    0    0  0.22658548993E+02 -0.68531347968E+01 -0.42682180233E+02  0.48807325075E+02  0.10570000000E+00 0.  1.
<mgrwt>
<rscale>  0 0.97160438E+02</rscale>
<asrwt>0</asrwt>
<pdfrwt beam="1">  1        3 0.74340972E-02 0.97160438E+02</pdfrwt>
<pdfrwt beam="2">  1       -3 0.75138755E-02 0.97160438E+02</pdfrwt>
<totfact> 0.29313811E+04</totfact>
</mgrwt>
</event>
<event>
 5    1  0.1401471E+000  0.9075752E+02  0.7818608E-02  0.1301028E+00
         -3   -1    0    0    0  501 -0.00000000000E+00  0.00000000000E+00  0.46723997190E+02  0.46724089744E+02  0.93000000000E-01 0.  1.
          3   -1    0    0  501    0  0.00000000000E+00 -0.00000000000E+00 -0.44072065733E+02  0.44072163856E+02  0.93000000000E-01 0. -1.
         23    2    1    2    0    0  0.00000000000E+00  0.00000000000E+00  0.26519314572E+01  0.90796253600E+02  0.90757517195E+02 0.  0.
        -13    1    3    3    0    0  0.33840455478E+02  0.30228930560E+02  0.18320369718E+01  0.45412907875E+02  0.10570000000E+00 0.  1.
         13    1    3    3    0    0 -0.33840455478E+02 -0.30228930560E+02  0.81989448538E+00  0.45383345725E+02  0.10570000000E+00 0. -1.
<mgrwt>
<rscale>  0 0.90757517E+02</rscale>
<asrwt>0</asrwt>
<pdfrwt beam="2">  1        3 0.67803325E-02 0.90757517E+02</pdfrwt>
<pdfrwt beam="1">  1       -3 0.71883219E-02 0.90757517E+02</pdfrwt>
<totfact> 0.35814638E+04</totfact>
</mgrwt>
</event>
<event>
 5    1  0.1401471E+000  0.7420132E+02  0.7818608E-02  0.1346362E+00
          3   -1    0    0  501    0  0.00000000000E+00  0.00000000000E+00  0.33589651455E+02  0.33589780200E+02  0.93000000000E-01 0. -1.
         -3   -1    0    0    0  501 -0.00000000000E+00 -0.00000000000E+00 -0.40978400621E+02  0.40978506152E+02  0.93000000000E-01 0.  1.
         23    2    1    2    0    0  0.00000000000E+00  0.00000000000E+00 -0.73887491659E+01  0.74568286352E+02  0.74201318824E+02 0.  0.
        -13    1    3    3    0    0  0.14931236257E+02 -0.11064170731E+02  0.28575021653E+02  0.34086664915E+02  0.10570000000E+00 0. -1.
         13    1    3    3    0    0 -0.14931236257E+02  0.11064170731E+02 -0.35963770818E+02  0.40481621436E+02  0.10570000000E+00 0.  1.
<mgrwt>
<rscale>  0 0.74201319E+02</rscale>
<asrwt>0</asrwt>
<pdfrwt beam="1">  1        3 0.51676567E-02 0.74201319E+02</pdfrwt>
<pdfrwt beam="2">  1       -3 0.63043874E-02 0.74201319E+02</pdfrwt>
<totfact> 0.63876098E+04</totfact>
</mgrwt>
</event>
<event>
 5    1  0.1401471E+000  0.9162900E+02  0.7818608E-02  0.1298954E+00
         -3   -1    0    0    0  501 -0.00000000000E+00  0.00000000000E+00  0.11491934501E+02  0.11492310803E+02  0.93000000000E-01 0. -1.
          3   -1    0    0  501    0  0.00000000000E+00 -0.00000000000E+00 -0.18264371587E+03  0.18264373955E+03  0.93000000000E-01 0.  1.
         23    2    1    2    0    0  0.00000000000E+00  0.00000000000E+00 -0.17115178137E+03  0.19413605035E+03  0.91629000758E+02 0.  0.
        -13    1    3    3    0    0  0.41803738426E+02 -0.17267079123E+02 -0.10103712188E+03  0.11069876123E+03  0.10570000000E+00 0.  1.
         13    1    3    3    0    0 -0.41803738426E+02  0.17267079123E+02 -0.70114659493E+02  0.83437289123E+02  0.10570000000E+00 0. -1.
<mgrwt>
<rscale>  0 0.91629001E+02</rscale>
<asrwt>0</asrwt>
<pdfrwt beam="2">  1        3 0.28099062E-01 0.91629001E+02</pdfrwt>
<pdfrwt beam="1">  1       -3 0.17680208E-02 0.91629001E+02</pdfrwt>
<totfact> 0.28421888E+04</totfact>
</mgrwt>
</event>
<event>
 5    1  0.1401471E+000  0.9111154E+02  0.7818608E-02  0.1300182E+00
         -3   -1    0    0    0  501 -0.00000000000E+00  0.00000000000E+00  0.16143105410E+02  0.16143373294E+02  0.93000000000E-01 0.  1.
          3   -1    0    0  501    0  0.00000000000E+00 -0.00000000000E+00 -0.12855683443E+03  0.12855686806E+03  0.93000000000E-01 0. -1.
         23    2    1    2    0    0  0.00000000000E+00  0.00000000000E+00 -0.11241372902E+03  0.14470024136E+03  0.91111543604E+02 0.  0.
        -13    1    3    3    0    0 -0.12221245513E+02 -0.42063142492E+02 -0.76084355661E+02  0.87792409393E+02  0.10570000000E+00 0. -1.
         13    1    3    3    0    0  0.12221245513E+02  0.42063142492E+02 -0.36329373354E+02  0.56907831965E+02  0.10570000000E+00 0.  1.
<mgrwt>
<rscale>  0 0.91111544E+02</rscale>
<asrwt>0</asrwt>
<pdfrwt beam="2">  1        3 0.19777997E-01 0.91111544E+02</pdfrwt>
<pdfrwt beam="1">  1       -3 0.24835780E-02 0.91111544E+02</pdfrwt>
<totfact> 0.31695940E+04</totfact>
</mgrwt>
</event>
<event>
 5    1  0.1401471E+000  0.9282888E+02  0.7818608E-02  0.1296142E+00
          3   -1    0    0  501    0  0.00000000000E+00  0.00000000000E+00  0.34742903010E+02  0.34743027481E+02  0.93000000000E-01 0. -1.
         -3   -1    0    0    0  501 -0.00000000000E+00 -0.00000000000E+00 -0.62006650071E+02  0.62006719813E+02  0.93000000000E-01 0.  1.
         23    2    1    2    0    0  0.00000000000E+00  0.00000000000E+00 -0.27263747061E+02  0.96749747294E+02  0.92828883962E+02 0.  0.
        -13    1    3    3    0    0  0.42127119196E+02  0.17200229769E+02 -0.23169752253E+02  0.51062615168E+02  0.10570000000E+00 0.  1.
         13    1    3    3    0    0 -0.42127119196E+02 -0.17200229769E+02 -0.40939948089E+01  0.45687132126E+02  0.10570000000E+00 0. -1.
<mgrwt>
<rscale>  0 0.92828884E+02</rscale>
<asrwt>0</asrwt>
<pdfrwt beam="1">  1        3 0.53450769E-02 0.92828884E+02</pdfrwt>
<pdfrwt beam="2">  1       -3 0.95394996E-02 0.92828884E+02</pdfrwt>
<totfact> 0.33244735E+04</totfact>
</mgrwt>
</event>
<event>
 5    1  0.1401471E+000  0.8998049E+02  0.7818608E-02  0.1302899E+00
          3   -1    0    0  501    0  0.00000000000E+00  0.00000000000E+00  0.68696994847E+02  0.68697057798E+02  0.93000000000E-01 0. -1.
         -3   -1    0    0    0  501 -0.00000000000E+00 -0.00000000000E+00 -0.29464346364E+02  0.29464493134E+02  0.93000000000E-01 0.  1.
         23    2    1    2    0    0  0.00000000000E+00  0.00000000000E+00  0.39232648484E+02  0.98161550932E+02  0.89980494410E+02 0.  0.
        -13    1    3    3    0    0  0.18414125499E+02 -0.15975432064E+02 -0.21634556220E+02  0.32593858975E+02  0.10570000000E+00 0.  1.
         13    1    3    3    0    0 -0.18414125499E+02  0.15975432064E+02  0.60867204704E+02  0.65567691957E+02  0.10570000000E+00 0. -1.
<mgrwt>
<rscale>  0 0.89980494E+02</rscale>
<asrwt>0</asrwt>
<pdfrwt beam="1">  1        3 0.10568784E-01 0.89980494E+02</pdfrwt>
<pdfrwt beam="2">  1       -3 0.45329926E-02 0.89980494E+02</pdfrwt>
<totfact> 0.36079497E+04</totfact>
</mgrwt>
</event>
<event>
 5    1  0.1401471E+000  0.9098155E+02  0.7818608E-02  0.1300492E+00
          3   -1    0    0  501    0  0.00000000000E+00  0.00000000000E+00  0.94573571435E+02  0.94573617162E+02  0.93000000000E-01 0. -1.
         -3   -1    0    0    0  501 -0.00000000000E+00 -0.00000000000E+00 -0.21881338344E+02  0.21881535977E+02  0.93000000000E-01 0.  1.
         23    2    1    2    0    0  0.00000000000E+00  0.00000000000E+00  0.72692233091E+02  0.11645515314E+03  0.90981547255E+02 0.  0.
        -13    1    3    3    0    0  0.44750965358E+02 -0.61759595074E+00  0.25918429504E+02  0.51718531357E+02  0.10570000000E+00 0.  1.
         13    1    3    3    0    0 -0.44750965358E+02  0.61759595074E+00  0.46773803588E+02  0.64736621783E+02  0.10570000000E+00 0. -1.
<mgrwt>
<rscale>  0 0.90981547E+02</rscale>
<asrwt>0</asrwt>
<pdfrwt beam="1">  1        3 0.14549799E-01 0.90981547E+02</pdfrwt>
<pdfrwt beam="2">  1       -3 0.33663785E-02 0.90981547E+02</pdfrwt>
<totfact> 0.33686291E+04</totfact>
</mgrwt>
</event>
<event>
 5    1  0.1401471E+000  0.7705459E+02  0.7818608E-02  0.1337624E+00
          3   -1    0    0  501    0  0.00000000000E+00  0.00000000000E+00  0.99607297526E+02  0.99607340941E+02  0.93000000000E-01 0. -1.
         -3   -1    0    0    0  501 -0.00000000000E+00 -0.00000000000E+00 -0.14901851891E+02  0.14902142087E+02  0.93000000000E-01 0.  1.
         23    2    1    2    0    0  0.00000000000E+00  0.00000000000E+00  0.84705445635E+02  0.11450948303E+03  0.77054585737E+02 0.  0.
        -13    1    3    3    0    0  0.21040076845E+02 -0.28021533427E+02  0.18554513678E+02  0.39650628237E+02  0.10570000000E+00 0.  1.
         13    1    3    3    0    0 -0.21040076845E+02  0.28021533427E+02  0.66150931958E+02  0.74858854791E+02  0.10570000000E+00 0. -1.
<mgrwt>
<rscale>  0 0.77054586E+02</rscale>
<asrwt>0</asrwt>
<pdfrwt beam="1">  1        3 0.15324225E-01 0.77054586E+02</pdfrwt>
<pdfrwt beam="2">  1       -3 0.22926183E-02 0.77054586E+02</pdfrwt>
<totfact> 0.52856980E+04</totfact>
</mgrwt>
</event>
<event>
 5    1  0.1401471E+000  0.8992310E+02  0.7818608E-02  0.1303038E+00
          3   -1    0    0  501    0  0.00000000000E+00  0.00000000000E+00  0.10735275126E+02  0.10735677950E+02  0.93000000000E-01 0. -1.
         -3   -1    0    0    0  501 -0.00000000000E+00 -0.00000000000E+00 -0.18830432131E+03  0.18830434428E+03  0.93000000000E-01 0.  1.
         23    2    1    2    0    0  0.00000000000E+00  0.00000000000E+00 -0.17756904618E+03  0.19904002223E+03  0.89923102064E+02 0.  0.
        -13    1    3    3    0    0  0.30326408484E+02  0.92545677980E+01 -0.15934426426E+03  0.16246828552E+03  0.10570000000E+00 0.  1.
         13    1    3    3    0    0 -0.30326408484E+02 -0.92545677980E+01 -0.18224781927E+02  0.36571736703E+02  0.10570000000E+00 0. -1.
<mgrwt>
<rscale>  0 0.89923102E+02</rscale>
<asrwt>0</asrwt>
<pdfrwt beam="1">  1        3 0.16516137E-02 0.89923102E+02</pdfrwt>
<pdfrwt beam="2">  1       -3 0.28969926E-01 0.89923102E+02</pdfrwt>
<totfact> 0.29631414E+04</totfact>
</mgrwt>
</event>
<event>
 5    1  0.1401471E+000  0.1162082E+03  0.7818608E-02  0.1249487E+00
          3   -1    0    0  501    0  0.00000000000E+00  0.00000000000E+00  0.46193753297E+02  0.46193846913E+02  0.93000000000E-01 0. -1.
         -3   -1    0    0    0  501 -0.00000000000E+00 -0.00000000000E+00 -0.73085181727E+02  0.73085240897E+02  0.93000000000E-01 0.  1.
         23    2    1    2    0    0  0.00000000000E+00  0.00000000000E+00 -0.26891428430E+02  0.11927908781E+03  0.11620822633E+03 0.  0.
        -13    1    3    3    0    0 -0.27415800226E+02 -0.50202928128E+02 -0.23919112816E+02  0.62000767939E+02  0.10570000000E+00 0.  1.
         13    1    3    3    0    0  0.27415800226E+02  0.50202928128E+02 -0.29723156140E+01  0.57278319871E+02  0.10570000000E+00 0. -1.
<mgrwt>
<rscale>  0 0.11620823E+03</rscale>
<asrwt>0</asrwt>
<pdfrwt beam="1">  1        3 0.71067430E-02 0.11620823E+03</pdfrwt>
<pdfrwt beam="2">  1       -3 0.11243886E-01 0.11620823E+03</pdfrwt>
<totfact> 0.17053095E+04</totfact>
</mgrwt>
</event>
<event>
 5    1  0.1401471E+000  0.8948156E+02  0.7818608E-02  0.1304112E+00
          3   -1    0    0  501    0  0.00000000000E+00  0.00000000000E+00  0.31943611654E+02  0.31943747032E+02  0.93000000000E-01 0. -1.
         -3   -1    0    0    0  501 -0.00000000000E+00 -0.00000000000E+00 -0.62664412931E+02  0.62664481941E+02  0.93000000000E-01 0.  1.
         23    2    1    2    0    0  0.00000000000E+00  0.00000000000E+00 -0.30720801277E+02  0.94608228974E+02  0.89481558762E+02 0.  0.
        -13    1    3    3    0    0 -0.23715587910E+01  0.41779739029E+02 -0.32096226709E+02  0.52738504206E+02  0.10570000000E+00 0.  1.
         13    1    3    3    0    0  0.23715587910E+01 -0.41779739029E+02  0.13754254321E+01  0.41869724767E+02  0.10570000000E+00 0. -1.
<mgrwt>
<rscale>  0 0.89481559E+02</rscale>
<asrwt>0</asrwt>
<pdfrwt beam="1">  1        3 0.49144175E-02 0.89481559E+02</pdfrwt>
<pdfrwt beam="2">  1       -3 0.96406946E-02 0.89481559E+02</pdfrwt>
<totfact> 0.36911631E+04</totfact>
</mgrwt>
</event>
<event>
 5    1  0.1401471E+000  0.9115500E+02  0.7818608E-02  0.1300079E+00
         -3   -1    0    0    0  501 -0.00000000000E+00  0.00000000000E+00  0.21722077187E+03  0.21722079178E+03  0.93000000000E-01 0.  1.
          3   -1    0    0  501    0  0.00000000000E+00 -0.00000000000E+00 -0.95628744789E+01  0.95633266858E+01  0.93000000000E-01 0. -1.
         23    2    1    2    0    0  0.00000000000E+00  0.00000000000E+00  0.20765789739E+03  0.22678411847E+03  0.91155000075E+02 0.  0.
        -13    1    3    3    0    0  0.24531695945E+02  0.27838984158E+02  0.16967523890E+03  0.17368509151E+03  0.10570000000E+00 0.  1.
         13    1    3    3    0    0 -0.24531695945E+02 -0.27838984158E+02  0.37982658494E+02  0.53099026956E+02  0.10570000000E+00 0. -1.
<mgrwt>
<rscale>  0 0.91155000E+02</rscale>
<asrwt>0</asrwt>
<pdfrwt beam="2">  1        3 0.14712479E-02 0.91155000E+02</pdfrwt>
<pdfrwt beam="1">  1       -3 0.33418615E-01 0.91155000E+02</pdfrwt>
<totfact> 0.27185363E+04</totfact>
</mgrwt>
</event>
<event>
 5    1  0.1401471E+000  0.1023160E+03  0.7818608E-02  0.1275500E+00
         -3   -1    0    0    0  501 -0.00000000000E+00  0.00000000000E+00  0.14518584425E+03  0.14518587404E+03  0.93000000000E-01 0.  1.
          3   -1    0    0  501    0  0.00000000000E+00 -0.00000000000E+00 -0.18025991650E+02  0.18026231552E+02  0.93000000000E-01 0. -1.
         23    2    1    2    0    0  0.00000000000E+00  0.00000000000E+00  0.12715985260E+03  0.16321210559E+03  0.10231599727E+03 0.  0.
        -13    1    3    3    0    0  0.74319783017E+01  0.31068057171E+02 -0.16073550043E+00  0.31945195041E+02  0.10570000000E+00 0. -1.
         13    1    3    3    0    0 -0.74319783017E+01 -0.31068057171E+02  0.12732058810E+03  0.13126691055E+03  0.10570000000E+00 0.  1.
<mgrwt>
<rscale>  0 0.10231600E+03</rscale>
<asrwt>0</asrwt>
<pdfrwt beam="2">  1        3 0.27732502E-02 0.10231600E+03</pdfrwt>
<pdfrwt beam="1">  1       -3 0.22336305E-01 0.10231600E+03</pdfrwt>
<totfact> 0.22288755E+04</totfact>
</mgrwt>
</event>
<event>
 5    1  0.1401471E+000  0.9438231E+02  0.7818608E-02  0.1292573E+00
          3   -1    0    0  501    0  0.00000000000E+00  0.00000000000E+00  0.49702799460E+02  0.49702886467E+02  0.93000000000E-01 0. -1.
         -3   -1    0    0    0  501 -0.00000000000E+00 -0.00000000000E+00 -0.44806259202E+02  0.44806355717E+02  0.93000000000E-01 0.  1.
         23    2    1    2    0    0  0.00000000000E+00  0.00000000000E+00  0.48965402577E+01  0.94509242184E+02  0.94382311646E+02 0.  0.
        -13    1    3    3    0    0 -0.37811629432E+02  0.26506529532E+02  0.12191648212E+02  0.47759427203E+02  0.10570000000E+00 0. -1.
         13    1    3    3    0    0  0.37811629432E+02 -0.26506529532E+02 -0.72951079542E+01  0.46749814981E+02  0.10570000000E+00 0.  1.
<mgrwt>
<rscale>  0 0.94382312E+02</rscale>
<asrwt>0</asrwt>
<pdfrwt beam="1">  1        3 0.76465986E-02 0.94382312E+02</pdfrwt>
<pdfrwt beam="2">  1       -3 0.68932848E-02 0.94382312E+02</pdfrwt>
<totfact> 0.31921906E+04</totfact>
</mgrwt>
</event>
<event>
 5    1  0.1401471E+000  0.9133896E+02  0.7818608E-02  0.1299641E+00
          3   -1    0    0  501    0  0.00000000000E+00  0.00000000000E+00  0.13165352334E+02  0.13165680806E+02  0.93000000000E-01 0. -1.
         -3   -1    0    0    0  501 -0.00000000000E+00 -0.00000000000E+00 -0.15842120421E+03  0.15842123151E+03  0.93000000000E-01 0.  1.
         23    2    1    2    0    0  0.00000000000E+00  0.00000000000E+00 -0.14525585188E+03  0.17158691232E+03  0.91338961967E+02 0.  0.
        -13    1    3    3    0    0  0.18874999519E+02  0.20204269303E+02 -0.14091120648E+03  0.14359824995E+03  0.10570000000E+00 0.  1.
         13    1    3    3    0    0 -0.18874999519E+02 -0.20204269303E+02 -0.43446454001E+01  0.27988662366E+02  0.10570000000E+00 0. -1.
<mgrwt>
<rscale>  0 0.91338962E+02</rscale>
<asrwt>0</asrwt>
<pdfrwt beam="1">  1        3 0.20254663E-02 0.91338962E+02</pdfrwt>
<pdfrwt beam="2">  1       -3 0.24372519E-01 0.91338962E+02</pdfrwt>
<totfact> 0.29892435E+04</totfact>
</mgrwt>
</event>
<event>
 5    1  0.1401471E+000  0.9163299E+02  0.7818608E-02  0.1298945E+00
         -3   -1    0    0    0  501 -0.00000000000E+00  0.00000000000E+00  0.19119531055E+03  0.19119533317E+03  0.93000000000E-01 0.  1.
          3   -1    0    0  501    0  0.00000000000E+00 -0.00000000000E+00 -0.10978873843E+02  0.10979267729E+02  0.93000000000E-01 0. -1.
         23    2    1    2    0    0  0.00000000000E+00  0.00000000000E+00  0.18021643671E+03  0.20217460090E+03  0.91632991814E+02 0.  0.
        -13    1    3    3    0    0  0.34931630191E+02  0.20498435735E+02  0.13736410199E+03  0.14321072705E+03  0.10570000000E+00 0.  1.
         13    1    3    3    0    0 -0.34931630191E+02 -0.20498435735E+02  0.42852334717E+02  0.58963873843E+02  0.10570000000E+00 0. -1.
<mgrwt>
<rscale>  0 0.91632992E+02</rscale>
<asrwt>0</asrwt>
<pdfrwt beam="2">  1        3 0.16890898E-02 0.91632992E+02</pdfrwt>
<pdfrwt beam="1">  1       -3 0.29414691E-01 0.91632992E+02</pdfrwt>
<totfact> 0.28004898E+04</totfact>
</mgrwt>
</event>
<event>
 5    1  0.1401471E+000  0.9067454E+02  0.7818608E-02  0.1301226E+00
          3   -1    0    0  501    0  0.00000000000E+00  0.00000000000E+00  0.12378844616E+03  0.12378848109E+03  0.93000000000E-01 0. -1.
         -3   -1    0    0    0  501 -0.00000000000E+00 -0.00000000000E+00 -0.16604516563E+02  0.16604777002E+02  0.93000000000E-01 0.  1.
         23    2    1    2    0    0  0.00000000000E+00  0.00000000000E+00  0.10718392959E+03  0.14039325809E+03  0.90674539728E+02 0.  0.
        -13    1    3    3    0    0 -0.12183227604E+02 -0.43643516126E+02  0.55924401480E+02  0.71977339407E+02  0.10570000000E+00 0. -1.
         13    1    3    3    0    0  0.12183227604E+02  0.43643516126E+02  0.51259528114E+02  0.68415918687E+02  0.10570000000E+00 0.  1.
<mgrwt>
<rscale>  0 0.90674540E+02</rscale>
<asrwt>0</asrwt>
<pdfrwt beam="1">  1        3 0.19044399E-01 0.90674540E+02</pdfrwt>
<pdfrwt beam="2">  1       -3 0.25545638E-02 0.90674540E+02</pdfrwt>
<totfact> 0.32385976E+04</totfact>
</mgrwt>
</event>
<event>
 5    1  0.1401471E+000  0.8850943E+02  0.7818608E-02  0.1306502E+00
         -3   -1    0    0    0  501 -0.00000000000E+00  0.00000000000E+00  0.24239758154E+02  0.24239936558E+02  0.93000000000E-01 0.  1.
          3   -1    0    0  501    0  0.00000000000E+00 -0.00000000000E+00 -0.80795681557E+02  0.80795735081E+02  0.93000000000E-01 0. -1.
         23    2    1    2    0    0  0.00000000000E+00  0.00000000000E+00 -0.56555923403E+02  0.10503567164E+03  0.88509433648E+02 0.  0.
        -13    1    3    3    0    0 -0.15554133099E+02 -0.17969198179E+02  0.16024048898E+02  0.28663643439E+02  0.10570000000E+00 0.  1.
         13    1    3    3    0    0  0.15554133099E+02  0.17969198179E+02 -0.72579972301E+02  0.76372028200E+02  0.10570000000E+00 0. -1.
<mgrwt>
<rscale>  0 0.88509434E+02</rscale>
<asrwt>0</asrwt>
<pdfrwt beam="2">  1        3 0.12430123E-01 0.88509434E+02</pdfrwt>
<pdfrwt beam="1">  1       -3 0.37292114E-02 0.88509434E+02</pdfrwt>
<totfact> 0.37177074E+04</totfact>
</mgrwt>
</event>
<event>
 5    1  0.1401471E+000  0.9199567E+02  0.7818608E-02  0.1298090E+00
         -3   -1    0    0    0  501 -0.00000000000E+00  0.00000000000E+00  0.22403902729E+02  0.22404095752E+02  0.93000000000E-01 0.  1.
          3   -1    0    0  501    0  0.00000000000E+00 -0.00000000000E+00 -0.94438310683E+02  0.94438356475E+02  0.93000000000E-01 0. -1.
         23    2    1    2    0    0  0.00000000000E+00  0.00000000000E+00 -0.72034407955E+02  0.11684245223E+03  0.91995666817E+02 0.  0.
        -13    1    3    3    0    0 -0.40286791231E+02  0.14586114067E+02 -0.57270166119E+02  0.71523865744E+02  0.10570000000E+00 0.  1.
         13    1    3    3    0    0  0.40286791231E+02 -0.14586114067E+02 -0.14764241836E+02  0.45318586482E+02  0.10570000000E+00 0. -1.
<mgrwt>
<rscale>  0 0.91995667E+02</rscale>
<asrwt>0</asrwt>
<pdfrwt beam="2">  1        3 0.14528989E-01 0.91995667E+02</pdfrwt>
<pdfrwt beam="1">  1       -3 0.34467727E-02 0.91995667E+02</pdfrwt>
<totfact> 0.32658957E+04</totfact>
</mgrwt>
</event>
<event>
 5    1  0.1401471E+000  0.9082666E+02  0.7818608E-02  0.1300862E+00
         -3   -1    0    0    0  501 -0.00000000000E+00  0.00000000000E+00  0.12589261507E+02  0.12589605010E+02  0.93000000000E-01 0.  1.
          3   -1    0    0  501    0  0.00000000000E+00 -0.00000000000E+00 -0.16381723189E+03  0.16381725829E+03  0.93000000000E-01 0. -1.
         23    2    1    2    0    0  0.00000000000E+00  0.00000000000E+00 -0.15122797038E+03  0.17640686330E+03  0.90826661243E+02 0.  0.
        -13    1    3    3    0    0  0.42861994251E+02  0.14472421796E+02 -0.83323926082E+02  0.94812917759E+02  0.10570000000E+00 0. -1.
         13    1    3    3    0    0 -0.42861994251E+02 -0.14472421796E+02 -0.67904044301E+02  0.81593945539E+02  0.10570000000E+00 0.  1.
<mgrwt>
<rscale>  0 0.90826661E+02</rscale>
<asrwt>0</asrwt>
<pdfrwt beam="2">  1        3 0.25202678E-01 0.90826661E+02</pdfrwt>
<pdfrwt beam="1">  1       -3 0.19368380E-02 0.90826661E+02</pdfrwt>
<totfact> 0.30076254E+04</totfact>
</mgrwt>
</event>
<event>
 5    1  0.1401471E+000  0.9080583E+02  0.7818608E-02  0.1300912E+00
          3   -1    0    0  501    0  0.00000000000E+00  0.00000000000E+00  0.13680818848E+03  0.13680822009E+03  0.93000000000E-01 0. -1.
         -3   -1    0    0    0  501 -0.00000000000E+00 -0.00000000000E+00 -0.15067815550E+02  0.15068102550E+02  0.93000000000E-01 0.  1.
         23    2    1    2    0    0  0.00000000000E+00  0.00000000000E+00  0.12174037293E+03  0.15187632264E+03  0.90805831186E+02 0.  0.
        -13    1    3    3    0    0  0.26269028478E+02  0.36302502120E+02  0.73101476249E+02  0.85742466256E+02  0.10570000000E+00 0.  1.
         13    1    3    3    0    0 -0.26269028478E+02 -0.36302502120E+02  0.48638896677E+02  0.66133856381E+02  0.10570000000E+00 0. -1.
<mgrwt>
<rscale>  0 0.90805831E+02</rscale>
<asrwt>0</asrwt>
<pdfrwt beam="1">  1        3 0.21047438E-01 0.90805831E+02</pdfrwt>
<pdfrwt beam="2">  1       -3 0.23181500E-02 0.90805831E+02</pdfrwt>
<totfact> 0.31538668E+04</totfact>
</mgrwt>
</event>
<event>
 5    1  0.1401471E+000  0.9063335E+02  0.7818608E-02  0.1301325E+00
         -3   -1    0    0    0  501 -0.00000000000E+00  0.00000000000E+00  0.12432697551E+02  0.12433045379E+02  0.93000000000E-01 0.  1.
          3   -1    0    0  501    0  0.00000000000E+00 -0.00000000000E+00 -0.16517475537E+03  0.16517478155E+03  0.93000000000E-01 0. -1.
         23    2    1    2    0    0  0.00000000000E+00  0.00000000000E+00 -0.15274205782E+03  0.17760782693E+03  0.90633349052E+02 0.  0.
        -13    1    3    3    0    0  0.37651133237E+02 -0.23525899021E+02 -0.58570289288E+02  0.73495344877E+02  0.10570000000E+00 0.  1.
         13    1    3    3    0    0 -0.37651133237E+02  0.23525899021E+02 -0.94171768531E+02  0.10411248205E+03  0.10570000000E+00 0. -1.
<mgrwt>
<rscale>  0 0.90633349E+02</rscale>
<asrwt>0</asrwt>
<pdfrwt beam="2">  1        3 0.25411528E-01 0.90633349E+02</pdfrwt>
<pdfrwt beam="1">  1       -3 0.19127516E-02 0.90633349E+02</pdfrwt>
<totfact> 0.30181533E+04</totfact>
</mgrwt>
</event>
<event>
 5    1  0.1401471E+000  0.8702777E+02  0.7818608E-02  0.1310213E+00
         -3   -1    0    0    0  501 -0.00000000000E+00  0.00000000000E+00  0.15301320859E+02  0.15301603479E+02  0.93000000000E-01 0.  1.
          3   -1    0    0  501    0  0.00000000000E+00 -0.00000000000E+00 -0.12374330082E+03  0.12374333576E+03  0.93000000000E-01 0. -1.
         23    2    1    2    0    0  0.00000000000E+00  0.00000000000E+00 -0.10844197996E+03  0.13904493924E+03  0.87027766327E+02 0.  0.
        -13    1    3    3    0    0 -0.83033909093E+01  0.42403298187E+02 -0.46002362262E+02  0.63112712697E+02  0.10570000000E+00 0. -1.
         13    1    3    3    0    0  0.83033909093E+01 -0.42403298187E+02 -0.62439617694E+02  0.75932226545E+02  0.10570000000E+00 0.  1.
<mgrwt>
<rscale>  0 0.87027766E+02</rscale>
<asrwt>0</asrwt>
<pdfrwt beam="2">  1        3 0.19037455E-01 0.87027766E+02</pdfrwt>
<pdfrwt beam="1">  1       -3 0.23540739E-02 0.87027766E+02</pdfrwt>
<totfact> 0.36276290E+04</totfact>
</mgrwt>
</event>
<event>
 5    1  0.1401471E+000  0.9304242E+02  0.7818608E-02  0.1295647E+00
         -3   -1    0    0    0  501 -0.00000000000E+00  0.00000000000E+00  0.26164448986E+02  0.26164614267E+02  0.93000000000E-01 0.  1.
          3   -1    0    0  501    0  0.00000000000E+00 -0.00000000000E+00 -0.82715721113E+02  0.82715773394E+02  0.93000000000E-01 0. -1.
         23    2    1    2    0    0  0.00000000000E+00  0.00000000000E+00 -0.56551272126E+02  0.10888038766E+03  0.93042422788E+02 0.  0.
        -13    1    3    3    0    0  0.46200127003E+02  0.53514183375E+01 -0.29515478252E+02  0.55084154185E+02  0.10570000000E+00 0.  1.
         13    1    3    3    0    0 -0.46200127003E+02 -0.53514183375E+01 -0.27035793874E+02  0.53796233476E+02  0.10570000000E+00 0. -1.
<mgrwt>
<rscale>  0 0.93042423E+02</rscale>
<asrwt>0</asrwt>
<pdfrwt beam="2">  1        3 0.12725512E-01 0.93042423E+02</pdfrwt>
<pdfrwt beam="1">  1       -3 0.40253166E-02 0.93042423E+02</pdfrwt>
<totfact> 0.32196876E+04</totfact>
</mgrwt>
</event>
<event>
 5    1  0.1401471E+000  0.9223785E+02  0.7818608E-02  0.1297521E+00
          3   -1    0    0  501    0  0.00000000000E+00  0.00000000000E+00  0.76603696702E+02  0.76603753155E+02  0.93000000000E-01 0. -1.
         -3   -1    0    0    0  501 -0.00000000000E+00 -0.00000000000E+00 -0.27765555727E+02  0.27765711477E+02  0.93000000000E-01 0.  1.
         23    2    1    2    0    0  0.00000000000E+00  0.00000000000E+00  0.48838140976E+02  0.10436946463E+03  0.92237850873E+02 0.  0.
        -13    1    3    3    0    0  0.18636660690E+02  0.35801450800E+02  0.49666925523E+02  0.63999091122E+02  0.10570000000E+00 0. -1.
         13    1    3    3    0    0 -0.18636660690E+02 -0.35801450800E+02 -0.82878454730E+00  0.40370373510E+02  0.10570000000E+00 0.  1.
<mgrwt>
<rscale>  0 0.92237851E+02</rscale>
<asrwt>0</asrwt>
<pdfrwt beam="1">  1        3 0.11785200E-01 0.92237851E+02</pdfrwt>
<pdfrwt beam="2">  1       -3 0.42716404E-02 0.92237851E+02</pdfrwt>
<totfact> 0.33283533E+04</totfact>
</mgrwt>
</event>
<event>
 5    1  0.1401471E+000  0.9148250E+02  0.7818608E-02  0.1299301E+00
          3   -1    0    0  501    0  0.00000000000E+00  0.00000000000E+00  0.17976282645E+03  0.17976285051E+03  0.93000000000E-01 0. -1.
         -3   -1    0    0    0  501 -0.00000000000E+00 -0.00000000000E+00 -0.11638802781E+02  0.11639174334E+02  0.93000000000E-01 0.  1.
         23    2    1    2    0    0  0.00000000000E+00  0.00000000000E+00  0.16812402367E+03  0.19140202484E+03  0.91482499848E+02 0.  0.
        -13    1    3    3    0    0 -0.29921445938E+02 -0.25037980510E+02  0.34108297109E+02  0.51822586767E+02  0.10570000000E+00 0.  1.
         13    1    3    3    0    0  0.29921445938E+02  0.25037980510E+02  0.13401572656E+03  0.13957943807E+03  0.10570000000E+00 0. -1.
<mgrwt>
<rscale>  0 0.91482500E+02</rscale>
<asrwt>0</asrwt>
<pdfrwt beam="1">  1        3 0.27655848E-01 0.91482500E+02</pdfrwt>
<pdfrwt beam="2">  1       -3 0.17906156E-02 0.91482500E+02</pdfrwt>
<totfact> 0.28688481E+04</totfact>
</mgrwt>
</event>
<event>
 5    1  0.1401471E+000  0.9389978E+02  0.7818608E-02  0.1293673E+00
          3   -1    0    0  501    0  0.00000000000E+00  0.00000000000E+00  0.99004540120E+02  0.99004583799E+02  0.93000000000E-01 0. -1.
         -3   -1    0    0    0  501 -0.00000000000E+00 -0.00000000000E+00 -0.22264410874E+02  0.22264605107E+02  0.93000000000E-01 0.  1.
         23    2    1    2    0    0  0.00000000000E+00  0.00000000000E+00  0.76740129246E+02  0.12126918891E+03  0.93899780304E+02 0.  0.
        -13    1    3    3    0    0  0.15291833461E+02 -0.26535321064E+02  0.84327651247E+02  0.89716929126E+02  0.10570000000E+00 0. -1.
         13    1    3    3    0    0 -0.15291833461E+02  0.26535321064E+02 -0.75875220007E+01  0.31552259780E+02  0.10570000000E+00 0.  1.
<mgrwt>
<rscale>  0 0.93899780E+02</rscale>
<asrwt>0</asrwt>
<pdfrwt beam="1">  1        3 0.15231486E-01 0.93899780E+02</pdfrwt>
<pdfrwt beam="2">  1       -3 0.34253123E-02 0.93899780E+02</pdfrwt>
<totfact> 0.30605082E+04</totfact>
</mgrwt>
</event>
<event>
 5    1  0.1401471E+000  0.8923901E+02  0.7818608E-02  0.1304705E+00
         -3   -1    0    0    0  501 -0.00000000000E+00  0.00000000000E+00  0.21293266637E+02  0.21293469728E+02  0.93000000000E-01 0.  1.
          3   -1    0    0  501    0  0.00000000000E+00 -0.00000000000E+00 -0.93498384451E+02  0.93498430703E+02  0.93000000000E-01 0. -1.
         23    2    1    2    0    0  0.00000000000E+00  0.00000000000E+00 -0.72205117814E+02  0.11479190043E+03  0.89239012578E+02 0.  0.
        -13    1    3    3    0    0  0.39177044208E+02  0.12647188673E+02 -0.13967866589E+02  0.43473033524E+02  0.10570000000E+00 0.  1.
         13    1    3    3    0    0 -0.39177044208E+02 -0.12647188673E+02 -0.58237251225E+02  0.71318866907E+02  0.10570000000E+00 0. -1.
<mgrwt>
<rscale>  0 0.89239013E+02</rscale>
<asrwt>0</asrwt>
<pdfrwt beam="2">  1        3 0.14384386E-01 0.89239013E+02</pdfrwt>
<pdfrwt beam="1">  1       -3 0.32759064E-02 0.89239013E+02</pdfrwt>
<totfact> 0.35620723E+04</totfact>
</mgrwt>
</event>
<event>
 5    1  0.1401471E+000  0.9209604E+02  0.7818608E-02  0.1297854E+00
         -3   -1    0    0    0  501 -0.00000000000E+00  0.00000000000E+00  0.39743958725E+02  0.39744067534E+02  0.93000000000E-01 0.  1.
          3   -1    0    0  501    0  0.00000000000E+00 -0.00000000000E+00 -0.53351791258E+02  0.53351872314E+02  0.93000000000E-01 0. -1.
         23    2    1    2    0    0  0.00000000000E+00  0.00000000000E+00 -0.13607832533E+02  0.93095939848E+02  0.92096041771E+02 0.  0.
        -13    1    3    3    0    0  0.16670561665E+02 -0.13254753989E+02  0.34465963687E+02  0.40515552012E+02  0.10570000000E+00 0.  1.
         13    1    3    3    0    0 -0.16670561665E+02  0.13254753989E+02 -0.48073796219E+02  0.52580387836E+02  0.10570000000E+00 0. -1.
<mgrwt>
<rscale>  0 0.92096042E+02</rscale>
<asrwt>0</asrwt>
<pdfrwt beam="2">  1        3 0.82079825E-02 0.92096042E+02</pdfrwt>
<pdfrwt beam="1">  1       -3 0.61144698E-02 0.92096042E+02</pdfrwt>
<totfact> 0.34241236E+04</totfact>
</mgrwt>
</event>
<event>
 5    1  0.1401471E+000  0.9089625E+02  0.7818608E-02  0.1300696E+00
         -3   -1    0    0    0  501 -0.00000000000E+00  0.00000000000E+00  0.97627383211E+02  0.97627427507E+02  0.93000000000E-01 0.  1.
          3   -1    0    0  501    0  0.00000000000E+00 -0.00000000000E+00 -0.21157151900E+02  0.21157356298E+02  0.93000000000E-01 0. -1.
         23    2    1    2    0    0  0.00000000000E+00  0.00000000000E+00  0.76470231311E+02  0.11878478381E+03  0.90896251776E+02 0.  0.
        -13    1    3    3    0    0  0.19609169754E+02 -0.22792721182E+02  0.82772344430E+02  0.88064180302E+02  0.10570000000E+00 0.  1.
         13    1    3    3    0    0 -0.19609169754E+02  0.22792721182E+02 -0.63021131193E+01  0.30720603503E+02  0.10570000000E+00 0. -1.
<mgrwt>
<rscale>  0 0.90896252E+02</rscale>
<asrwt>0</asrwt>
<pdfrwt beam="2">  1        3 0.32549655E-02 0.90896252E+02</pdfrwt>
<pdfrwt beam="1">  1       -3 0.15019617E-01 0.90896252E+02</pdfrwt>
<totfact> 0.33611498E+04</totfact>
</mgrwt>
</event>
<event>
 5    1  0.1401471E+000  0.9179136E+02  0.7818608E-02  0.1298571E+00
          3   -1    0    0  501    0  0.00000000000E+00  0.00000000000E+00  0.86191578315E+01  0.86196595480E+01  0.93000000000E-01 0. -1.
         -3   -1    0    0    0  501 -0.00000000000E+00 -0.00000000000E+00 -0.24437976220E+03  0.24437977989E+03  0.93000000000E-01 0.  1.
         23    2    1    2    0    0  0.00000000000E+00  0.00000000000E+00 -0.23576060437E+03  0.25299943944E+03  0.91791360087E+02 0.  0.
        -13    1    3    3    0    0  0.41631506654E+02  0.15110484471E+01 -0.64795814191E+02  0.77032294025E+02  0.10570000000E+00 0. -1.
         13    1    3    3    0    0 -0.41631506654E+02 -0.15110484471E+01 -0.17096479017E+03  0.17596714542E+03  0.10570000000E+00 0.  1.
<mgrwt>
<rscale>  0 0.91791360E+02</rscale>
<asrwt>0</asrwt>
<pdfrwt beam="1">  1        3 0.13260644E-02 0.91791360E+02</pdfrwt>
<pdfrwt beam="2">  1       -3 0.37596921E-01 0.91791360E+02</pdfrwt>
<totfact> 0.25500889E+04</totfact>
</mgrwt>
</event>
<event>
 5    1  0.1401471E+000  0.9144519E+02  0.7818608E-02  0.1299389E+00
          3   -1    0    0  501    0  0.00000000000E+00  0.00000000000E+00  0.19084957823E+02  0.19085184414E+02  0.93000000000E-01 0. -1.
         -3   -1    0    0    0  501 -0.00000000000E+00 -0.00000000000E+00 -0.10953854179E+03  0.10953858127E+03  0.93000000000E-01 0.  1.
         23    2    1    2    0    0  0.00000000000E+00  0.00000000000E+00 -0.90453583968E+02  0.12862376568E+03  0.91445187112E+02 0.  0.
        -13    1    3    3    0    0 -0.33217549463E+02  0.45883778966E+01 -0.15079984860E+01  0.33567008148E+02  0.10570000000E+00 0. -1.
         13    1    3    3    0    0  0.33217549463E+02 -0.45883778966E+01 -0.88945585482E+02  0.95056757536E+02  0.10570000000E+00 0.  1.
<mgrwt>
<rscale>  0 0.91445187E+02</rscale>
<asrwt>0</asrwt>
<pdfrwt beam="1">  1        3 0.29361679E-02 0.91445187E+02</pdfrwt>
<pdfrwt beam="2">  1       -3 0.16852103E-01 0.91445187E+02</pdfrwt>
<totfact> 0.32408327E+04</totfact>
</mgrwt>
</event>
<event>
 5    1  0.1401471E+000  0.8920970E+02  0.7818608E-02  0.1304777E+00
          3   -1    0    0  501    0  0.00000000000E+00  0.00000000000E+00  0.63315808865E+01  0.63322638545E+01  0.93000000000E-01 0. -1.
         -3   -1    0    0    0  501 -0.00000000000E+00 -0.00000000000E+00 -0.31421553399E+03  0.31421554776E+03  0.93000000000E-01 0.  1.
         23    2    1    2    0    0  0.00000000000E+00  0.00000000000E+00 -0.30788395311E+03  0.32054781161E+03  0.89209702094E+02 0.  0.
        -13    1    3    3    0    0 -0.43203712344E+02  0.91052949433E+00 -0.19366128259E+03  0.19842402418E+03  0.10570000000E+00 0.  1.
         13    1    3    3    0    0  0.43203712344E+02 -0.91052949433E+00 -0.11422267052E+03  0.12212378743E+03  0.10570000000E+00 0. -1.
<mgrwt>
<rscale>  0 0.89209702E+02</rscale>
<asrwt>0</asrwt>
<pdfrwt beam="1">  1        3 0.97414321E-03 0.89209702E+02</pdfrwt>
<pdfrwt beam="2">  1       -3 0.48340893E-01 0.89209702E+02</pdfrwt>
<totfact> 0.24645242E+04</totfact>
</mgrwt>
</event>
<event>
 5    1  0.1401471E+000  0.9008826E+02  0.7818608E-02  0.1302638E+00
         -3   -1    0    0    0  501 -0.00000000000E+00  0.00000000000E+00  0.27632086917E+02  0.27632243420E+02  0.93000000000E-01 0.  1.
          3   -1    0    0  501    0  0.00000000000E+00 -0.00000000000E+00 -0.73427771891E+02  0.73427830785E+02  0.93000000000E-01 0. -1.
         23    2    1    2    0    0  0.00000000000E+00  0.00000000000E+00 -0.45795684974E+02  0.10106007420E+03  0.90088255817E+02 0.  0.
        -13    1    3    3    0    0 -0.27914530693E+02  0.87797996665E+01 -0.61312487084E+02  0.67937752030E+02  0.10570000000E+00 0. -1.
         13    1    3    3    0    0  0.27914530693E+02 -0.87797996665E+01  0.15516802110E+02  0.33122322175E+02  0.10570000000E+00 0.  1.
<mgrwt>
<rscale>  0 0.90088256E+02</rscale>
<asrwt>0</asrwt>
<pdfrwt beam="2">  1        3 0.11296597E-01 0.90088256E+02</pdfrwt>
<pdfrwt beam="1">  1       -3 0.42511069E-02 0.90088256E+02</pdfrwt>
<totfact> 0.35739879E+04</totfact>
</mgrwt>
</event>
<event>
 5    1  0.1401471E+000  0.9045334E+02  0.7818608E-02  0.1301758E+00
         -3   -1    0    0    0  501 -0.00000000000E+00  0.00000000000E+00  0.73904601341E+02  0.73904659855E+02  0.93000000000E-01 0.  1.
          3   -1    0    0  501    0  0.00000000000E+00 -0.00000000000E+00 -0.27676773923E+02  0.27676930173E+02  0.93000000000E-01 0. -1.
         23    2    1    2    0    0  0.00000000000E+00  0.00000000000E+00  0.46227827418E+02  0.10158159003E+03  0.90453343801E+02 0.  0.
        -13    1    3    3    0    0 -0.20747062760E+02 -0.10578020152E+01  0.68229452770E+02  0.71322008918E+02  0.10570000000E+00 0.  1.
         13    1    3    3    0    0  0.20747062760E+02  0.10578020152E+01 -0.22001625353E+02  0.30259581110E+02  0.10570000000E+00 0. -1.
<mgrwt>
<rscale>  0 0.90453344E+02</rscale>
<asrwt>0</asrwt>
<pdfrwt beam="2">  1        3 0.42579818E-02 0.90453344E+02</pdfrwt>
<pdfrwt beam="1">  1       -3 0.11369955E-01 0.90453344E+02</pdfrwt>
<totfact> 0.35311976E+04</totfact>
</mgrwt>
</event>
<event>
 5    1  0.1401471E+000  0.9357527E+02  0.7818608E-02  0.1294418E+00
         -3   -1    0    0    0  501 -0.00000000000E+00  0.00000000000E+00  0.34400345869E+02  0.34400471580E+02  0.93000000000E-01 0.  1.
          3   -1    0    0  501    0  0.00000000000E+00 -0.00000000000E+00 -0.63635212259E+02  0.63635280217E+02  0.93000000000E-01 0. -1.
         23    2    1    2    0    0  0.00000000000E+00  0.00000000000E+00 -0.29234866390E+02  0.98035751796E+02  0.93575270331E+02 0.  0.
        -13    1    3    3    0    0  0.19564424532E+02 -0.29114196189E+02  0.17820832228E+02  0.39344584898E+02  0.10570000000E+00 0.  1.
         13    1    3    3    0    0 -0.19564424532E+02  0.29114196189E+02 -0.47055698618E+02  0.58691166899E+02  0.10570000000E+00 0. -1.
<mgrwt>
<rscale>  0 0.93575270E+02</rscale>
<asrwt>0</asrwt>
<pdfrwt beam="2">  1        3 0.97900475E-02 0.93575270E+02</pdfrwt>
<pdfrwt beam="1">  1       -3 0.52923758E-02 0.93575270E+02</pdfrwt>
<totfact> 0.32434262E+04</totfact>
</mgrwt>
</event>
<event>
 5    1  0.1401471E+000  0.9022711E+02  0.7818608E-02  0.1302303E+00
         -3   -1    0    0    0  501 -0.00000000000E+00  0.00000000000E+00  0.63751279337E+02  0.63751347171E+02  0.93000000000E-01 0.  1.
          3   -1    0    0  501    0  0.00000000000E+00 -0.00000000000E+00 -0.31924427461E+02  0.31924562921E+02  0.93000000000E-01 0. -1.
         23    2    1    2    0    0  0.00000000000E+00  0.00000000000E+00  0.31826851876E+02  0.95675910092E+02  0.90227109405E+02 0.  0.
        -13    1    3    3    0    0 -0.28916209367E+02 -0.34131068858E+02  0.97172078007E+01  0.45776766219E+02  0.10570000000E+00 0. -1.
         13    1    3    3    0    0  0.28916209367E+02  0.34131068858E+02  0.22109644075E+02  0.49899143872E+02  0.10570000000E+00 0.  1.
<mgrwt>
<rscale>  0 0.90227109E+02</rscale>
<asrwt>0</asrwt>
<pdfrwt beam="2">  1        3 0.49114660E-02 0.90227109E+02</pdfrwt>
<pdfrwt beam="1">  1       -3 0.98079047E-02 0.90227109E+02</pdfrwt>
<totfact> 0.36006283E+04</totfact>
</mgrwt>
</event>
<event>
 5    1  0.1401471E+000  0.9055318E+02  0.7818608E-02  0.1301518E+00
          3   -1    0    0  501    0  0.00000000000E+00  0.00000000000E+00  0.36944796781E+03  0.36944797952E+03  0.93000000000E-01 0. -1.
         -3   -1    0    0    0  501 -0.00000000000E+00 -0.00000000000E+00 -0.55483350198E+01  0.55491143881E+01  0.93000000000E-01 0.  1.
         23    2    1    2    0    0  0.00000000000E+00  0.00000000000E+00  0.36389963279E+03  0.37499709390E+03  0.90553176041E+02 0.  0.
        -13    1    3    3    0    0  0.44710792757E+01  0.45018003845E+02  0.17437357099E+03  0.18014650885E+03  0.10570000000E+00 0.  1.
         13    1    3    3    0    0 -0.44710792757E+01 -0.45018003845E+02  0.18952606180E+03  0.19485058505E+03  0.10570000000E+00 0. -1.
<mgrwt>
<rscale>  0 0.90553176E+02</rscale>
<asrwt>0</asrwt>
<pdfrwt beam="1">  1        3 0.56838211E-01 0.90553176E+02</pdfrwt>
<pdfrwt beam="2">  1       -3 0.85365084E-03 0.90553176E+02</pdfrwt>
<totfact> 0.21788281E+04</totfact>
</mgrwt>
</event>
<event>
 5    1  0.1401471E+000  0.9220486E+02  0.7818608E-02  0.1297598E+00
          3   -1    0    0  501    0  0.00000000000E+00  0.00000000000E+00  0.15498372348E+03  0.15498375138E+03  0.93000000000E-01 0. -1.
         -3   -1    0    0    0  501 -0.00000000000E+00 -0.00000000000E+00 -0.13713731795E+02  0.13714047132E+02  0.93000000000E-01 0.  1.
         23    2    1    2    0    0  0.00000000000E+00  0.00000000000E+00  0.14126999169E+03  0.16869779852E+03  0.92204862524E+02 0.  0.
        -13    1    3    3    0    0  0.22962848105E+02 -0.18030180815E+02  0.53554449057E+01  0.29682853231E+02  0.10570000000E+00 0.  1.
         13    1    3    3    0    0 -0.22962848105E+02  0.18030180815E+02  0.13591454678E+03  0.13901494528E+03  0.10570000000E+00 0. -1.
<mgrwt>
<rscale>  0 0.92204863E+02</rscale>
<asrwt>0</asrwt>
<pdfrwt beam="1">  1        3 0.23843677E-01 0.92204863E+02</pdfrwt>
<pdfrwt beam="2">  1       -3 0.21098313E-02 0.92204863E+02</pdfrwt>
<totfact> 0.29297015E+04</totfact>
</mgrwt>
</event>
<event>
 5    1  0.1401471E+000  0.9082092E+02  0.7818608E-02  0.1300876E+00
         -3   -1    0    0    0  501 -0.00000000000E+00  0.00000000000E+00  0.45946194898E+02  0.45946289019E+02  0.93000000000E-01 0.  1.
          3   -1    0    0  501    0  0.00000000000E+00 -0.00000000000E+00 -0.44880779028E+02  0.44880875383E+02  0.93000000000E-01 0. -1.
         23    2    1    2    0    0  0.00000000000E+00  0.00000000000E+00  0.10654158704E+01  0.90827164402E+02  0.90820915446E+02 0.  0.
        -13    1    3    3    0    0  0.43222794354E+02  0.74628880031E+01 -0.11223688902E+02  0.45275677953E+02  0.10570000000E+00 0. -1.
         13    1    3    3    0    0 -0.43222794354E+02 -0.74628880031E+01  0.12289104772E+02  0.45551486449E+02  0.10570000000E+00 0.  1.
<mgrwt>
<rscale>  0 0.90820915E+02</rscale>
<asrwt>0</asrwt>
<pdfrwt beam="2">  1        3 0.69047499E-02 0.90820915E+02</pdfrwt>
<pdfrwt beam="1">  1       -3 0.70686600E-02 0.90820915E+02</pdfrwt>
<totfact> 0.35744241E+04</totfact>
</mgrwt>
</event>
<event>
 5    1  0.1401471E+000  0.9071055E+02  0.7818608E-02  0.1301140E+00
          3   -1    0    0  501    0  0.00000000000E+00  0.00000000000E+00  0.24365826323E+02  0.24366003805E+02  0.93000000000E-01 0.  1.
         -3   -1    0    0    0  501 -0.00000000000E+00 -0.00000000000E+00 -0.84425158191E+02  0.84425209414E+02  0.93000000000E-01 0. -1.
         23    2    1    2    0    0  0.00000000000E+00  0.00000000000E+00 -0.60059331868E+02  0.10879121322E+03  0.90710554673E+02 0.  0.
        -13    1    3    3    0    0  0.29259808267E+02  0.14531279441E+02 -0.67761572069E+02  0.75225901681E+02  0.10570000000E+00 0. -1.
         13    1    3    3    0    0 -0.29259808267E+02 -0.14531279441E+02  0.77022402015E+01  0.33565311537E+02  0.10570000000E+00 0.  1.
<mgrwt>
<rscale>  0 0.90710555E+02</rscale>
<asrwt>0</asrwt>
<pdfrwt beam="1">  1        3 0.37486063E-02 0.90710555E+02</pdfrwt>
<pdfrwt beam="2">  1       -3 0.12988503E-01 0.90710555E+02</pdfrwt>
<totfact> 0.34510086E+04</totfact>
</mgrwt>
</event>
<event>
 5    1  0.1401471E+000  0.9029283E+02  0.7818608E-02  0.1302144E+00
         -3   -1    0    0    0  501 -0.00000000000E+00  0.00000000000E+00  0.29814456420E+02  0.29814601467E+02  0.93000000000E-01 0. -1.
          3   -1    0    0  501    0  0.00000000000E+00 -0.00000000000E+00 -0.68362432461E+02  0.68362495719E+02  0.93000000000E-01 0.  1.
         23    2    1    2    0    0  0.00000000000E+00  0.00000000000E+00 -0.38547976040E+02  0.98177097186E+02  0.90292834462E+02 0.  0.
        -13    1    3    3    0    0 -0.27769938372E+01 -0.36019471295E+02 -0.48713509892E+02  0.60647598680E+02  0.10570000000E+00 0.  1.
         13    1    3    3    0    0  0.27769938372E+01  0.36019471295E+02  0.10165533852E+02  0.37529498506E+02  0.10570000000E+00 0. -1.
<mgrwt>
<rscale>  0 0.90292834E+02</rscale>
<asrwt>0</asrwt>
<pdfrwt beam="2">  1        3 0.10517313E-01 0.90292834E+02</pdfrwt>
<pdfrwt beam="1">  1       -3 0.45868555E-02 0.90292834E+02</pdfrwt>
<totfact> 0.35740575E+04</totfact>
</mgrwt>
</event>
<event>
 5    1  0.1401471E+000  0.9414161E+02  0.7818608E-02  0.1293121E+00
         -3   -1    0    0    0  501 -0.00000000000E+00  0.00000000000E+00  0.48001671877E+02  0.48001761968E+02  0.93000000000E-01 0.  1.
          3   -1    0    0  501    0  0.00000000000E+00 -0.00000000000E+00 -0.46157811647E+02  0.46157905336E+02  0.93000000000E-01 0. -1.
         23    2    1    2    0    0  0.00000000000E+00  0.00000000000E+00  0.18438602303E+01  0.94159667304E+02  0.94141612087E+02 0.  0.
        -13    1    3    3    0    0  0.17943132660E+02 -0.43469295868E+02  0.29505982366E+01  0.47119559583E+02  0.10570000000E+00 0.  1.
         13    1    3    3    0    0 -0.17943132660E+02  0.43469295868E+02 -0.11067380063E+01  0.47040107721E+02  0.10570000000E+00 0. -1.
<mgrwt>
<rscale>  0 0.94141612E+02</rscale>
<asrwt>0</asrwt>
<pdfrwt beam="2">  1        3 0.71012160E-02 0.94141612E+02</pdfrwt>
<pdfrwt beam="1">  1       -3 0.73848867E-02 0.94141612E+02</pdfrwt>
<totfact> 0.32170097E+04</totfact>
</mgrwt>
</event>
<event>
 5    1  0.1401471E+000  0.9240354E+02  0.7818608E-02  0.1297133E+00
         -3   -1    0    0    0  501 -0.00000000000E+00  0.00000000000E+00  0.14933438782E+02  0.14933728364E+02  0.93000000000E-01 0.  1.
          3   -1    0    0  501    0  0.00000000000E+00 -0.00000000000E+00 -0.14293949159E+03  0.14293952184E+03  0.93000000000E-01 0. -1.
         23    2    1    2    0    0  0.00000000000E+00  0.00000000000E+00 -0.12800605281E+03  0.15787325021E+03  0.92403536598E+02 0.  0.
        -13    1    3    3    0    0 -0.44879175585E+02 -0.10757668329E+02 -0.60289445080E+02  0.75925596406E+02  0.10570000000E+00 0.  1.
         13    1    3    3    0    0  0.44879175585E+02  0.10757668329E+02 -0.67716607725E+02  0.81947653800E+02  0.10570000000E+00 0. -1.
<mgrwt>
<rscale>  0 0.92403537E+02</rscale>
<asrwt>0</asrwt>
<pdfrwt beam="2">  1        3 0.21990715E-01 0.92403537E+02</pdfrwt>
<pdfrwt beam="1">  1       -3 0.22974768E-02 0.92403537E+02</pdfrwt>
<totfact> 0.29734474E+04</totfact>
</mgrwt>
</event>
<event>
 5    1  0.1401471E+000  0.9549309E+02  0.7818608E-02  0.1290069E+00
         -3   -1    0    0    0  501 -0.00000000000E+00  0.00000000000E+00  0.11863933234E+03  0.11863936879E+03  0.93000000000E-01 0.  1.
          3   -1    0    0  501    0  0.00000000000E+00 -0.00000000000E+00 -0.19215503388E+02  0.19215728439E+02  0.93000000000E-01 0. -1.
         23    2    1    2    0    0  0.00000000000E+00  0.00000000000E+00  0.99423828954E+02  0.13785509723E+03  0.95493089115E+02 0.  0.
        -13    1    3    3    0    0  0.12504784190E+02 -0.14515728013E+02  0.11284661309E+03  0.11446154483E+03  0.10570000000E+00 0.  1.
         13    1    3    3    0    0 -0.12504784190E+02  0.14515728013E+02 -0.13422784135E+02  0.23393552398E+02  0.10570000000E+00 0. -1.
<mgrwt>
<rscale>  0 0.95493089E+02</rscale>
<asrwt>0</asrwt>
<pdfrwt beam="2">  1        3 0.29562514E-02 0.95493089E+02</pdfrwt>
<pdfrwt beam="1">  1       -3 0.18252225E-01 0.95493089E+02</pdfrwt>
<totfact> 0.28274377E+04</totfact>
</mgrwt>
</event>
<event>
 5    1  0.1401471E+000  0.9383192E+02  0.7818608E-02  0.1293829E+00
          3   -1    0    0  501    0  0.00000000000E+00  0.00000000000E+00  0.39967210910E+02  0.39967319111E+02  0.93000000000E-01 0. -1.
         -3   -1    0    0    0  501 -0.00000000000E+00 -0.00000000000E+00 -0.55072600184E+02  0.55072678708E+02  0.93000000000E-01 0.  1.
         23    2    1    2    0    0  0.00000000000E+00  0.00000000000E+00 -0.15105389274E+02  0.95039997818E+02  0.93831915680E+02 0.  0.
        -13    1    3    3    0    0 -0.12226094529E+02 -0.39891849345E+02  0.14177165465E+02  0.44066316215E+02  0.10570000000E+00 0. -1.
         13    1    3    3    0    0  0.12226094529E+02  0.39891849345E+02 -0.29282554739E+02  0.50973681603E+02  0.10570000000E+00 0.  1.
<mgrwt>
<rscale>  0 0.93831916E+02</rscale>
<asrwt>0</asrwt>
<pdfrwt beam="1">  1        3 0.61488160E-02 0.93831916E+02</pdfrwt>
<pdfrwt beam="2">  1       -3 0.84727221E-02 0.93831916E+02</pdfrwt>
<totfact> 0.32401336E+04</totfact>
</mgrwt>
</event>
<event>
 5    1  0.1401471E+000  0.9322228E+02  0.7818608E-02  0.1295231E+00
         -3   -1    0    0    0  501 -0.00000000000E+00  0.00000000000E+00  0.48179198232E+02  0.48179287990E+02  0.93000000000E-01 0.  1.
          3   -1    0    0  501    0  0.00000000000E+00 -0.00000000000E+00 -0.45093939278E+02  0.45094035178E+02  0.93000000000E-01 0. -1.
         23    2    1    2    0    0  0.00000000000E+00  0.00000000000E+00  0.30852589535E+01  0.93273323168E+02  0.93222282701E+02 0.  0.
        -13    1    3    3    0    0 -0.43241077726E+01  0.95600253031E+01 -0.43896939628E+02  0.45133629070E+02  0.10570000000E+00 0. -1.
         13    1    3    3    0    0  0.43241077726E+01 -0.95600253031E+01  0.46982198582E+02  0.48139694098E+02  0.10570000000E+00 0.  1.
<mgrwt>
<rscale>  0 0.93222283E+02</rscale>
<asrwt>0</asrwt>
<pdfrwt beam="2">  1        3 0.69375435E-02 0.93222283E+02</pdfrwt>
<pdfrwt beam="1">  1       -3 0.74121986E-02 0.93222283E+02</pdfrwt>
<totfact> 0.33109052E+04</totfact>
</mgrwt>
</event>
<event>
 5    1  0.1401471E+000  0.9029490E+02  0.7818608E-02  0.1302139E+00
         -3   -1    0    0    0  501 -0.00000000000E+00  0.00000000000E+00  0.58695958142E+02  0.58696031818E+02  0.93000000000E-01 0.  1.
          3   -1    0    0  501    0  0.00000000000E+00 -0.00000000000E+00 -0.34726125280E+02  0.34726249811E+02  0.93000000000E-01 0. -1.
         23    2    1    2    0    0  0.00000000000E+00  0.00000000000E+00  0.23969832863E+02  0.93422281629E+02  0.90294904714E+02 0.  0.
        -13    1    3    3    0    0  0.45139799741E+02  0.82282528943E+00  0.11930958694E+02  0.46697296602E+02  0.10570000000E+00 0.  1.
         13    1    3    3    0    0 -0.45139799741E+02 -0.82282528943E+00  0.12038874168E+02  0.46724985027E+02  0.10570000000E+00 0. -1.
<mgrwt>
<rscale>  0 0.90294905E+02</rscale>
<asrwt>0</asrwt>
<pdfrwt beam="2">  1        3 0.53424961E-02 0.90294905E+02</pdfrwt>
<pdfrwt beam="1">  1       -3 0.90301625E-02 0.90294905E+02</pdfrwt>
<totfact> 0.36109300E+04</totfact>
</mgrwt>
</event>
<event>
 5    1  0.1401471E+000  0.9018891E+02  0.7818608E-02  0.1302395E+00
          3   -1    0    0  501    0  0.00000000000E+00  0.00000000000E+00  0.13514449067E+02  0.13514769054E+02  0.93000000000E-01 0. -1.
         -3   -1    0    0    0  501 -0.00000000000E+00 -0.00000000000E+00 -0.15046718360E+03  0.15046721234E+03  0.93000000000E-01 0.  1.
         23    2    1    2    0    0  0.00000000000E+00  0.00000000000E+00 -0.13695273453E+03  0.16398198140E+03  0.90188905783E+02 0.  0.
        -13    1    3    3    0    0  0.26494602800E+02  0.24315681704E+02 -0.11794633784E+03  0.12330679680E+03  0.10570000000E+00 0.  1.
         13    1    3    3    0    0 -0.26494602800E+02 -0.24315681704E+02 -0.19006396694E+02  0.40675184598E+02  0.10570000000E+00 0. -1.
<mgrwt>
<rscale>  0 0.90188906E+02</rscale>
<asrwt>0</asrwt>
<pdfrwt beam="1">  1        3 0.20791729E-02 0.90188906E+02</pdfrwt>
<pdfrwt beam="2">  1       -3 0.23148823E-01 0.90188906E+02</pdfrwt>
<totfact> 0.31383310E+04</totfact>
</mgrwt>
</event>
<event>
 5    1  0.1401471E+000  0.8987937E+02  0.7818608E-02  0.1303144E+00
         -3   -1    0    0    0  501 -0.00000000000E+00  0.00000000000E+00  0.78351944659E+02  0.78351999852E+02  0.93000000000E-01 0.  1.
          3   -1    0    0  501    0  0.00000000000E+00 -0.00000000000E+00 -0.25775542046E+02  0.25775709821E+02  0.93000000000E-01 0. -1.
         23    2    1    2    0    0  0.00000000000E+00  0.00000000000E+00  0.52576402612E+02  0.10412770967E+03  0.89879373663E+02 0.  0.
        -13    1    3    3    0    0 -0.43016581976E+02  0.12262139860E+02  0.21267902441E+02  0.49528993989E+02  0.10570000000E+00 0. -1.
         13    1    3    3    0    0  0.43016581976E+02 -0.12262139860E+02  0.31308500171E+02  0.54598715684E+02  0.10570000000E+00 0.  1.
<mgrwt>
<rscale>  0 0.89879374E+02</rscale>
<asrwt>0</asrwt>
<pdfrwt beam="2">  1        3 0.39654851E-02 0.89879374E+02</pdfrwt>
<pdfrwt beam="1">  1       -3 0.12054163E-01 0.89879374E+02</pdfrwt>
<totfact> 0.35732689E+04</totfact>
</mgrwt>
</event>
<event>
 5    1  0.1401471E+000  0.8895582E+02  0.7818608E-02  0.1305400E+00
         -3   -1    0    0    0  501 -0.00000000000E+00  0.00000000000E+00  0.10895237417E+03  0.10895241386E+03  0.93000000000E-01 0.  1.
          3   -1    0    0  501    0  0.00000000000E+00 -0.00000000000E+00 -0.18157170714E+02  0.18157408883E+02  0.93000000000E-01 0. -1.
         23    2    1    2    0    0  0.00000000000E+00  0.00000000000E+00  0.90795203458E+02  0.12710982275E+03  0.88955820877E+02 0.  0.
        -13    1    3    3    0    0  0.78604517608E+01  0.40245008850E+02  0.70015764676E+02  0.81139792426E+02  0.10570000000E+00 0.  1.
         13    1    3    3    0    0 -0.78604517608E+01 -0.40245008850E+02  0.20779438782E+02  0.45970030322E+02  0.10570000000E+00 0. -1.
<mgrwt>
<rscale>  0 0.88955821E+02</rscale>
<asrwt>0</asrwt>
<pdfrwt beam="2">  1        3 0.27934323E-02 0.88955821E+02</pdfrwt>
<pdfrwt beam="1">  1       -3 0.16761925E-01 0.88955821E+02</pdfrwt>
<totfact> 0.35029857E+04</totfact>
</mgrwt>
</event>
<event>
 5    1  0.1401471E+000  0.6860706E+02  0.7818608E-02  0.1364895E+00
          3   -1    0    0  501    0  0.00000000000E+00  0.00000000000E+00  0.54794545225E+02  0.54794624147E+02  0.93000000000E-01 0. -1.
         -3   -1    0    0    0  501 -0.00000000000E+00 -0.00000000000E+00 -0.21475159861E+02  0.21475361233E+02  0.93000000000E-01 0.  1.
         23    2    1    2    0    0  0.00000000000E+00  0.00000000000E+00  0.33319385363E+02  0.76269985379E+02  0.68607063986E+02 0.  0.
        -13    1    3    3    0    0 -0.27297152006E+01 -0.28709859655E+02  0.37308883117E+02  0.47155819561E+02  0.10570000000E+00 0. -1.
         13    1    3    3    0    0  0.27297152006E+01  0.28709859655E+02 -0.39894977536E+01  0.29114165819E+02  0.10570000000E+00 0.  1.
<mgrwt>
<rscale>  0 0.68607064E+02</rscale>
<asrwt>0</asrwt>
<pdfrwt beam="1">  1        3 0.84299515E-02 0.68607064E+02</pdfrwt>
<pdfrwt beam="2">  1       -3 0.33038923E-02 0.68607064E+02</pdfrwt>
<totfact> 0.78260283E+04</totfact>
</mgrwt>
</event>
<event>
 5    1  0.1401471E+000  0.9270652E+02  0.7818608E-02  0.1296427E+00
         -3   -1    0    0    0  501 -0.00000000000E+00  0.00000000000E+00  0.48220287747E+03  0.48220288644E+03  0.93000000000E-01 0.  1.
          3   -1    0    0  501    0  0.00000000000E+00 -0.00000000000E+00 -0.44553577680E+01  0.44563282914E+01  0.93000000000E-01 0. -1.
         23    2    1    2    0    0  0.00000000000E+00  0.00000000000E+00  0.47774751970E+03  0.48665921473E+03  0.92706519188E+02 0.  0.
        -13    1    3    3    0    0  0.27795249401E+02 -0.37087512387E+02  0.23496639006E+03  0.23949378926E+03  0.10570000000E+00 0.  1.
         13    1    3    3    0    0 -0.27795249401E+02  0.37087512387E+02  0.24278112964E+03  0.24716542547E+03  0.10570000000E+00 0. -1.
<mgrwt>
<rscale>  0 0.92706519E+02</rscale>
<asrwt>0</asrwt>
<pdfrwt beam="2">  1        3 0.68551493E-03 0.92706519E+02</pdfrwt>
<pdfrwt beam="1">  1       -3 0.74185141E-01 0.92706519E+02</pdfrwt>
<totfact> 0.17426385E+04</totfact>
</mgrwt>
</event>
<event>
 5    1  0.1401471E+000  0.9016201E+02  0.7818608E-02  0.1302460E+00
         -3   -1    0    0    0  501 -0.00000000000E+00  0.00000000000E+00  0.26519852842E+02  0.26520015908E+02  0.93000000000E-01 0.  1.
          3   -1    0    0  501    0  0.00000000000E+00 -0.00000000000E+00 -0.76632623084E+02  0.76632679515E+02  0.93000000000E-01 0. -1.
         23    2    1    2    0    0  0.00000000000E+00  0.00000000000E+00 -0.50112770242E+02  0.10315269542E+03  0.90162014350E+02 0.  0.
        -13    1    3    3    0    0 -0.13377800178E+02  0.42953050559E+02 -0.21749228419E+02  0.49969692807E+02  0.10570000000E+00 0. -1.
         13    1    3    3    0    0  0.13377800178E+02 -0.42953050559E+02 -0.28363541823E+02  0.53183002616E+02  0.10570000000E+00 0.  1.
<mgrwt>
<rscale>  0 0.90162014E+02</rscale>
<asrwt>0</asrwt>
<pdfrwt beam="2">  1        3 0.11789651E-01 0.90162014E+02</pdfrwt>
<pdfrwt beam="1">  1       -3 0.40799943E-02 0.90162014E+02</pdfrwt>
<totfact> 0.35501685E+04</totfact>
</mgrwt>
</event>
<event>
 5    1  0.1401471E+000  0.8597213E+02  0.7818608E-02  0.1312910E+00
          3   -1    0    0  501    0  0.00000000000E+00  0.00000000000E+00  0.50858796477E+02  0.50858881507E+02  0.93000000000E-01 0. -1.
         -3   -1    0    0    0  501 -0.00000000000E+00 -0.00000000000E+00 -0.36331827745E+02  0.36331946773E+02  0.93000000000E-01 0.  1.
         23    2    1    2    0    0  0.00000000000E+00  0.00000000000E+00  0.14526968732E+02  0.87190828279E+02  0.85972133366E+02 0.  0.
        -13    1    3    3    0    0  0.41321167498E+01 -0.19987192366E+02  0.45631345433E+02  0.49987929603E+02  0.10570000000E+00 0. -1.
         13    1    3    3    0    0 -0.41321167498E+01  0.19987192366E+02 -0.31104376701E+02  0.37202898676E+02  0.10570000000E+00 0.  1.
<mgrwt>
<rscale>  0 0.85972133E+02</rscale>
<asrwt>0</asrwt>
<pdfrwt beam="1">  1        3 0.78244459E-02 0.85972133E+02</pdfrwt>
<pdfrwt beam="2">  1       -3 0.55895277E-02 0.85972133E+02</pdfrwt>
<totfact> 0.41809683E+04</totfact>
</mgrwt>
</event>
<event>
 5    1  0.1401471E+000  0.9084700E+02  0.7818608E-02  0.1300813E+00
          3   -1    0    0  501    0  0.00000000000E+00  0.00000000000E+00  0.89937687669E+01  0.89942495869E+01  0.93000000000E-01 0. -1.
         -3   -1    0    0    0  501 -0.00000000000E+00 -0.00000000000E+00 -0.22940712994E+03  0.22940714879E+03  0.93000000000E-01 0.  1.
         23    2    1    2    0    0  0.00000000000E+00  0.00000000000E+00 -0.22041336117E+03  0.23840139837E+03  0.90846997555E+02 0.  0.
        -13    1    3    3    0    0  0.37875956935E+02  0.57164604311E+01 -0.17427267273E+03  0.17843273710E+03  0.10570000000E+00 0.  1.
         13    1    3    3    0    0 -0.37875956935E+02 -0.57164604311E+01 -0.46140688436E+02  0.59968661277E+02  0.10570000000E+00 0. -1.
<mgrwt>
<rscale>  0 0.90846998E+02</rscale>
<asrwt>0</asrwt>
<pdfrwt beam="1">  1        3 0.13836953E-02 0.90846998E+02</pdfrwt>
<pdfrwt beam="2">  1       -3 0.35293439E-01 0.90846998E+02</pdfrwt>
<totfact> 0.26885083E+04</totfact>
</mgrwt>
</event>
<event>
 5    1  0.1401471E+000  0.9881491E+02  0.7818608E-02  0.1282808E+00
          3   -1    0    0  501    0  0.00000000000E+00  0.00000000000E+00  0.10468691337E+02  0.10469104418E+02  0.93000000000E-01 0. -1.
         -3   -1    0    0    0  501 -0.00000000000E+00 -0.00000000000E+00 -0.23317564896E+03  0.23317566750E+03  0.93000000000E-01 0.  1.
         23    2    1    2    0    0  0.00000000000E+00  0.00000000000E+00 -0.22270695762E+03  0.24364477192E+03  0.98814907338E+02 0.  0.
        -13    1    3    3    0    0  0.48144337098E+02 -0.33845529044E-01 -0.83984899145E+02  0.96805747748E+02  0.10570000000E+00 0. -1.
         13    1    3    3    0    0 -0.48144337098E+02  0.33845529044E-01 -0.13872205848E+03  0.14683902417E+03  0.10570000000E+00 0.  1.
<mgrwt>
<rscale>  0 0.98814907E+02</rscale>
<asrwt>0</asrwt>
<pdfrwt beam="1">  1        3 0.16106013E-02 0.98814907E+02</pdfrwt>
<pdfrwt beam="2">  1       -3 0.35873206E-01 0.98814907E+02</pdfrwt>
<totfact> 0.21221978E+04</totfact>
</mgrwt>
</event>
<event>
 5    1  0.1401471E+000  0.9063526E+02  0.7818608E-02  0.1301321E+00
         -3   -1    0    0    0  501 -0.00000000000E+00  0.00000000000E+00  0.10826726101E+02  0.10827125522E+02  0.93000000000E-01 0.  1.
          3   -1    0    0  501    0  0.00000000000E+00 -0.00000000000E+00 -0.18968292163E+03  0.18968294443E+03  0.93000000000E-01 0. -1.
         23    2    1    2    0    0  0.00000000000E+00  0.00000000000E+00 -0.17885619553E+03  0.20051006995E+03  0.90635255131E+02 0.  0.
        -13    1    3    3    0    0 -0.37347056121E+02 -0.22778584357E+02 -0.63251206258E+02  0.76905089375E+02  0.10570000000E+00 0. -1.
         13    1    3    3    0    0  0.37347056121E+02  0.22778584357E+02 -0.11560498927E+03  0.12360498058E+03  0.10570000000E+00 0.  1.
<mgrwt>
<rscale>  0 0.90635255E+02</rscale>
<asrwt>0</asrwt>
<pdfrwt beam="2">  1        3 0.29182018E-01 0.90635255E+02</pdfrwt>
<pdfrwt beam="1">  1       -3 0.16656828E-02 0.90635255E+02</pdfrwt>
<totfact> 0.28932980E+04</totfact>
</mgrwt>
</event>
<event>
 5    1  0.1401471E+000  0.9335726E+02  0.7818608E-02  0.1294919E+00
          3   -1    0    0  501    0  0.00000000000E+00  0.00000000000E+00  0.16320325359E+03  0.16320328008E+03  0.93000000000E-01 0. -1.
         -3   -1    0    0    0  501 -0.00000000000E+00 -0.00000000000E+00 -0.13350612824E+02  0.13350936738E+02  0.93000000000E-01 0.  1.
         23    2    1    2    0    0  0.00000000000E+00  0.00000000000E+00  0.14985264076E+03  0.17655421682E+03  0.93357257535E+02 0.  0.
        -13    1    3    3    0    0  0.31834893967E+02 -0.50715660656E+01  0.13877113877E+03  0.14246621138E+03  0.10570000000E+00 0. -1.
         13    1    3    3    0    0 -0.31834893967E+02  0.50715660656E+01  0.11081501991E+02  0.34088005444E+02  0.10570000000E+00 0.  1.
<mgrwt>
<rscale>  0 0.93357258E+02</rscale>
<asrwt>0</asrwt>
<pdfrwt beam="1">  1        3 0.25108219E-01 0.93357258E+02</pdfrwt>
<pdfrwt beam="2">  1       -3 0.20539675E-02 0.93357258E+02</pdfrwt>
<totfact> 0.27911066E+04</totfact>
</mgrwt>
</event>
<event>
 5    1  0.1401471E+000  0.9160551E+02  0.7818608E-02  0.1299010E+00
          3   -1    0    0  501    0  0.00000000000E+00  0.00000000000E+00  0.14256338600E+03  0.14256341634E+03  0.93000000000E-01 0. -1.
         -3   -1    0    0    0  501 -0.00000000000E+00 -0.00000000000E+00 -0.14715327349E+02  0.14715621223E+02  0.93000000000E-01 0.  1.
         23    2    1    2    0    0  0.00000000000E+00  0.00000000000E+00  0.12784805866E+03  0.15727903756E+03  0.91605510503E+02 0.  0.
        -13    1    3    3    0    0  0.79798555426E+01  0.44567299482E+02  0.52033969919E+02  0.68974397247E+02  0.10570000000E+00 0.  1.
         13    1    3    3    0    0 -0.79798555426E+01 -0.44567299482E+02  0.75814088737E+02  0.88304640315E+02  0.10570000000E+00 0. -1.
<mgrwt>
<rscale>  0 0.91605511E+02</rscale>
<asrwt>0</asrwt>
<pdfrwt beam="1">  1        3 0.21932854E-01 0.91605511E+02</pdfrwt>
<pdfrwt beam="2">  1       -3 0.22639214E-02 0.91605511E+02</pdfrwt>
<totfact> 0.30477475E+04</totfact>
</mgrwt>
</event>
<event>
 5    1  0.1401471E+000  0.8848674E+02  0.7818608E-02  0.1306558E+00
          3   -1    0    0  501    0  0.00000000000E+00  0.00000000000E+00  0.54421981308E+01  0.54429926965E+01  0.93000000000E-01 0. -1.
         -3   -1    0    0    0  501 -0.00000000000E+00 -0.00000000000E+00 -0.35965775160E+03  0.35965776362E+03  0.93000000000E-01 0.  1.
         23    2    1    2    0    0  0.00000000000E+00  0.00000000000E+00 -0.35421555347E+03  0.36510075632E+03  0.88486744467E+02 0.  0.
        -13    1    3    3    0    0 -0.43478332283E+02  0.66181396021E+01 -0.19702410821E+03  0.20187291928E+03  0.10570000000E+00 0.  1.
         13    1    3    3    0    0  0.43478332283E+02 -0.66181396021E+01 -0.15719144526E+03  0.16322783704E+03  0.10570000000E+00 0. -1.
<mgrwt>
<rscale>  0 0.88486744E+02</rscale>
<asrwt>0</asrwt>
<pdfrwt beam="1">  1        3 0.83732358E-03 0.88486744E+02</pdfrwt>
<pdfrwt beam="2">  1       -3 0.55332005E-01 0.88486744E+02</pdfrwt>
<totfact> 0.23506837E+04</totfact>
</mgrwt>
</event>
<event>
 5    1  0.1401471E+000  0.8862071E+02  0.7818608E-02  0.1306227E+00
          3   -1    0    0  501    0  0.00000000000E+00  0.00000000000E+00  0.18976943653E+02  0.18977171533E+02  0.93000000000E-01 0. -1.
         -3   -1    0    0    0  501 -0.00000000000E+00 -0.00000000000E+00 -0.10346192402E+03  0.10346196582E+03  0.93000000000E-01 0.  1.
         23    2    1    2    0    0  0.00000000000E+00  0.00000000000E+00 -0.84484980369E+02  0.12243913735E+03  0.88620711168E+02 0.  0.
        -13    1    3    3    0    0  0.14190125796E+02  0.34343618553E+02 -0.88958091557E+01  0.38209820707E+02  0.10570000000E+00 0. -1.
         13    1    3    3    0    0 -0.14190125796E+02 -0.34343618553E+02 -0.75589171213E+02  0.84229316646E+02  0.10570000000E+00 0.  1.
<mgrwt>
<rscale>  0 0.88620711E+02</rscale>
<asrwt>0</asrwt>
<pdfrwt beam="1">  1        3 0.29195506E-02 0.88620711E+02</pdfrwt>
<pdfrwt beam="2">  1       -3 0.15917239E-01 0.88620711E+02</pdfrwt>
<totfact> 0.35728882E+04</totfact>
</mgrwt>
</event>
<event>
 5    1  0.1401471E+000  0.9100947E+02  0.7818608E-02  0.1300425E+00
          3   -1    0    0  501    0  0.00000000000E+00  0.00000000000E+00  0.61307462442E+02  0.61307532980E+02  0.93000000000E-01 0. -1.
         -3   -1    0    0    0  501 -0.00000000000E+00 -0.00000000000E+00 -0.33775195504E+02  0.33775323541E+02  0.93000000000E-01 0.  1.
         23    2    1    2    0    0  0.00000000000E+00  0.00000000000E+00  0.27532266938E+02  0.95082856521E+02  0.91009471383E+02 0.  0.
        -13    1    3    3    0    0 -0.38249011187E+02 -0.66197481021E+01 -0.11042451557E+02  0.40357834811E+02  0.10570000000E+00 0.  1.
         13    1    3    3    0    0  0.38249011187E+02  0.66197481021E+01  0.38574718495E+02  0.54725021710E+02  0.10570000000E+00 0. -1.
<mgrwt>
<rscale>  0 0.91009471E+02</rscale>
<asrwt>0</asrwt>
<pdfrwt beam="1">  1        3 0.94319324E-02 0.91009471E+02</pdfrwt>
<pdfrwt beam="2">  1       -3 0.51961993E-02 0.91009471E+02</pdfrwt>
<totfact> 0.35215983E+04</totfact>
</mgrwt>
</event>
<event>
 5    1  0.1401471E+000  0.9193314E+02  0.7818608E-02  0.1298237E+00
         -3   -1    0    0    0  501 -0.00000000000E+00  0.00000000000E+00  0.73831195371E+01  0.73837052419E+01  0.93000000000E-01 0.  1.
          3   -1    0    0  501    0  0.00000000000E+00 -0.00000000000E+00 -0.28617137515E+03  0.28617139026E+03  0.93000000000E-01 0. -1.
         23    2    1    2    0    0  0.00000000000E+00  0.00000000000E+00 -0.27878825561E+03  0.29355509551E+03  0.91933142166E+02 0.  0.
        -13    1    3    3    0    0 -0.26873933786E+01  0.45411829011E+02 -0.11834406854E+03  0.12678637951E+03  0.10570000000E+00 0. -1.
         13    1    3    3    0    0  0.26873933786E+01 -0.45411829011E+02 -0.16044418707E+03  0.16676871600E+03  0.10570000000E+00 0.  1.
<mgrwt>
<rscale>  0 0.91933142E+02</rscale>
<asrwt>0</asrwt>
<pdfrwt beam="2">  1        3 0.44026403E-01 0.91933142E+02</pdfrwt>
<pdfrwt beam="1">  1       -3 0.11359110E-02 0.91933142E+02</pdfrwt>
<totfact> 0.23749154E+04</totfact>
</mgrwt>
</event>
<event>
 5    1  0.1401471E+000  0.1244432E+03  0.7818608E-02  0.1235942E+00
         -3   -1    0    0    0  501 -0.00000000000E+00  0.00000000000E+00  0.29945451073E+03  0.29945452517E+03  0.93000000000E-01 0.  1.
          3   -1    0    0  501    0  0.00000000000E+00 -0.00000000000E+00 -0.12928422952E+02  0.12928757444E+02  0.93000000000E-01 0. -1.
         23    2    1    2    0    0  0.00000000000E+00  0.00000000000E+00  0.28652608778E+03  0.31238328261E+03  0.12444322513E+03 0.  0.
        -13    1    3    3    0    0  0.47588731921E+02 -0.15678944058E+02  0.23587046305E+03  0.24113357958E+03  0.10570000000E+00 0.  1.
         13    1    3    3    0    0 -0.47588731921E+02  0.15678944058E+02  0.50655624729E+02  0.71249703030E+02  0.10570000000E+00 0. -1.
<mgrwt>
<rscale>  0 0.12444323E+03</rscale>
<asrwt>0</asrwt>
<pdfrwt beam="2">  1        3 0.19890150E-02 0.12444323E+03</pdfrwt>
<pdfrwt beam="1">  1       -3 0.46069951E-01 0.12444323E+03</pdfrwt>
<totfact> 0.10063159E+04</totfact>
</mgrwt>
</event>
<event>
 5    1  0.1401471E+000  0.8855222E+02  0.7818608E-02  0.1306396E+00
          3   -1    0    0  501    0  0.00000000000E+00  0.00000000000E+00  0.20768005487E+02  0.20768213715E+02  0.93000000000E-01 0. -1.
         -3   -1    0    0    0  501 -0.00000000000E+00 -0.00000000000E+00 -0.94393231954E+02  0.94393277768E+02  0.93000000000E-01 0.  1.
         23    2    1    2    0    0  0.00000000000E+00  0.00000000000E+00 -0.73625226467E+02  0.11516149148E+03  0.88552217071E+02 0.  0.
        -13    1    3    3    0    0  0.19516999186E+02  0.38332452923E+02 -0.50456781918E+02  0.66303757196E+02  0.10570000000E+00 0. -1.
         13    1    3    3    0    0 -0.19516999186E+02 -0.38332452923E+02 -0.23168444549E+02  0.48857734287E+02  0.10570000000E+00 0.  1.
<mgrwt>
<rscale>  0 0.88552217E+02</rscale>
<asrwt>0</asrwt>
<pdfrwt beam="1">  1        3 0.31950974E-02 0.88552217E+02</pdfrwt>
<pdfrwt beam="2">  1       -3 0.14522055E-01 0.88552217E+02</pdfrwt>
<totfact> 0.36346916E+04</totfact>
</mgrwt>
</event>
<event>
 5    1  0.1401471E+000  0.9167357E+02  0.7818608E-02  0.1298849E+00
         -3   -1    0    0    0  501 -0.00000000000E+00  0.00000000000E+00  0.38577372187E+02  0.38577484286E+02  0.93000000000E-01 0.  1.
          3   -1    0    0  501    0  0.00000000000E+00 -0.00000000000E+00 -0.54462023355E+02  0.54462102759E+02  0.93000000000E-01 0. -1.
         23    2    1    2    0    0  0.00000000000E+00  0.00000000000E+00 -0.15884651167E+02  0.93039587045E+02  0.91673565518E+02 0.  0.
        -13    1    3    3    0    0 -0.12410574619E+02  0.20409450943E+02  0.31761338638E+02  0.39741185875E+02  0.10570000000E+00 0.  1.
         13    1    3    3    0    0  0.12410574619E+02 -0.20409450943E+02 -0.47645989806E+02  0.53298401170E+02  0.10570000000E+00 0. -1.
<mgrwt>
<rscale>  0 0.91673566E+02</rscale>
<asrwt>0</asrwt>
<pdfrwt beam="2">  1        3 0.83787876E-02 0.91673566E+02</pdfrwt>
<pdfrwt beam="1">  1       -3 0.59349951E-02 0.91673566E+02</pdfrwt>
<totfact> 0.34678009E+04</totfact>
</mgrwt>
</event>
<event>
 5    1  0.1401471E+000  0.9014271E+02  0.7818608E-02  0.1302506E+00
          3   -1    0    0  501    0  0.00000000000E+00  0.00000000000E+00  0.25214829378E+03  0.25214831093E+03  0.93000000000E-01 0. -1.
         -3   -1    0    0    0  501 -0.00000000000E+00 -0.00000000000E+00 -0.80561913616E+01  0.80567281359E+01  0.93000000000E-01 0.  1.
         23    2    1    2    0    0  0.00000000000E+00  0.00000000000E+00  0.24409210242E+03  0.26020503907E+03  0.90142708482E+02 0.  0.
        -13    1    3    3    0    0  0.16496712414E+02  0.33220268889E+02  0.19596124545E+03  0.19944058934E+03  0.10570000000E+00 0. -1.
         13    1    3    3    0    0 -0.16496712414E+02 -0.33220268889E+02  0.48130856967E+02  0.60764449725E+02  0.10570000000E+00 0.  1.
<mgrwt>
<rscale>  0 0.90142708E+02</rscale>
<asrwt>0</asrwt>
<pdfrwt beam="1">  1        3 0.38792089E-01 0.90142708E+02</pdfrwt>
<pdfrwt beam="2">  1       -3 0.12394566E-02 0.90142708E+02</pdfrwt>
<totfact> 0.26454781E+04</totfact>
</mgrwt>
</event>
<event>
 5    1  0.1401471E+000  0.8967796E+02  0.7818608E-02  0.1303633E+00
         -3   -1    0    0    0  501 -0.00000000000E+00  0.00000000000E+00  0.14525116795E+03  0.14525119772E+03  0.93000000000E-01 0.  1.
          3   -1    0    0  501    0  0.00000000000E+00 -0.00000000000E+00 -0.13841587900E+02  0.13841900324E+02  0.93000000000E-01 0. -1.
         23    2    1    2    0    0  0.00000000000E+00  0.00000000000E+00  0.13140958005E+03  0.15909309804E+03  0.89677957809E+02 0.  0.
        -13    1    3    3    0    0 -0.23436928783E+02 -0.15689087152E+02  0.38648447275E+01  0.28467266882E+02  0.10570000000E+00 0.  1.
         13    1    3    3    0    0  0.23436928783E+02  0.15689087152E+02  0.12754473532E+03  0.13062583116E+03  0.10570000000E+00 0. -1.
<mgrwt>
<rscale>  0 0.89677958E+02</rscale>
<asrwt>0</asrwt>
<pdfrwt beam="2">  1        3 0.21295016E-02 0.89677958E+02</pdfrwt>
<pdfrwt beam="1">  1       -3 0.22346358E-01 0.89677958E+02</pdfrwt>
<totfact> 0.32168549E+04</totfact>
</mgrwt>
</event>
<event>
 5    1  0.1401471E+000  0.8963317E+02  0.7818608E-02  0.1303742E+00
          3   -1    0    0  501    0  0.00000000000E+00  0.00000000000E+00  0.16713544283E+02  0.16713803024E+02  0.93000000000E-01 0. -1.
         -3   -1    0    0    0  501 -0.00000000000E+00 -0.00000000000E+00 -0.12017235732E+03  0.12017239330E+03  0.93000000000E-01 0.  1.
         23    2    1    2    0    0  0.00000000000E+00  0.00000000000E+00 -0.10345881303E+03  0.13688619633E+03  0.89633167691E+02 0.  0.
        -13    1    3    3    0    0  0.43942822378E+02  0.83230140037E+01 -0.47337379015E+02  0.65123596531E+02  0.10570000000E+00 0. -1.
         13    1    3    3    0    0 -0.43942822378E+02 -0.83230140037E+01 -0.56121434017E+02  0.71762599795E+02  0.10570000000E+00 0.  1.
<mgrwt>
<rscale>  0 0.89633168E+02</rscale>
<asrwt>0</asrwt>
<pdfrwt beam="1">  1        3 0.25713373E-02 0.89633168E+02</pdfrwt>
<pdfrwt beam="2">  1       -3 0.18488077E-01 0.89633168E+02</pdfrwt>
<totfact> 0.33648933E+04</totfact>
</mgrwt>
</event>
<event>
 5    1  0.1401471E+000  0.9699189E+02  0.7818608E-02  0.1286752E+00
         -3   -1    0    0    0  501 -0.00000000000E+00  0.00000000000E+00  0.12121411663E+02  0.12121768423E+02  0.93000000000E-01 0.  1.
          3   -1    0    0  501    0  0.00000000000E+00 -0.00000000000E+00 -0.19402174517E+03  0.19402176746E+03  0.93000000000E-01 0. -1.
         23    2    1    2    0    0  0.00000000000E+00  0.00000000000E+00 -0.18190033350E+03  0.20614353588E+03  0.96991886546E+02 0.  0.
        -13    1    3    3    0    0  0.14615215455E+02 -0.37966301158E+02 -0.34846837576E+02  0.53566386923E+02  0.10570000000E+00 0.  1.
         13    1    3    3    0    0 -0.14615215455E+02  0.37966301158E+02 -0.14705349593E+03  0.15257714896E+03  0.10570000000E+00 0. -1.
<mgrwt>
<rscale>  0 0.96991887E+02</rscale>
<asrwt>0</asrwt>
<pdfrwt beam="2">  1        3 0.29849526E-01 0.96991887E+02</pdfrwt>
<pdfrwt beam="1">  1       -3 0.18648619E-02 0.96991887E+02</pdfrwt>
<totfact> 0.23836441E+04</totfact>
</mgrwt>
</event>
<event>
 5    1  0.1401471E+000  0.9052037E+02  0.7818608E-02  0.1301596E+00
         -3   -1    0    0    0  501 -0.00000000000E+00  0.00000000000E+00  0.56655854789E+02  0.56655931119E+02  0.93000000000E-01 0.  1.
          3   -1    0    0  501    0  0.00000000000E+00 -0.00000000000E+00 -0.36156461436E+02  0.36156581041E+02  0.93000000000E-01 0. -1.
         23    2    1    2    0    0  0.00000000000E+00  0.00000000000E+00  0.20499393354E+02  0.92812512159E+02  0.90520369451E+02 0.  0.
        -13    1    3    3    0    0  0.12374470694E+02 -0.26511725685E+02 -0.25156939959E+02  0.38586032762E+02  0.10570000000E+00 0. -1.
         13    1    3    3    0    0 -0.12374470694E+02  0.26511725685E+02  0.45656333312E+02  0.54226479397E+02  0.10570000000E+00 0.  1.
<mgrwt>
<rscale>  0 0.90520369E+02</rscale>
<asrwt>0</asrwt>
<pdfrwt beam="2">  1        3 0.55625476E-02 0.90520369E+02</pdfrwt>
<pdfrwt beam="1">  1       -3 0.87163004E-02 0.90520369E+02</pdfrwt>
<totfact> 0.35913068E+04</totfact>
</mgrwt>
</event>
<event>
 5    1  0.1401471E+000  0.8850034E+02  0.7818608E-02  0.1306525E+00
          3   -1    0    0  501    0  0.00000000000E+00  0.00000000000E+00  0.85292676899E+02  0.85292727601E+02  0.93000000000E-01 0. -1.
         -3   -1    0    0    0  501 -0.00000000000E+00 -0.00000000000E+00 -0.22957008217E+02  0.22957196590E+02  0.93000000000E-01 0.  1.
         23    2    1    2    0    0  0.00000000000E+00  0.00000000000E+00  0.62335668682E+02  0.10824992419E+03  0.88500341793E+02 0.  0.
        -13    1    3    3    0    0  0.41163302511E+02 -0.74420714659E+01  0.13515980222E+02  0.43960150082E+02  0.10570000000E+00 0.  1.
         13    1    3    3    0    0 -0.41163302511E+02  0.74420714659E+01  0.48819688460E+02  0.64289774110E+02  0.10570000000E+00 0. -1.
<mgrwt>
<rscale>  0 0.88500342E+02</rscale>
<asrwt>0</asrwt>
<pdfrwt beam="1">  1        3 0.13121969E-01 0.88500342E+02</pdfrwt>
<pdfrwt beam="2">  1       -3 0.35318658E-02 0.88500342E+02</pdfrwt>
<totfact> 0.36934994E+04</totfact>
</mgrwt>
</event>
<event>
 5    1  0.1401471E+000  0.9172715E+02  0.7818608E-02  0.1298722E+00
         -3   -1    0    0    0  501 -0.00000000000E+00  0.00000000000E+00  0.11387294578E+02  0.11387674337E+02  0.93000000000E-01 0.  1.
          3   -1    0    0  501    0  0.00000000000E+00 -0.00000000000E+00 -0.18471708470E+03  0.18471710812E+03  0.93000000000E-01 0. -1.
         23    2    1    2    0    0  0.00000000000E+00  0.00000000000E+00 -0.17332979013E+03  0.19610478245E+03  0.91727147321E+02 0.  0.
        -13    1    3    3    0    0  0.27473624050E+01  0.45203679291E+02 -0.71168983671E+02  0.84356126221E+02  0.10570000000E+00 0.  1.
         13    1    3    3    0    0 -0.27473624050E+01 -0.45203679291E+02 -0.10216080645E+03  0.11174865623E+03  0.10570000000E+00 0. -1.
<mgrwt>
<rscale>  0 0.91727147E+02</rscale>
<asrwt>0</asrwt>
<pdfrwt beam="2">  1        3 0.28418042E-01 0.91727147E+02</pdfrwt>
<pdfrwt beam="1">  1       -3 0.17519226E-02 0.91727147E+02</pdfrwt>
<totfact> 0.28238043E+04</totfact>
</mgrwt>
</event>
<event>
 5    1  0.1401471E+000  0.9480496E+02  0.7818608E-02  0.1291616E+00
         -3   -1    0    0    0  501 -0.00000000000E+00  0.00000000000E+00  0.62055561478E+02  0.62055631165E+02  0.93000000000E-01 0.  1.
          3   -1    0    0  501    0  0.00000000000E+00 -0.00000000000E+00 -0.36209258533E+02  0.36209377964E+02  0.93000000000E-01 0. -1.
         23    2    1    2    0    0  0.00000000000E+00  0.00000000000E+00  0.25846302944E+02  0.98265009129E+02  0.94804961069E+02 0.  0.
        -13    1    3    3    0    0  0.81513064173E+01  0.15637772884E+02  0.58528999874E+02  0.61128051955E+02  0.10570000000E+00 0.  1.
         13    1    3    3    0    0 -0.81513064173E+01 -0.15637772884E+02 -0.32682696929E+02  0.37136957174E+02  0.10570000000E+00 0. -1.
<mgrwt>
<rscale>  0 0.94804961E+02</rscale>
<asrwt>0</asrwt>
<pdfrwt beam="2">  1        3 0.55706697E-02 0.94804961E+02</pdfrwt>
<pdfrwt beam="1">  1       -3 0.95470240E-02 0.94804961E+02</pdfrwt>
<totfact> 0.31281672E+04</totfact>
</mgrwt>
</event>
<event>
 5    1  0.1401471E+000  0.9545694E+02  0.7818608E-02  0.1290150E+00
         -3   -1    0    0    0  501 -0.00000000000E+00  0.00000000000E+00  0.11024246069E+03  0.11024249991E+03  0.93000000000E-01 0.  1.
          3   -1    0    0  501    0  0.00000000000E+00 -0.00000000000E+00 -0.20663458344E+02  0.20663667625E+02  0.93000000000E-01 0. -1.
         23    2    1    2    0    0  0.00000000000E+00  0.00000000000E+00  0.89579002342E+02  0.13090616754E+03  0.95456938140E+02 0.  0.
        -13    1    3    3    0    0 -0.70582665961E+01  0.25024128409E+02 -0.10098791801E+02  0.27893061830E+02  0.10570000000E+00 0. -1.
         13    1    3    3    0    0  0.70582665961E+01 -0.25024128409E+02  0.99677794143E+02  0.10301310571E+03  0.10570000000E+00 0.  1.
<mgrwt>
<rscale>  0 0.95456938E+02</rscale>
<asrwt>0</asrwt>
<pdfrwt beam="2">  1        3 0.31790127E-02 0.95456938E+02</pdfrwt>
<pdfrwt beam="1">  1       -3 0.16960398E-01 0.95456938E+02</pdfrwt>
<totfact> 0.28697717E+04</totfact>
</mgrwt>
</event>
<event>
 5    1  0.1401471E+000  0.9176734E+02  0.7818608E-02  0.1298627E+00
         -3   -1    0    0    0  501 -0.00000000000E+00  0.00000000000E+00  0.11187724473E+03  0.11187728339E+03  0.93000000000E-01 0.  1.
          3   -1    0    0  501    0  0.00000000000E+00 -0.00000000000E+00 -0.18817889712E+02  0.18818119519E+02  0.93000000000E-01 0. -1.
         23    2    1    2    0    0  0.00000000000E+00  0.00000000000E+00  0.93059355022E+02  0.13069540291E+03  0.91767340507E+02 0.  0.
        -13    1    3    3    0    0  0.18755760781E+02 -0.25540919404E+02  0.93790567421E+02  0.98998984016E+02  0.10570000000E+00 0.  1.
         13    1    3    3    0    0 -0.18755760781E+02  0.25540919404E+02 -0.73121239910E+00  0.31696418891E+02  0.10570000000E+00 0. -1.
<mgrwt>
<rscale>  0 0.91767341E+02</rscale>
<asrwt>0</asrwt>
<pdfrwt beam="2">  1        3 0.28950806E-02 0.91767341E+02</pdfrwt>
<pdfrwt beam="1">  1       -3 0.17211905E-01 0.91767341E+02</pdfrwt>
<totfact> 0.31965919E+04</totfact>
</mgrwt>
</event>
<event>
 5    1  0.1401471E+000  0.9318168E+02  0.7818608E-02  0.1295325E+00
         -3   -1    0    0    0  501 -0.00000000000E+00  0.00000000000E+00  0.38795346157E+02  0.38795457626E+02  0.93000000000E-01 0.  1.
          3   -1    0    0  501    0  0.00000000000E+00 -0.00000000000E+00 -0.55952526043E+02  0.55952603332E+02  0.93000000000E-01 0. -1.
         23    2    1    2    0    0  0.00000000000E+00  0.00000000000E+00 -0.17157179887E+02  0.94748060958E+02  0.93181684003E+02 0.  0.
        -13    1    3    3    0    0  0.38998533583E+02 -0.20724278969E+02 -0.23671078278E+02  0.50107010285E+02  0.10570000000E+00 0. -1.
         13    1    3    3    0    0 -0.38998533583E+02  0.20724278969E+02  0.65138983908E+01  0.44641050673E+02  0.10570000000E+00 0.  1.
<mgrwt>
<rscale>  0 0.93181684E+02</rscale>
<asrwt>0</asrwt>
<pdfrwt beam="2">  1        3 0.86080955E-02 0.93181684E+02</pdfrwt>
<pdfrwt beam="1">  1       -3 0.59685293E-02 0.93181684E+02</pdfrwt>
<totfact> 0.33043756E+04</totfact>
</mgrwt>
</event>
<event>
 5    1  0.1401471E+000  0.8972873E+02  0.7818608E-02  0.1303510E+00
          3   -1    0    0  501    0  0.00000000000E+00  0.00000000000E+00  0.45076382903E+03  0.45076383862E+03  0.93000000000E-01 0. -1.
         -3   -1    0    0    0  501 -0.00000000000E+00 -0.00000000000E+00 -0.44648408837E+01  0.44658093462E+01  0.93000000000E-01 0.  1.
         23    2    1    2    0    0  0.00000000000E+00  0.00000000000E+00  0.44629898815E+03  0.45522964797E+03  0.89728733248E+02 0.  0.
        -13    1    3    3    0    0 -0.43021335044E+02 -0.96328724252E+01  0.18095396577E+03  0.18624708427E+03  0.10570000000E+00 0. -1.
         13    1    3    3    0    0  0.43021335044E+02  0.96328724252E+01  0.26534502238E+03  0.26898256370E+03  0.10570000000E+00 0.  1.
<mgrwt>
<rscale>  0 0.89728733E+02</rscale>
<asrwt>0</asrwt>
<pdfrwt beam="1">  1        3 0.69348370E-01 0.89728733E+02</pdfrwt>
<pdfrwt beam="2">  1       -3 0.68697370E-03 0.89728733E+02</pdfrwt>
<totfact> 0.19879189E+04</totfact>
</mgrwt>
</event>
<event>
 5    1  0.1401471E+000  0.9011247E+02  0.7818608E-02  0.1302580E+00
          3   -1    0    0  501    0  0.00000000000E+00  0.00000000000E+00  0.13146296141E+02  0.13146625088E+02  0.93000000000E-01 0. -1.
         -3   -1    0    0    0  501 -0.00000000000E+00 -0.00000000000E+00 -0.15441873991E+03  0.15441876792E+03  0.93000000000E-01 0.  1.
         23    2    1    2    0    0  0.00000000000E+00  0.00000000000E+00 -0.14127244377E+03  0.16756539301E+03  0.90112471745E+02 0.  0.
        -13    1    3    3    0    0 -0.35659663521E+02  0.25166698291E+02 -0.49839663171E+02  0.66249358509E+02  0.10570000000E+00 0. -1.
         13    1    3    3    0    0  0.35659663521E+02 -0.25166698291E+02 -0.91432780600E+02  0.10131603450E+03  0.10570000000E+00 0.  1.
<mgrwt>
<rscale>  0 0.90112472E+02</rscale>
<asrwt>0</asrwt>
<pdfrwt beam="1">  1        3 0.20225347E-02 0.90112472E+02</pdfrwt>
<pdfrwt beam="2">  1       -3 0.23756755E-01 0.90112472E+02</pdfrwt>
<totfact> 0.31240902E+04</totfact>
</mgrwt>
</event>
<event>
 5    1  0.1401471E+000  0.9043566E+02  0.7818608E-02  0.1301800E+00
         -3   -1    0    0    0  501 -0.00000000000E+00  0.00000000000E+00  0.93631373582E+02  0.93631419769E+02  0.93000000000E-01 0.  1.
          3   -1    0    0  501    0  0.00000000000E+00 -0.00000000000E+00 -0.21837104259E+02  0.21837302293E+02  0.93000000000E-01 0. -1.
         23    2    1    2    0    0  0.00000000000E+00  0.00000000000E+00  0.71794269323E+02  0.11546872206E+03  0.90435660371E+02 0.  0.
        -13    1    3    3    0    0  0.30298607203E+02  0.47235283883E+01 -0.65328462743E+01  0.31352935617E+02  0.10570000000E+00 0. -1.
         13    1    3    3    0    0 -0.30298607203E+02 -0.47235283883E+01  0.78327115597E+02  0.84115786444E+02  0.10570000000E+00 0.  1.
<mgrwt>
<rscale>  0 0.90435660E+02</rscale>
<asrwt>0</asrwt>
<pdfrwt beam="2">  1        3 0.33595733E-02 0.90435660E+02</pdfrwt>
<pdfrwt beam="1">  1       -3 0.14404846E-01 0.90435660E+02</pdfrwt>
<totfact> 0.34312248E+04</totfact>
</mgrwt>
</event>
<event>
 5    1  0.1401471E+000  0.8650766E+02  0.7818608E-02  0.1311536E+00
          3   -1    0    0  501    0  0.00000000000E+00  0.00000000000E+00  0.11032418844E+03  0.11032422763E+03  0.93000000000E-01 0. -1.
         -3   -1    0    0    0  501 -0.00000000000E+00 -0.00000000000E+00 -0.16957976493E+02  0.16958231503E+02  0.93000000000E-01 0.  1.
         23    2    1    2    0    0  0.00000000000E+00  0.00000000000E+00  0.93366211943E+02  0.12728245914E+03  0.86507657878E+02 0.  0.
        -13    1    3    3    0    0  0.36094639646E+02 -0.14239216294E+02  0.74804792828E+02  0.84269487328E+02  0.10570000000E+00 0. -1.
         13    1    3    3    0    0 -0.36094639646E+02  0.14239216294E+02  0.18561419115E+02  0.43012971810E+02  0.10570000000E+00 0.  1.
<mgrwt>
<rscale>  0 0.86507658E+02</rscale>
<asrwt>0</asrwt>
<pdfrwt beam="1">  1        3 0.16972975E-01 0.86507658E+02</pdfrwt>
<pdfrwt beam="2">  1       -3 0.26089421E-02 0.86507658E+02</pdfrwt>
<totfact> 0.37753152E+04</totfact>
</mgrwt>
</event>
<event>
 5    1  0.1401471E+000  0.8796879E+02  0.7818608E-02  0.1307846E+00
          3   -1    0    0  501    0  0.00000000000E+00  0.00000000000E+00  0.10381758908E+03  0.10381763074E+03  0.93000000000E-01 0. -1.
         -3   -1    0    0    0  501 -0.00000000000E+00 -0.00000000000E+00 -0.18634704996E+02  0.18634937061E+02  0.93000000000E-01 0.  1.
         23    2    1    2    0    0  0.00000000000E+00  0.00000000000E+00  0.85182884085E+02  0.12245256780E+03  0.87968787754E+02 0.  0.
        -13    1    3    3    0    0 -0.26966235421E+02  0.32269651142E+02  0.24650968450E+02  0.48746175805E+02  0.10570000000E+00 0.  1.
         13    1    3    3    0    0  0.26966235421E+02 -0.32269651142E+02  0.60531915635E+02  0.73706391992E+02  0.10570000000E+00 0. -1.
<mgrwt>
<rscale>  0 0.87968788E+02</rscale>
<asrwt>0</asrwt>
<pdfrwt beam="1">  1        3 0.15971958E-01 0.87968788E+02</pdfrwt>
<pdfrwt beam="2">  1       -3 0.28668987E-02 0.87968788E+02</pdfrwt>
<totfact> 0.36445383E+04</totfact>
</mgrwt>
</event>
<event>
 5    1  0.1401471E+000  0.9114882E+02  0.7818608E-02  0.1300093E+00
         -3   -1    0    0    0  501 -0.00000000000E+00  0.00000000000E+00  0.24235282144E+02  0.24235460581E+02  0.93000000000E-01 0. -1.
          3   -1    0    0  501    0  0.00000000000E+00 -0.00000000000E+00 -0.85702093720E+02  0.85702144179E+02  0.93000000000E-01 0.  1.
         23    2    1    2    0    0  0.00000000000E+00  0.00000000000E+00 -0.61466811576E+02  0.10993760476E+03  0.91148823443E+02 0.  0.
        -13    1    3    3    0    0  0.28212981329E+02  0.22625098946E+02  0.27169142926E+01  0.36266516424E+02  0.10570000000E+00 0. -1.
         13    1    3    3    0    0 -0.28212981329E+02 -0.22625098946E+02 -0.64183725869E+02  0.73671088336E+02  0.10570000000E+00 0.  1.
<mgrwt>
<rscale>  0 0.91148823E+02</rscale>
<asrwt>0</asrwt>
<pdfrwt beam="2">  1        3 0.13184955E-01 0.91148823E+02</pdfrwt>
<pdfrwt beam="1">  1       -3 0.37285226E-02 0.91148823E+02</pdfrwt>
<totfact> 0.33977607E+04</totfact>
</mgrwt>
</event>
<event>
 5    1  0.1401471E+000  0.9158202E+02  0.7818608E-02  0.1299065E+00
          3   -1    0    0  501    0  0.00000000000E+00  0.00000000000E+00  0.11079950445E+02  0.11080340738E+02  0.93000000000E-01 0. -1.
         -3   -1    0    0    0  501 -0.00000000000E+00 -0.00000000000E+00 -0.18924048149E+03  0.18924050434E+03  0.93000000000E-01 0.  1.
         23    2    1    2    0    0  0.00000000000E+00  0.00000000000E+00 -0.17816053104E+03  0.20032084508E+03  0.91582018710E+02 0.  0.
        -13    1    3    3    0    0  0.36388667466E+02 -0.31590993945E+01 -0.14948765294E+03  0.15388529684E+03  0.10570000000E+00 0.  1.
         13    1    3    3    0    0 -0.36388667466E+02  0.31590993945E+01 -0.28672878097E+02  0.46435548234E+02  0.10570000000E+00 0. -1.
<mgrwt>
<rscale>  0 0.91582019E+02</rscale>
<asrwt>0</asrwt>
<pdfrwt beam="1">  1        3 0.17046397E-02 0.91582019E+02</pdfrwt>
<pdfrwt beam="2">  1       -3 0.29113950E-01 0.91582019E+02</pdfrwt>
<totfact> 0.28141434E+04</totfact>
</mgrwt>
</event>
<event>
 5    1  0.1401471E+000  0.9089222E+02  0.7818608E-02  0.1300705E+00
          3   -1    0    0  501    0  0.00000000000E+00  0.00000000000E+00  0.58596592909E+02  0.58596666710E+02  0.93000000000E-01 0. -1.
         -3   -1    0    0    0  501 -0.00000000000E+00 -0.00000000000E+00 -0.35246757576E+02  0.35246880268E+02  0.93000000000E-01 0.  1.
         23    2    1    2    0    0  0.00000000000E+00  0.00000000000E+00  0.23349835333E+02  0.93843546978E+02  0.90892224637E+02 0.  0.
        -13    1    3    3    0    0  0.13589234286E+02 -0.41662443275E+02 -0.75387901250E+00  0.43829282154E+02  0.10570000000E+00 0.  1.
         13    1    3    3    0    0 -0.13589234286E+02  0.41662443275E+02  0.24103714346E+02  0.50014264824E+02  0.10570000000E+00 0. -1.
<mgrwt>
<rscale>  0 0.90892225E+02</rscale>
<asrwt>0</asrwt>
<pdfrwt beam="1">  1        3 0.90148755E-02 0.90892225E+02</pdfrwt>
<pdfrwt beam="2">  1       -3 0.54225933E-02 0.90892225E+02</pdfrwt>
<totfact> 0.35434999E+04</totfact>
</mgrwt>
</event>
<event>
 5    1  0.1401471E+000  0.9111116E+02  0.7818608E-02  0.1300183E+00
         -3   -1    0    0    0  501 -0.00000000000E+00  0.00000000000E+00  0.14280029156E+02  0.14280331988E+02  0.93000000000E-01 0.  1.
          3   -1    0    0  501    0  0.00000000000E+00 -0.00000000000E+00 -0.14532774527E+03  0.14532777503E+03  0.93000000000E-01 0. -1.
         23    2    1    2    0    0  0.00000000000E+00  0.00000000000E+00 -0.13104771611E+03  0.15960810702E+03  0.91111162468E+02 0.  0.
        -13    1    3    3    0    0 -0.37388111716E+01 -0.34026137249E+02 -0.12866654430E+02  0.36569368244E+02  0.10570000000E+00 0.  1.
         13    1    3    3    0    0  0.37388111716E+01  0.34026137249E+02 -0.11818106168E+03  0.12303873877E+03  0.10570000000E+00 0. -1.
<mgrwt>
<rscale>  0 0.91111162E+02</rscale>
<asrwt>0</asrwt>
<pdfrwt beam="2">  1        3 0.22358139E-01 0.91111162E+02</pdfrwt>
<pdfrwt beam="1">  1       -3 0.21969532E-02 0.91111162E+02</pdfrwt>
<totfact> 0.30789469E+04</totfact>
</mgrwt>
</event>
<event>
 5    1  0.1401471E+000  0.9204751E+02  0.7818608E-02  0.1297968E+00
         -3   -1    0    0    0  501 -0.00000000000E+00  0.00000000000E+00  0.14607618299E+03  0.14607621259E+03  0.93000000000E-01 0.  1.
          3   -1    0    0  501    0  0.00000000000E+00 -0.00000000000E+00 -0.14500377309E+02  0.14500675539E+02  0.93000000000E-01 0. -1.
         23    2    1    2    0    0  0.00000000000E+00  0.00000000000E+00  0.13157580568E+03  0.16057688813E+03  0.92047511439E+02 0.  0.
        -13    1    3    3    0    0  0.26916258184E+02  0.81143010151E+01  0.22189318941E+01  0.28200384161E+02  0.10570000000E+00 0. -1.
         13    1    3    3    0    0 -0.26916258184E+02 -0.81143010151E+01  0.12935687379E+03  0.13237650397E+03  0.10570000000E+00 0.  1.
<mgrwt>
<rscale>  0 0.92047511E+02</rscale>
<asrwt>0</asrwt>
<pdfrwt beam="2">  1        3 0.22308524E-02 0.92047511E+02</pdfrwt>
<pdfrwt beam="1">  1       -3 0.22473285E-01 0.92047511E+02</pdfrwt>
<totfact> 0.29892584E+04</totfact>
</mgrwt>
</event>
<event>
 5    1  0.1401471E+000  0.9090010E+02  0.7818608E-02  0.1300687E+00
          3   -1    0    0  501    0  0.00000000000E+00  0.00000000000E+00  0.53388822695E+02  0.53388903695E+02  0.93000000000E-01 0. -1.
         -3   -1    0    0    0  501 -0.00000000000E+00 -0.00000000000E+00 -0.38691582610E+02  0.38691694379E+02  0.93000000000E-01 0.  1.
         23    2    1    2    0    0  0.00000000000E+00  0.00000000000E+00  0.14697240084E+02  0.92080598073E+02  0.90900097225E+02 0.  0.
        -13    1    3    3    0    0  0.36870455485E+02 -0.26141179047E+01 -0.19441608769E+02  0.41764236185E+02  0.10570000000E+00 0.  1.
         13    1    3    3    0    0 -0.36870455485E+02  0.26141179047E+01  0.34138848853E+02  0.50316361888E+02  0.10570000000E+00 0. -1.
<mgrwt>
<rscale>  0 0.90900097E+02</rscale>
<asrwt>0</asrwt>
<pdfrwt beam="1">  1        3 0.82136798E-02 0.90900097E+02</pdfrwt>
<pdfrwt beam="2">  1       -3 0.59525660E-02 0.90900097E+02</pdfrwt>
<totfact> 0.35562708E+04</totfact>
</mgrwt>
</event>
<event>
 5    1  0.1401471E+000  0.9021072E+02  0.7818608E-02  0.1302342E+00
          3   -1    0    0  501    0  0.00000000000E+00  0.00000000000E+00  0.94773561815E+02  0.94773607444E+02  0.93000000000E-01 0. -1.
         -3   -1    0    0    0  501 -0.00000000000E+00 -0.00000000000E+00 -0.21466735591E+02  0.21466937041E+02  0.93000000000E-01 0.  1.
         23    2    1    2    0    0  0.00000000000E+00  0.00000000000E+00  0.73306826224E+02  0.11624054449E+03  0.90210716721E+02 0.  0.
        -13    1    3    3    0    0  0.18537743024E+02 -0.41109243959E+02  0.37851361331E+02  0.58875755472E+02  0.10570000000E+00 0.  1.
         13    1    3    3    0    0 -0.18537743024E+02  0.41109243959E+02  0.35455464893E+02  0.57364789014E+02  0.10570000000E+00 0. -1.
<mgrwt>
<rscale>  0 0.90210717E+02</rscale>
<asrwt>0</asrwt>
<pdfrwt beam="1">  1        3 0.14580567E-01 0.90210717E+02</pdfrwt>
<pdfrwt beam="2">  1       -3 0.33025937E-02 0.90210717E+02</pdfrwt>
<totfact> 0.34487380E+04</totfact>
</mgrwt>
</event>
<event>
 5    1  0.1401471E+000  0.9049937E+02  0.7818608E-02  0.1301647E+00
          3   -1    0    0  501    0  0.00000000000E+00  0.00000000000E+00  0.70337367675E+02  0.70337429158E+02  0.93000000000E-01 0. -1.
         -3   -1    0    0    0  501 -0.00000000000E+00 -0.00000000000E+00 -0.29110039610E+02  0.29110188166E+02  0.93000000000E-01 0.  1.
         23    2    1    2    0    0  0.00000000000E+00  0.00000000000E+00  0.41227328066E+02  0.99447617324E+02  0.90499370230E+02 0.  0.
        -13    1    3    3    0    0 -0.21916144265E+01  0.44890906901E+02  0.14848370314E+02  0.47333729724E+02  0.10570000000E+00 0.  1.
         13    1    3    3    0    0  0.21916144265E+01 -0.44890906901E+02  0.26378957752E+02  0.52113887600E+02  0.10570000000E+00 0. -1.
<mgrwt>
<rscale>  0 0.90499370E+02</rscale>
<asrwt>0</asrwt>
<pdfrwt beam="1">  1        3 0.10821150E-01 0.90499370E+02</pdfrwt>
<pdfrwt beam="2">  1       -3 0.44784838E-02 0.90499370E+02</pdfrwt>
<totfact> 0.35422859E+04</totfact>
</mgrwt>
</event>
<event>
 5    1  0.1401471E+000  0.9153629E+02  0.7818608E-02  0.1299173E+00
         -3   -1    0    0    0  501 -0.00000000000E+00  0.00000000000E+00  0.18633186685E+02  0.18633418770E+02  0.93000000000E-01 0.  1.
          3   -1    0    0  501    0  0.00000000000E+00 -0.00000000000E+00 -0.11241798718E+03  0.11241802565E+03  0.93000000000E-01 0. -1.
         23    2    1    2    0    0  0.00000000000E+00  0.00000000000E+00 -0.93784800493E+02  0.13105144442E+03  0.91536289415E+02 0.  0.
        -13    1    3    3    0    0 -0.19154383162E+02 -0.16556810911E+02  0.76940603024E+01  0.26461823790E+02  0.10570000000E+00 0.  1.
         13    1    3    3    0    0  0.19154383162E+02  0.16556810911E+02 -0.10147886080E+03  0.10458962063E+03  0.10570000000E+00 0. -1.
<mgrwt>
<rscale>  0 0.91536289E+02</rscale>
<asrwt>0</asrwt>
<pdfrwt beam="2">  1        3 0.17295095E-01 0.91536289E+02</pdfrwt>
<pdfrwt beam="1">  1       -3 0.28666650E-02 0.91536289E+02</pdfrwt>
<totfact> 0.32161077E+04</totfact>
</mgrwt>
</event>
<event>
 5    1  0.1401471E+000  0.9214447E+02  0.7818608E-02  0.1297740E+00
         -3   -1    0    0    0  501 -0.00000000000E+00  0.00000000000E+00  0.28192472763E+02  0.28192626155E+02  0.93000000000E-01 0.  1.
          3   -1    0    0  501    0  0.00000000000E+00 -0.00000000000E+00 -0.75291015682E+02  0.75291073119E+02  0.93000000000E-01 0. -1.
         23    2    1    2    0    0  0.00000000000E+00  0.00000000000E+00 -0.47098542918E+02  0.10348369927E+03  0.92144469559E+02 0.  0.
        -13    1    3    3    0    0 -0.25831248651E+02  0.22055653961E+02  0.11408991985E+02  0.35831292875E+02  0.10570000000E+00 0.  1.
         13    1    3    3    0    0  0.25831248651E+02 -0.22055653961E+02 -0.58507534904E+02  0.67652406398E+02  0.10570000000E+00 0. -1.
<mgrwt>
<rscale>  0 0.92144470E+02</rscale>
<asrwt>0</asrwt>
<pdfrwt beam="2">  1        3 0.11583249E-01 0.92144470E+02</pdfrwt>
<pdfrwt beam="1">  1       -3 0.43373198E-02 0.92144470E+02</pdfrwt>
<totfact> 0.33438209E+04</totfact>
</mgrwt>
</event>
<event>
 5    1  0.1401471E+000  0.9150198E+02  0.7818608E-02  0.1299255E+00
          3   -1    0    0  501    0  0.00000000000E+00  0.00000000000E+00  0.17208592013E+03  0.17208594526E+03  0.93000000000E-01 0. -1.
         -3   -1    0    0    0  501 -0.00000000000E+00 -0.00000000000E+00 -0.12163214668E+02  0.12163570202E+02  0.93000000000E-01 0.  1.
         23    2    1    2    0    0  0.00000000000E+00  0.00000000000E+00  0.15992270546E+03  0.18424951546E+03  0.91501979351E+02 0.  0.
        -13    1    3    3    0    0 -0.33608797962E+02  0.21638121439E+02  0.35144010195E+02  0.53224733206E+02  0.10570000000E+00 0.  1.
         13    1    3    3    0    0  0.33608797962E+02 -0.21638121439E+02  0.12477869526E+03  0.13102478225E+03  0.10570000000E+00 0. -1.
<mgrwt>
<rscale>  0 0.91501979E+02</rscale>
<asrwt>0</asrwt>
<pdfrwt beam="1">  1        3 0.26474785E-01 0.91501979E+02</pdfrwt>
<pdfrwt beam="2">  1       -3 0.18712931E-02 0.91501979E+02</pdfrwt>
<totfact> 0.29052450E+04</totfact>
</mgrwt>
</event>
<event>
 5    1  0.1401471E+000  0.9831781E+02  0.7818608E-02  0.1283874E+00
          3   -1    0    0  501    0  0.00000000000E+00  0.00000000000E+00  0.32294722526E+03  0.32294723865E+03  0.93000000000E-01 0. -1.
         -3   -1    0    0    0  501 -0.00000000000E+00 -0.00000000000E+00 -0.74826473241E+01  0.74832252390E+01  0.93000000000E-01 0.  1.
         23    2    1    2    0    0  0.00000000000E+00  0.00000000000E+00  0.31546457793E+03  0.33043046389E+03  0.98317808835E+02 0.  0.
        -13    1    3    3    0    0  0.88926641656E+01  0.46537124054E+02  0.11368048836E+03  0.12315862940E+03  0.10570000000E+00 0. -1.
         13    1    3    3    0    0 -0.88926641656E+01 -0.46537124054E+02  0.20178408958E+03  0.20727183449E+03  0.10570000000E+00 0.  1.
<mgrwt>
<rscale>  0 0.98317809E+02</rscale>
<asrwt>0</asrwt>
<pdfrwt beam="1">  1        3 0.49684224E-01 0.98317809E+02</pdfrwt>
<pdfrwt beam="2">  1       -3 0.11512222E-02 0.98317809E+02</pdfrwt>
<totfact> 0.18688326E+04</totfact>
</mgrwt>
</event>
<event>
 5    1  0.1401471E+000  0.9078071E+02  0.7818608E-02  0.1300972E+00
         -3   -1    0    0    0  501 -0.00000000000E+00  0.00000000000E+00  0.49030792887E+02  0.49030881087E+02  0.93000000000E-01 0.  1.
          3   -1    0    0  501    0  0.00000000000E+00 -0.00000000000E+00 -0.42020036027E+02  0.42020138942E+02  0.93000000000E-01 0. -1.
         23    2    1    2    0    0  0.00000000000E+00  0.00000000000E+00  0.70107568601E+01  0.91051020029E+02  0.90780711258E+02 0.  0.
        -13    1    3    3    0    0 -0.55074939327E+01 -0.29004587188E+02 -0.31074442011E+02  0.42862929043E+02  0.10570000000E+00 0. -1.
         13    1    3    3    0    0  0.55074939327E+01  0.29004587188E+02  0.38085198871E+02  0.48188090986E+02  0.10570000000E+00 0.  1.
<mgrwt>
<rscale>  0 0.90780711E+02</rscale>
<asrwt>0</asrwt>
<pdfrwt beam="2">  1        3 0.64646356E-02 0.90780711E+02</pdfrwt>
<pdfrwt beam="1">  1       -3 0.75432136E-02 0.90780711E+02</pdfrwt>
<totfact> 0.35770178E+04</totfact>
</mgrwt>
</event>
<event>
 5    1  0.1401471E+000  0.9578340E+02  0.7818608E-02  0.1289421E+00
          3   -1    0    0  501    0  0.00000000000E+00  0.00000000000E+00  0.69787839809E+01  0.69794036172E+01  0.93000000000E-01 0. -1.
         -3   -1    0    0    0  501 -0.00000000000E+00 -0.00000000000E+00 -0.32864013941E+03  0.32864015257E+03  0.93000000000E-01 0.  1.
         23    2    1    2    0    0  0.00000000000E+00  0.00000000000E+00 -0.32166135543E+03  0.33561955619E+03  0.95783395837E+02 0.  0.
        -13    1    3    3    0    0  0.44821972567E+02 -0.62422432165E+01 -0.21574638882E+03  0.22044158021E+03  0.10570000000E+00 0.  1.
         13    1    3    3    0    0 -0.44821972567E+02  0.62422432165E+01 -0.10591496661E+03  0.11517797598E+03  0.10570000000E+00 0. -1.
<mgrwt>
<rscale>  0 0.95783396E+02</rscale>
<asrwt>0</asrwt>
<pdfrwt beam="1">  1        3 0.10737080E-02 0.95783396E+02</pdfrwt>
<pdfrwt beam="2">  1       -3 0.50560058E-01 0.95783396E+02</pdfrwt>
<totfact> 0.19884960E+04</totfact>
</mgrwt>
</event>
<event>
 5    1  0.1401471E+000  0.8863221E+02  0.7818608E-02  0.1306198E+00
         -3   -1    0    0    0  501 -0.00000000000E+00  0.00000000000E+00  0.12577489939E+03  0.12577493377E+03  0.93000000000E-01 0.  1.
          3   -1    0    0  501    0  0.00000000000E+00 -0.00000000000E+00 -0.15614365618E+02  0.15614642572E+02  0.93000000000E-01 0. -1.
         23    2    1    2    0    0  0.00000000000E+00  0.00000000000E+00  0.11016053377E+03  0.14138957634E+03  0.88632212529E+02 0.  0.
        -13    1    3    3    0    0 -0.17127226312E+02  0.40802965649E+02  0.58882901844E+02  0.73657526356E+02  0.10570000000E+00 0. -1.
         13    1    3    3    0    0  0.17127226312E+02 -0.40802965649E+02  0.51277631925E+02  0.67732049985E+02  0.10570000000E+00 0.  1.
<mgrwt>
<rscale>  0 0.88632213E+02</rscale>
<asrwt>0</asrwt>
<pdfrwt beam="2">  1        3 0.24022340E-02 0.88632213E+02</pdfrwt>
<pdfrwt beam="1">  1       -3 0.19350008E-01 0.88632213E+02</pdfrwt>
<totfact> 0.34374187E+04</totfact>
</mgrwt>
</event>
<event>
 5    1  0.1401471E+000  0.9217652E+02  0.7818608E-02  0.1297665E+00
          3   -1    0    0  501    0  0.00000000000E+00  0.00000000000E+00  0.26800099388E+02  0.26800260749E+02  0.93000000000E-01 0. -1.
         -3   -1    0    0    0  501 -0.00000000000E+00 -0.00000000000E+00 -0.79257769384E+02  0.79257823946E+02  0.93000000000E-01 0.  1.
         23    2    1    2    0    0  0.00000000000E+00  0.00000000000E+00 -0.52457669995E+02  0.10605808470E+03  0.92176516467E+02 0.  0.
        -13    1    3    3    0    0 -0.37852559502E+02  0.15465012784E+02 -0.17631810463E+01  0.40928020489E+02  0.10570000000E+00 0. -1.
         13    1    3    3    0    0  0.37852559502E+02 -0.15465012784E+02 -0.50694488949E+02  0.65130064206E+02  0.10570000000E+00 0.  1.
<mgrwt>
<rscale>  0 0.92176516E+02</rscale>
<asrwt>0</asrwt>
<pdfrwt beam="1">  1        3 0.41231088E-02 0.92176516E+02</pdfrwt>
<pdfrwt beam="2">  1       -3 0.12193520E-01 0.92176516E+02</pdfrwt>
<totfact> 0.33226750E+04</totfact>
</mgrwt>
</event>
<event>
 5    1  0.1401471E+000  0.9021059E+02  0.7818608E-02  0.1302343E+00
          3   -1    0    0  501    0  0.00000000000E+00  0.00000000000E+00  0.48418681418E+02  0.48418770733E+02  0.93000000000E-01 0. -1.
         -3   -1    0    0    0  501 -0.00000000000E+00 -0.00000000000E+00 -0.42018474706E+02  0.42018577625E+02  0.93000000000E-01 0.  1.
         23    2    1    2    0    0  0.00000000000E+00  0.00000000000E+00  0.64002067122E+01  0.90437348358E+02  0.90210594345E+02 0.  0.
        -13    1    3    3    0    0  0.42920472573E+02  0.94906973813E+01 -0.69365118556E+01  0.44501310900E+02  0.10570000000E+00 0.  1.
         13    1    3    3    0    0 -0.42920472573E+02 -0.94906973813E+01  0.13336718568E+02  0.45936037457E+02  0.10570000000E+00 0. -1.
<mgrwt>
<rscale>  0 0.90210594E+02</rscale>
<asrwt>0</asrwt>
<pdfrwt beam="1">  1        3 0.74490427E-02 0.90210594E+02</pdfrwt>
<pdfrwt beam="2">  1       -3 0.64643955E-02 0.90210594E+02</pdfrwt>
<totfact> 0.36436360E+04</totfact>
</mgrwt>
</event>
<event>
 5    1  0.1401471E+000  0.9013737E+02  0.7818608E-02  0.1302519E+00
          3   -1    0    0  501    0  0.00000000000E+00  0.00000000000E+00  0.87964278471E+01  0.87969194534E+01  0.93000000000E-01 0. -1.
         -3   -1    0    0    0  501 -0.00000000000E+00 -0.00000000000E+00 -0.23090339835E+03  0.23090341708E+03  0.93000000000E-01 0.  1.
         23    2    1    2    0    0  0.00000000000E+00  0.00000000000E+00 -0.22210697050E+03  0.23970033653E+03  0.90137367322E+02 0.  0.
        -13    1    3    3    0    0 -0.38802183594E+02 -0.61554290551E+01 -0.16977937518E+03  0.17426573434E+03  0.10570000000E+00 0.  1.
         13    1    3    3    0    0  0.38802183594E+02  0.61554290551E+01 -0.52327595328E+02  0.65434602190E+02  0.10570000000E+00 0. -1.
<mgrwt>
<rscale>  0 0.90137367E+02</rscale>
<asrwt>0</asrwt>
<pdfrwt beam="1">  1        3 0.13533360E-02 0.90137367E+02</pdfrwt>
<pdfrwt beam="2">  1       -3 0.35523634E-01 0.90137367E+02</pdfrwt>
<totfact> 0.27395587E+04</totfact>
</mgrwt>
</event>
<event>
 5    1  0.1401471E+000  0.9162317E+02  0.7818608E-02  0.1298968E+00
         -3   -1    0    0    0  501 -0.00000000000E+00  0.00000000000E+00  0.13934926516E+03  0.13934929620E+03  0.93000000000E-01 0.  1.
          3   -1    0    0  501    0  0.00000000000E+00 -0.00000000000E+00 -0.15060551401E+02  0.15060838539E+02  0.93000000000E-01 0. -1.
         23    2    1    2    0    0  0.00000000000E+00  0.00000000000E+00  0.12428871376E+03  0.15441013473E+03  0.91623170325E+02 0.  0.
        -13    1    3    3    0    0 -0.32968690921E+02 -0.29865878543E+02  0.80589052326E+02  0.92051680101E+02  0.10570000000E+00 0.  1.
         13    1    3    3    0    0  0.32968690921E+02  0.29865878543E+02  0.43699661435E+02  0.62358454633E+02  0.10570000000E+00 0. -1.
<mgrwt>
<rscale>  0 0.91623170E+02</rscale>
<asrwt>0</asrwt>
<pdfrwt beam="2">  1        3 0.23170323E-02 0.91623170E+02</pdfrwt>
<pdfrwt beam="1">  1       -3 0.21438373E-01 0.91623170E+02</pdfrwt>
<totfact> 0.30631919E+04</totfact>
</mgrwt>
</event>
<event>
 5    1  0.1401471E+000  0.9176784E+02  0.7818608E-02  0.1298626E+00
          3   -1    0    0  501    0  0.00000000000E+00  0.00000000000E+00  0.18513066151E+02  0.18513299742E+02  0.93000000000E-01 0. -1.
         -3   -1    0    0    0  501 -0.00000000000E+00 -0.00000000000E+00 -0.11372056283E+03  0.11372060086E+03  0.93000000000E-01 0.  1.
         23    2    1    2    0    0  0.00000000000E+00  0.00000000000E+00 -0.95207496681E+02  0.13223390060E+03  0.91767843191E+02 0.  0.
        -13    1    3    3    0    0  0.35871790935E+02 -0.15570627655E+02 -0.82189616416E+02  0.91018536845E+02  0.10570000000E+00 0.  1.
         13    1    3    3    0    0 -0.35871790935E+02  0.15570627655E+02 -0.13017880265E+02  0.41215363756E+02  0.10570000000E+00 0. -1.
<mgrwt>
<rscale>  0 0.91767843E+02</rscale>
<asrwt>0</asrwt>
<pdfrwt beam="1">  1        3 0.28481850E-02 0.91767843E+02</pdfrwt>
<pdfrwt beam="2">  1       -3 0.17495492E-01 0.91767843E+02</pdfrwt>
<totfact> 0.31866583E+04</totfact>
</mgrwt>
</event>
<event>
 5    1  0.1401471E+000  0.9064435E+02  0.7818608E-02  0.1301299E+00
          3   -1    0    0  501    0  0.00000000000E+00  0.00000000000E+00  0.54588106988E+02  0.54588186208E+02  0.93000000000E-01 0. -1.
         -3   -1    0    0    0  501 -0.00000000000E+00 -0.00000000000E+00 -0.37628906701E+02  0.37629021626E+02  0.93000000000E-01 0.  1.
         23    2    1    2    0    0  0.00000000000E+00  0.00000000000E+00  0.16959200287E+02  0.92217207834E+02  0.90644354189E+02 0.  0.
        -13    1    3    3    0    0  0.12607831433E+02 -0.43475075199E+02  0.61936153331E+01  0.45688200012E+02  0.10570000000E+00 0. -1.
         13    1    3    3    0    0 -0.12607831433E+02  0.43475075199E+02  0.10765584954E+02  0.46529007822E+02  0.10570000000E+00 0.  1.
<mgrwt>
<rscale>  0 0.90644354E+02</rscale>
<asrwt>0</asrwt>
<pdfrwt beam="1">  1        3 0.83981852E-02 0.90644354E+02</pdfrwt>
<pdfrwt beam="2">  1       -3 0.57890775E-02 0.90644354E+02</pdfrwt>
<totfact> 0.35825334E+04</totfact>
</mgrwt>
</event>
<event>
 5    1  0.1401471E+000  0.9501670E+02  0.7818608E-02  0.1291138E+00
         -3   -1    0    0    0  501 -0.00000000000E+00  0.00000000000E+00  0.50373408358E+02  0.50373494206E+02  0.93000000000E-01 0.  1.
          3   -1    0    0  501    0  0.00000000000E+00 -0.00000000000E+00 -0.44806074852E+02  0.44806171368E+02  0.93000000000E-01 0. -1.
         23    2    1    2    0    0  0.00000000000E+00  0.00000000000E+00  0.55673335056E+01  0.95179665574E+02  0.95016701355E+02 0.  0.
        -13    1    3    3    0    0 -0.43742626891E+02 -0.56815563178E+01 -0.14891275548E+02  0.46555974369E+02  0.10570000000E+00 0. -1.
         13    1    3    3    0    0  0.43742626891E+02  0.56815563178E+01  0.20458609054E+02  0.48623691205E+02  0.10570000000E+00 0.  1.
<mgrwt>
<rscale>  0 0.95016701E+02</rscale>
<asrwt>0</asrwt>
<pdfrwt beam="2">  1        3 0.68932563E-02 0.95016701E+02</pdfrwt>
<pdfrwt beam="1">  1       -3 0.77497691E-02 0.95016701E+02</pdfrwt>
<totfact> 0.31296519E+04</totfact>
</mgrwt>
</event>
<event>
 5    1  0.1401471E+000  0.1032539E+03  0.7818608E-02  0.1273598E+00
         -3   -1    0    0    0  501 -0.00000000000E+00  0.00000000000E+00  0.31068043924E+03  0.31068045316E+03  0.93000000000E-01 0.  1.
          3   -1    0    0  501    0  0.00000000000E+00 -0.00000000000E+00 -0.85787885141E+01  0.85792925915E+01  0.93000000000E-01 0. -1.
         23    2    1    2    0    0  0.00000000000E+00  0.00000000000E+00  0.30210165073E+03  0.31925974576E+03  0.10325394852E+03 0.  0.
        -13    1    3    3    0    0 -0.28666313358E+02 -0.36052567145E+02  0.22315366626E+03  0.22785766403E+03  0.10570000000E+00 0.  1.
         13    1    3    3    0    0  0.28666313358E+02  0.36052567145E+02  0.78947984466E+02  0.91402081722E+02  0.10570000000E+00 0. -1.
<mgrwt>
<rscale>  0 0.10325395E+03</rscale>
<asrwt>0</asrwt>
<pdfrwt beam="2">  1        3 0.13198534E-02 0.10325395E+03</pdfrwt>
<pdfrwt beam="1">  1       -3 0.47797032E-01 0.10325395E+03</pdfrwt>
<totfact> 0.16643368E+04</totfact>
</mgrwt>
</event>
<event>
 5    1  0.1401471E+000  0.1151496E+03  0.7818608E-02  0.1251320E+00
         -3   -1    0    0    0  501 -0.00000000000E+00  0.00000000000E+00  0.17974346984E+03  0.17974349389E+03  0.93000000000E-01 0.  1.
          3   -1    0    0  501    0  0.00000000000E+00 -0.00000000000E+00 -0.18442028835E+02  0.18442263325E+02  0.93000000000E-01 0. -1.
         23    2    1    2    0    0  0.00000000000E+00  0.00000000000E+00  0.16130144100E+03  0.19818575722E+03  0.11514963958E+03 0.  0.
        -13    1    3    3    0    0 -0.43493554294E+02  0.27476326415E+02  0.12514115454E+03  0.13530320584E+03  0.10570000000E+00 0.  1.
         13    1    3    3    0    0  0.43493554294E+02 -0.27476326415E+02  0.36160286456E+02  0.62882551376E+02  0.10570000000E+00 0. -1.
<mgrwt>
<rscale>  0 0.11514964E+03</rscale>
<asrwt>0</asrwt>
<pdfrwt beam="2">  1        3 0.28372550E-02 0.11514964E+03</pdfrwt>
<pdfrwt beam="1">  1       -3 0.27652862E-01 0.11514964E+03</pdfrwt>
<totfact> 0.15089138E+04</totfact>
</mgrwt>
</event>
<event>
 5    1  0.1401471E+000  0.8993075E+02  0.7818608E-02  0.1303019E+00
          3   -1    0    0  501    0  0.00000000000E+00  0.00000000000E+00  0.18906178265E+03  0.18906180552E+03  0.93000000000E-01 0. -1.
         -3   -1    0    0    0  501 -0.00000000000E+00 -0.00000000000E+00 -0.10694081471E+02  0.10694485846E+02  0.93000000000E-01 0.  1.
         23    2    1    2    0    0  0.00000000000E+00  0.00000000000E+00  0.17836770118E+03  0.19975629137E+03  0.89930746232E+02 0.  0.
        -13    1    3    3    0    0 -0.30730436067E+02  0.30861743088E+02  0.11402451163E+03  0.12205903208E+03  0.10570000000E+00 0. -1.
         13    1    3    3    0    0  0.30730436067E+02 -0.30861743088E+02  0.64343189552E+02  0.77697259292E+02  0.10570000000E+00 0.  1.
<mgrwt>
<rscale>  0 0.89930746E+02</rscale>
<asrwt>0</asrwt>
<pdfrwt beam="1">  1        3 0.29086461E-01 0.89930746E+02</pdfrwt>
<pdfrwt beam="2">  1       -3 0.16452762E-02 0.89930746E+02</pdfrwt>
<totfact> 0.29587298E+04</totfact>
</mgrwt>
</event>
<event>
 5    1  0.1401471E+000  0.9601621E+02  0.7818608E-02  0.1288904E+00
          3   -1    0    0  501    0  0.00000000000E+00  0.00000000000E+00  0.37150196506E+02  0.37150312911E+02  0.93000000000E-01 0. -1.
         -3   -1    0    0    0  501 -0.00000000000E+00 -0.00000000000E+00 -0.62039217439E+02  0.62039287145E+02  0.93000000000E-01 0.  1.
         23    2    1    2    0    0  0.00000000000E+00  0.00000000000E+00 -0.24889020934E+02  0.99189600056E+02  0.96016214237E+02 0.  0.
        -13    1    3    3    0    0 -0.45189947816E+02  0.12053084094E+02 -0.23635788383E+02  0.52402956833E+02  0.10570000000E+00 0.  1.
         13    1    3    3    0    0  0.45189947816E+02 -0.12053084094E+02 -0.12532325504E+01  0.46786643224E+02  0.10570000000E+00 0. -1.
<mgrwt>
<rscale>  0 0.96016214E+02</rscale>
<asrwt>0</asrwt>
<pdfrwt beam="1">  1        3 0.57154292E-02 0.96016214E+02</pdfrwt>
<pdfrwt beam="2">  1       -3 0.95445093E-02 0.96016214E+02</pdfrwt>
<totfact> 0.30152813E+04</totfact>
</mgrwt>
</event>
<event>
 5    1  0.1401471E+000  0.9142236E+02  0.7818608E-02  0.1299443E+00
         -3   -1    0    0    0  501 -0.00000000000E+00  0.00000000000E+00  0.33766125704E+03  0.33766126984E+03  0.93000000000E-01 0.  1.
          3   -1    0    0  501    0  0.00000000000E+00 -0.00000000000E+00 -0.61878269841E+01  0.61885258168E+01  0.93000000000E-01 0. -1.
         23    2    1    2    0    0  0.00000000000E+00  0.00000000000E+00  0.33147343005E+03  0.34384979566E+03  0.91422355828E+02 0.  0.
        -13    1    3    3    0    0  0.86209690145E+01  0.42174291525E+02  0.10789517214E+03  0.11616527586E+03  0.10570000000E+00 0. -1.
         13    1    3    3    0    0 -0.86209690145E+01 -0.42174291525E+02  0.22357825791E+03  0.22768451980E+03  0.10570000000E+00 0.  1.
<mgrwt>
<rscale>  0 0.91422356E+02</rscale>
<asrwt>0</asrwt>
<pdfrwt beam="2">  1        3 0.95202804E-03 0.91422356E+02</pdfrwt>
<pdfrwt beam="1">  1       -3 0.51947945E-01 0.91422356E+02</pdfrwt>
<totfact> 0.22256280E+04</totfact>
</mgrwt>
</event>
<event>
 5    1  0.1401471E+000  0.9153828E+02  0.7818608E-02  0.1299169E+00
         -3   -1    0    0    0  501 -0.00000000000E+00  0.00000000000E+00  0.92037479920E+02  0.92037526906E+02  0.93000000000E-01 0.  1.
          3   -1    0    0  501    0  0.00000000000E+00 -0.00000000000E+00 -0.22760301319E+02  0.22760491320E+02  0.93000000000E-01 0. -1.
         23    2    1    2    0    0  0.00000000000E+00  0.00000000000E+00  0.69277178601E+02  0.11479801823E+03  0.91538284416E+02 0.  0.
        -13    1    3    3    0    0  0.17082845255E+02  0.14857770305E+02  0.84523122997E+02  0.87502836720E+02  0.10570000000E+00 0.  1.
         13    1    3    3    0    0 -0.17082845255E+02 -0.14857770305E+02 -0.15245944396E+02  0.27295181506E+02  0.10570000000E+00 0. -1.
<mgrwt>
<rscale>  0 0.91538284E+02</rscale>
<asrwt>0</asrwt>
<pdfrwt beam="2">  1        3 0.35016030E-02 0.91538284E+02</pdfrwt>
<pdfrwt beam="1">  1       -3 0.14159631E-01 0.91538284E+02</pdfrwt>
<totfact> 0.33247608E+04</totfact>
</mgrwt>
</event>
<event>
 5    1  0.1401471E+000  0.9006000E+02  0.7818608E-02  0.1302706E+00
         -3   -1    0    0    0  501 -0.00000000000E+00  0.00000000000E+00  0.56384887535E+02  0.56384964231E+02  0.93000000000E-01 0.  1.
          3   -1    0    0  501    0  0.00000000000E+00 -0.00000000000E+00 -0.35961622327E+02  0.35961742580E+02  0.93000000000E-01 0. -1.
         23    2    1    2    0    0  0.00000000000E+00  0.00000000000E+00  0.20423265207E+02  0.92346706811E+02  0.90060004981E+02 0.  0.
        -13    1    3    3    0    0  0.21969763768E+02  0.27811582114E+02 -0.18270162351E+02  0.39874360491E+02  0.10570000000E+00 0. -1.
         13    1    3    3    0    0 -0.21969763768E+02 -0.27811582114E+02  0.38693427558E+02  0.52472346321E+02  0.10570000000E+00 0.  1.
<mgrwt>
<rscale>  0 0.90060005E+02</rscale>
<asrwt>0</asrwt>
<pdfrwt beam="2">  1        3 0.55325724E-02 0.90060005E+02</pdfrwt>
<pdfrwt beam="1">  1       -3 0.86746132E-02 0.90060005E+02</pdfrwt>
<totfact> 0.36450762E+04</totfact>
</mgrwt>
</event>
<event>
 5    1  0.1401471E+000  0.8827280E+02  0.7818608E-02  0.1307089E+00
          3   -1    0    0  501    0  0.00000000000E+00  0.00000000000E+00  0.71513051644E+01  0.71519098536E+01  0.93000000000E-01 0. -1.
         -3   -1    0    0    0  501 -0.00000000000E+00 -0.00000000000E+00 -0.27238874013E+03  0.27238875601E+03  0.93000000000E-01 0.  1.
         23    2    1    2    0    0  0.00000000000E+00  0.00000000000E+00 -0.26523743497E+03  0.27954066586E+03  0.88272798542E+02 0.  0.
        -13    1    3    3    0    0 -0.36185951146E+02 -0.10879851410E+02 -0.20484746683E+03  0.20830336067E+03  0.10570000000E+00 0.  1.
         13    1    3    3    0    0  0.36185951146E+02  0.10879851410E+02 -0.60389968142E+02  0.71237305197E+02  0.10570000000E+00 0. -1.
<mgrwt>
<rscale>  0 0.88272799E+02</rscale>
<asrwt>0</asrwt>
<pdfrwt beam="1">  1        3 0.11002487E-02 0.88272799E+02</pdfrwt>
<pdfrwt beam="2">  1       -3 0.41906000E-01 0.88272799E+02</pdfrwt>
<totfact> 0.27087762E+04</totfact>
</mgrwt>
</event>
<event>
 5    1  0.1401471E+000  0.8938379E+02  0.7818608E-02  0.1304351E+00
          3   -1    0    0  501    0  0.00000000000E+00  0.00000000000E+00  0.90304000254E+01  0.90308788951E+01  0.93000000000E-01 0. -1.
         -3   -1    0    0    0  501 -0.00000000000E+00 -0.00000000000E+00 -0.22117605526E+03  0.22117607481E+03  0.93000000000E-01 0.  1.
         23    2    1    2    0    0  0.00000000000E+00  0.00000000000E+00 -0.21214565524E+03  0.23020695371E+03  0.89383793276E+02 0.  0.
        -13    1    3    3    0    0  0.21377871755E+02 -0.37499049286E+02 -0.76241334423E+02  0.87612466837E+02  0.10570000000E+00 0.  1.
         13    1    3    3    0    0 -0.21377871755E+02  0.37499049286E+02 -0.13590432081E+03  0.14259448687E+03  0.10570000000E+00 0. -1.
<mgrwt>
<rscale>  0 0.89383793E+02</rscale>
<asrwt>0</asrwt>
<pdfrwt beam="1">  1        3 0.13893308E-02 0.89383793E+02</pdfrwt>
<pdfrwt beam="2">  1       -3 0.34027120E-01 0.89383793E+02</pdfrwt>
<totfact> 0.28485839E+04</totfact>
</mgrwt>
</event>
<event>
 5    1  0.1401471E+000  0.9769098E+02  0.7818608E-02  0.1285228E+00
         -3   -1    0    0    0  501 -0.00000000000E+00  0.00000000000E+00  0.92444580837E+02  0.92444627617E+02  0.93000000000E-01 0. -1.
          3   -1    0    0  501    0  0.00000000000E+00 -0.00000000000E+00 -0.25808641314E+02  0.25808808874E+02  0.93000000000E-01 0.  1.
         23    2    1    2    0    0  0.00000000000E+00  0.00000000000E+00  0.66635939523E+02  0.11825343649E+03  0.97690976071E+02 0.  0.
        -13    1    3    3    0    0 -0.25054809200E+02 -0.33480054867E+02  0.27616087681E+01  0.41908175735E+02  0.10570000000E+00 0.  1.
         13    1    3    3    0    0  0.25054809200E+02  0.33480054867E+02  0.63874330755E+02  0.76345260755E+02  0.10570000000E+00 0. -1.
<mgrwt>
<rscale>  0 0.97690976E+02</rscale>
<asrwt>0</asrwt>
<pdfrwt beam="2">  1        3 0.39705767E-02 0.97690976E+02</pdfrwt>
<pdfrwt beam="1">  1       -3 0.14222260E-01 0.97690976E+02</pdfrwt>
<totfact> 0.27636664E+04</totfact>
</mgrwt>
</event>
<event>
 5    1  0.1401471E+000  0.9103846E+02  0.7818608E-02  0.1300356E+00
          3   -1    0    0  501    0  0.00000000000E+00  0.00000000000E+00  0.13472003916E+02  0.13472324911E+02  0.93000000000E-01 0. -1.
         -3   -1    0    0    0  501 -0.00000000000E+00 -0.00000000000E+00 -0.15379827195E+03  0.15379830006E+03  0.93000000000E-01 0.  1.
         23    2    1    2    0    0  0.00000000000E+00  0.00000000000E+00 -0.14032626803E+03  0.16727062497E+03  0.91038456052E+02 0.  0.
        -13    1    3    3    0    0  0.15128837148E+02  0.17979872655E+02  0.14664623897E+01  0.23543984764E+02  0.10570000000E+00 0. -1.
         13    1    3    3    0    0 -0.15128837148E+02 -0.17979872655E+02 -0.14179273042E+03  0.14372664021E+03  0.10570000000E+00 0.  1.
<mgrwt>
<rscale>  0 0.91038456E+02</rscale>
<asrwt>0</asrwt>
<pdfrwt beam="1">  1        3 0.20726429E-02 0.91038456E+02</pdfrwt>
<pdfrwt beam="2">  1       -3 0.23661298E-01 0.91038456E+02</pdfrwt>
<totfact> 0.30408019E+04</totfact>
</mgrwt>
</event>
<event>
 5    1  0.1401471E+000  0.9030651E+02  0.7818608E-02  0.1302111E+00
          3   -1    0    0  501    0  0.00000000000E+00  0.00000000000E+00  0.18361473267E+02  0.18361708786E+02  0.93000000000E-01 0.  1.
         -3   -1    0    0    0  501 -0.00000000000E+00 -0.00000000000E+00 -0.11103676295E+03  0.11103680189E+03  0.93000000000E-01 0. -1.
         23    2    1    2    0    0  0.00000000000E+00  0.00000000000E+00 -0.92675289680E+02  0.12939851068E+03  0.90306507234E+02 0.  0.
        -13    1    3    3    0    0  0.26691776830E+02  0.34484059156E+02 -0.29553725380E+02  0.52678602322E+02  0.10570000000E+00 0.  1.
         13    1    3    3    0    0 -0.26691776830E+02 -0.34484059156E+02 -0.63121564300E+02  0.76719908358E+02  0.10570000000E+00 0. -1.
<mgrwt>
<rscale>  0 0.90306507E+02</rscale>
<asrwt>0</asrwt>
<pdfrwt beam="1">  1        3 0.28248632E-02 0.90306507E+02</pdfrwt>
<pdfrwt beam="2">  1       -3 0.17082600E-01 0.90306507E+02</pdfrwt>
<totfact> 0.33475466E+04</totfact>
</mgrwt>
</event>
<event>
 5    1  0.1401471E+000  0.9143601E+02  0.7818608E-02  0.1299411E+00
         -3   -1    0    0    0  501 -0.00000000000E+00  0.00000000000E+00  0.81877480348E+02  0.81877533165E+02  0.93000000000E-01 0. -1.
          3   -1    0    0  501    0  0.00000000000E+00 -0.00000000000E+00 -0.25527456535E+02  0.25527625940E+02  0.93000000000E-01 0.  1.
         23    2    1    2    0    0  0.00000000000E+00  0.00000000000E+00  0.56350023813E+02  0.10740515911E+03  0.91436005046E+02 0.  0.
        -13    1    3    3    0    0  0.21941347522E+02  0.39312918998E+02  0.18837018621E+02  0.48803409453E+02  0.10570000000E+00 0.  1.
         13    1    3    3    0    0 -0.21941347522E+02 -0.39312918998E+02  0.37513005192E+02  0.58601749652E+02  0.10570000000E+00 0. -1.
<mgrwt>
<rscale>  0 0.91436005E+02</rscale>
<asrwt>0</asrwt>
<pdfrwt beam="2">  1        3 0.39273182E-02 0.91436005E+02</pdfrwt>
<pdfrwt beam="1">  1       -3 0.12596552E-01 0.91436005E+02</pdfrwt>
<totfact> 0.33869237E+04</totfact>
</mgrwt>
</event>
<event>
 5    1  0.1401471E+000  0.9016996E+02  0.7818608E-02  0.1302441E+00
         -3   -1    0    0    0  501 -0.00000000000E+00  0.00000000000E+00  0.26736631412E+02  0.26736793156E+02  0.93000000000E-01 0.  1.
          3   -1    0    0  501    0  0.00000000000E+00 -0.00000000000E+00 -0.76024697737E+02  0.76024754620E+02  0.93000000000E-01 0. -1.
         23    2    1    2    0    0  0.00000000000E+00  0.00000000000E+00 -0.49288066325E+02  0.10276154778E+03  0.90169962954E+02 0.  0.
        -13    1    3    3    0    0 -0.54360159531E+01  0.24576932891E+02  0.17983306765E+02  0.30935196694E+02  0.10570000000E+00 0.  1.
         13    1    3    3    0    0  0.54360159531E+01 -0.24576932891E+02 -0.67271373091E+02  0.71826351082E+02  0.10570000000E+00 0. -1.
<mgrwt>
<rscale>  0 0.90169963E+02</rscale>
<asrwt>0</asrwt>
<pdfrwt beam="2">  1        3 0.11696124E-01 0.90169963E+02</pdfrwt>
<pdfrwt beam="1">  1       -3 0.41133448E-02 0.90169963E+02</pdfrwt>
<totfact> 0.35522793E+04</totfact>
</mgrwt>
</event>
<event>
 5    1  0.1401471E+000  0.8950790E+02  0.7818608E-02  0.1304048E+00
         -3   -1    0    0    0  501 -0.00000000000E+00  0.00000000000E+00  0.17145798787E+03  0.17145801309E+03  0.93000000000E-01 0.  1.
          3   -1    0    0  501    0  0.00000000000E+00 -0.00000000000E+00 -0.11681461314E+02  0.11681831510E+02  0.93000000000E-01 0. -1.
         23    2    1    2    0    0  0.00000000000E+00  0.00000000000E+00  0.15977652656E+03  0.18313984460E+03  0.89507900448E+02 0.  0.
        -13    1    3    3    0    0  0.35576431583E+02  0.22441068250E+02  0.48614706266E+02  0.64285961657E+02  0.10570000000E+00 0.  1.
         13    1    3    3    0    0 -0.35576431583E+02 -0.22441068250E+02  0.11116182029E+03  0.11885388295E+03  0.10570000000E+00 0. -1.
<mgrwt>
<rscale>  0 0.89507900E+02</rscale>
<asrwt>0</asrwt>
<pdfrwt beam="2">  1        3 0.17971785E-02 0.89507900E+02</pdfrwt>
<pdfrwt beam="1">  1       -3 0.26378179E-01 0.89507900E+02</pdfrwt>
<totfact> 0.30893794E+04</totfact>
</mgrwt>
</event>
<event>
 5    1  0.1401471E+000  0.9222979E+02  0.7818608E-02  0.1297540E+00
         -3   -1    0    0    0  501 -0.00000000000E+00  0.00000000000E+00  0.80387848803E+01  0.80393228167E+01  0.93000000000E-01 0.  1.
          3   -1    0    0  501    0  0.00000000000E+00 -0.00000000000E+00 -0.26453100382E+03  0.26453102017E+03  0.93000000000E-01 0. -1.
         23    2    1    2    0    0  0.00000000000E+00  0.00000000000E+00 -0.25649221894E+03  0.27257034299E+03  0.92229786393E+02 0.  0.
        -13    1    3    3    0    0 -0.32907181557E+02  0.28052567421E+02 -0.17560011916E+03  0.18084590722E+03  0.10570000000E+00 0. -1.
         13    1    3    3    0    0  0.32907181557E+02 -0.28052567421E+02 -0.80892099779E+02  0.91724435764E+02  0.10570000000E+00 0.  1.
<mgrwt>
<rscale>  0 0.92229786E+02</rscale>
<asrwt>0</asrwt>
<pdfrwt beam="2">  1        3 0.40697113E-01 0.92229786E+02</pdfrwt>
<pdfrwt beam="1">  1       -3 0.12367790E-02 0.92229786E+02</pdfrwt>
<totfact> 0.24367637E+04</totfact>
</mgrwt>
</event>
<event>
 5    1  0.1401471E+000  0.1050954E+03  0.7818608E-02  0.1269932E+00
          3   -1    0    0  501    0  0.00000000000E+00  0.00000000000E+00  0.13937406946E+03  0.13937410049E+03  0.93000000000E-01 0. -1.
         -3   -1    0    0    0  501 -0.00000000000E+00 -0.00000000000E+00 -0.19811744355E+02  0.19811962633E+02  0.93000000000E-01 0.  1.
         23    2    1    2    0    0  0.00000000000E+00  0.00000000000E+00  0.11956232511E+03  0.15918606312E+03  0.10509544761E+03 0.  0.
        -13    1    3    3    0    0  0.37382070287E+02 -0.28595886070E+02  0.95177676875E+02  0.10617883606E+03  0.10570000000E+00 0. -1.
         13    1    3    3    0    0 -0.37382070287E+02  0.28595886070E+02  0.24384648231E+02  0.53007227063E+02  0.10570000000E+00 0.  1.
<mgrwt>
<rscale>  0 0.10509545E+03</rscale>
<asrwt>0</asrwt>
<pdfrwt beam="1">  1        3 0.21442183E-01 0.10509545E+03</pdfrwt>
<pdfrwt beam="2">  1       -3 0.30479799E-02 0.10509545E+03</pdfrwt>
<totfact> 0.20864339E+04</totfact>
</mgrwt>
</event>
<event>
 5    1  0.1401471E+000  0.8949734E+02  0.7818608E-02  0.1304074E+00
          3   -1    0    0  501    0  0.00000000000E+00  0.00000000000E+00  0.54107018677E+02  0.54107098601E+02  0.93000000000E-01 0. -1.
         -3   -1    0    0    0  501 -0.00000000000E+00 -0.00000000000E+00 -0.37008772551E+02  0.37008889402E+02  0.93000000000E-01 0.  1.
         23    2    1    2    0    0  0.00000000000E+00  0.00000000000E+00  0.17098246125E+02  0.91115988003E+02  0.89497336549E+02 0.  0.
        -13    1    3    3    0    0  0.34981051930E+02  0.22720541726E+02 -0.79468595346E+01  0.42462462946E+02  0.10570000000E+00 0.  1.
         13    1    3    3    0    0 -0.34981051930E+02 -0.22720541726E+02  0.25045105660E+02  0.48653525057E+02  0.10570000000E+00 0. -1.
<mgrwt>
<rscale>  0 0.89497337E+02</rscale>
<asrwt>0</asrwt>
<pdfrwt beam="1">  1        3 0.83241718E-02 0.89497337E+02</pdfrwt>
<pdfrwt beam="2">  1       -3 0.56936725E-02 0.89497337E+02</pdfrwt>
<totfact> 0.37175040E+04</totfact>
</mgrwt>
</event>
<event>
 5    1  0.1401471E+000  0.9230005E+02  0.7818608E-02  0.1297375E+00
         -3   -1    0    0    0  501 -0.00000000000E+00  0.00000000000E+00  0.56833586997E+02  0.56833663087E+02  0.93000000000E-01 0.  1.
          3   -1    0    0  501    0  0.00000000000E+00 -0.00000000000E+00 -0.37474598911E+02  0.37474714309E+02  0.93000000000E-01 0. -1.
         23    2    1    2    0    0  0.00000000000E+00  0.00000000000E+00  0.19358988085E+02  0.94308377396E+02  0.92300052153E+02 0.  0.
        -13    1    3    3    0    0  0.20460661462E+01  0.31604634681E+02  0.43977337578E+02  0.54194618856E+02  0.10570000000E+00 0.  1.
         13    1    3    3    0    0 -0.20460661462E+01 -0.31604634681E+02 -0.24618349493E+02  0.40113758540E+02  0.10570000000E+00 0. -1.
<mgrwt>
<rscale>  0 0.92300052E+02</rscale>
<asrwt>0</asrwt>
<pdfrwt beam="2">  1        3 0.57653376E-02 0.92300052E+02</pdfrwt>
<pdfrwt beam="1">  1       -3 0.87436435E-02 0.92300052E+02</pdfrwt>
<totfact> 0.33946320E+04</totfact>
</mgrwt>
</event>
<event>
 5    1  0.1401471E+000  0.9113610E+02  0.7818608E-02  0.1300124E+00
          3   -1    0    0  501    0  0.00000000000E+00  0.00000000000E+00  0.41184569790E+02  0.41184674793E+02  0.93000000000E-01 0. -1.
         -3   -1    0    0    0  501 -0.00000000000E+00 -0.00000000000E+00 -0.50417878714E+02  0.50417964487E+02  0.93000000000E-01 0.  1.
         23    2    1    2    0    0  0.00000000000E+00  0.00000000000E+00 -0.92333089242E+01  0.91602639280E+02  0.91136104423E+02 0.  0.
        -13    1    3    3    0    0  0.40991793185E+02 -0.14738727817E+02 -0.18059685754E+02  0.47156342397E+02  0.10570000000E+00 0.  1.
         13    1    3    3    0    0 -0.40991793185E+02  0.14738727817E+02  0.88263768301E+01  0.44446296883E+02  0.10570000000E+00 0. -1.
<mgrwt>
<rscale>  0 0.91136104E+02</rscale>
<asrwt>0</asrwt>
<pdfrwt beam="1">  1        3 0.63361024E-02 0.91136104E+02</pdfrwt>
<pdfrwt beam="2">  1       -3 0.77566114E-02 0.91136104E+02</pdfrwt>
<totfact> 0.35349482E+04</totfact>
</mgrwt>
</event>
<event>
 5    1  0.1401471E+000  0.9108890E+02  0.7818608E-02  0.1300236E+00
          3   -1    0    0  501    0  0.00000000000E+00  0.00000000000E+00  0.18159600398E+02  0.18159838535E+02  0.93000000000E-01 0. -1.
         -3   -1    0    0    0  501 -0.00000000000E+00 -0.00000000000E+00 -0.11422489978E+03  0.11422493764E+03  0.93000000000E-01 0.  1.
         23    2    1    2    0    0  0.00000000000E+00  0.00000000000E+00 -0.96065299383E+02  0.13238477618E+03  0.91088897333E+02 0.  0.
        -13    1    3    3    0    0  0.19271599888E+02 -0.26254569129E+02 -0.94303073165E+02  0.99768621035E+02  0.10570000000E+00 0.  1.
         13    1    3    3    0    0 -0.19271599888E+02  0.26254569129E+02 -0.17622262183E+01  0.32616155140E+02  0.10570000000E+00 0. -1.
<mgrwt>
<rscale>  0 0.91088897E+02</rscale>
<asrwt>0</asrwt>
<pdfrwt beam="1">  1        3 0.27938060E-02 0.91088897E+02</pdfrwt>
<pdfrwt beam="2">  1       -3 0.17573082E-01 0.91088897E+02</pdfrwt>
<totfact> 0.32506331E+04</totfact>
</mgrwt>
</event>
<event>
 5    1  0.1401471E+000  0.8988044E+02  0.7818608E-02  0.1303141E+00
          3   -1    0    0  501    0  0.00000000000E+00  0.00000000000E+00  0.22424453036E+02  0.22424645883E+02  0.93000000000E-01 0. -1.
         -3   -1    0    0    0  501 -0.00000000000E+00 -0.00000000000E+00 -0.90062831259E+02  0.90062879276E+02  0.93000000000E-01 0.  1.
         23    2    1    2    0    0  0.00000000000E+00  0.00000000000E+00 -0.67638378223E+02  0.11248752516E+03  0.89880437847E+02 0.  0.
        -13    1    3    3    0    0 -0.32475805685E+02 -0.30204970410E+02 -0.24742929278E+02  0.50786237448E+02  0.10570000000E+00 0. -1.
         13    1    3    3    0    0  0.32475805685E+02  0.30204970410E+02 -0.42895448945E+02  0.61701287710E+02  0.10570000000E+00 0.  1.
<mgrwt>
<rscale>  0 0.89880438E+02</rscale>
<asrwt>0</asrwt>
<pdfrwt beam="1">  1        3 0.34499344E-02 0.89880438E+02</pdfrwt>
<pdfrwt beam="2">  1       -3 0.13855839E-01 0.89880438E+02</pdfrwt>
<totfact> 0.35107161E+04</totfact>
</mgrwt>
</event>
<event>
 5    1  0.1401471E+000  0.9190587E+02  0.7818608E-02  0.1298301E+00
         -3   -1    0    0    0  501 -0.00000000000E+00  0.00000000000E+00  0.83007712814E+02  0.83007764911E+02  0.93000000000E-01 0.  1.
          3   -1    0    0  501    0  0.00000000000E+00 -0.00000000000E+00 -0.25439326928E+02  0.25439496920E+02  0.93000000000E-01 0. -1.
         23    2    1    2    0    0  0.00000000000E+00  0.00000000000E+00  0.57568385885E+02  0.10844726183E+03  0.91905873290E+02 0.  0.
        -13    1    3    3    0    0 -0.28031711413E+02 -0.33891214760E+02  0.13073589628E+02  0.45883779279E+02  0.10570000000E+00 0. -1.
         13    1    3    3    0    0  0.28031711413E+02  0.33891214760E+02  0.44494796258E+02  0.62563482553E+02  0.10570000000E+00 0.  1.
<mgrwt>
<rscale>  0 0.91905873E+02</rscale>
<asrwt>0</asrwt>
<pdfrwt beam="2">  1        3 0.39137597E-02 0.91905873E+02</pdfrwt>
<pdfrwt beam="1">  1       -3 0.12770434E-01 0.91905873E+02</pdfrwt>
<totfact> 0.33326342E+04</totfact>
</mgrwt>
</event>
<event>
 5    1  0.1401471E+000  0.8952639E+02  0.7818608E-02  0.1304003E+00
         -3   -1    0    0    0  501 -0.00000000000E+00  0.00000000000E+00  0.32147965187E+02  0.32148099705E+02  0.93000000000E-01 0.  1.
          3   -1    0    0  501    0  0.00000000000E+00 -0.00000000000E+00 -0.62328479111E+02  0.62328548494E+02  0.93000000000E-01 0. -1.
         23    2    1    2    0    0  0.00000000000E+00  0.00000000000E+00 -0.30180513924E+02  0.94476648199E+02  0.89526385128E+02 0.  0.
        -13    1    3    3    0    0 -0.26808824622E+02  0.13953280071E+02 -0.49936137213E+02  0.58369821609E+02  0.10570000000E+00 0. -1.
         13    1    3    3    0    0  0.26808824622E+02 -0.13953280071E+02  0.19755623289E+02  0.36106826590E+02  0.10570000000E+00 0.  1.
<mgrwt>
<rscale>  0 0.89526385E+02</rscale>
<asrwt>0</asrwt>
<pdfrwt beam="2">  1        3 0.95890125E-02 0.89526385E+02</pdfrwt>
<pdfrwt beam="1">  1       -3 0.49458565E-02 0.89526385E+02</pdfrwt>
<totfact> 0.36870902E+04</totfact>
</mgrwt>
</event>
<event>
 5    1  0.1401471E+000  0.9061000E+02  0.7818608E-02  0.1301381E+00
          3   -1    0    0  501    0  0.00000000000E+00  0.00000000000E+00  0.47639884310E+02  0.47639975084E+02  0.93000000000E-01 0. -1.
         -3   -1    0    0    0  501 -0.00000000000E+00 -0.00000000000E+00 -0.43084369908E+02  0.43084470281E+02  0.93000000000E-01 0.  1.
         23    2    1    2    0    0  0.00000000000E+00  0.00000000000E+00  0.45555144018E+01  0.90724445365E+02  0.90610000967E+02 0.  0.
        -13    1    3    3    0    0 -0.11386678508E+02 -0.43057169171E+02  0.10592198241E+02  0.45779712762E+02  0.10570000000E+00 0. -1.
         13    1    3    3    0    0  0.11386678508E+02  0.43057169171E+02 -0.60366838393E+01  0.44944732603E+02  0.10570000000E+00 0.  1.
<mgrwt>
<rscale>  0 0.90610001E+02</rscale>
<asrwt>0</asrwt>
<pdfrwt beam="1">  1        3 0.73292277E-02 0.90610001E+02</pdfrwt>
<pdfrwt beam="2">  1       -3 0.66283793E-02 0.90610001E+02</pdfrwt>
<totfact> 0.35978924E+04</totfact>
</mgrwt>
</event>
<event>
 5    1  0.1401471E+000  0.9344291E+02  0.7818608E-02  0.1294722E+00
         -3   -1    0    0    0  501 -0.00000000000E+00  0.00000000000E+00  0.76408685668E+02  0.76408742264E+02  0.93000000000E-01 0.  1.
          3   -1    0    0  501    0  0.00000000000E+00 -0.00000000000E+00 -0.28568523279E+02  0.28568674652E+02  0.93000000000E-01 0. -1.
         23    2    1    2    0    0  0.00000000000E+00  0.00000000000E+00  0.47840162388E+02  0.10497741692E+03  0.93442907302E+02 0.  0.
        -13    1    3    3    0    0 -0.43963079772E+02  0.96304600695E+00  0.41654883971E+02  0.60570788106E+02  0.10570000000E+00 0.  1.
         13    1    3    3    0    0  0.43963079772E+02 -0.96304600695E+00  0.61852784173E+01  0.44406628810E+02  0.10570000000E+00 0. -1.
<mgrwt>
<rscale>  0 0.93442907E+02</rscale>
<asrwt>0</asrwt>
<pdfrwt beam="2">  1        3 0.43951734E-02 0.93442907E+02</pdfrwt>
<pdfrwt beam="1">  1       -3 0.11755198E-01 0.93442907E+02</pdfrwt>
<totfact> 0.32084628E+04</totfact>
</mgrwt>
</event>
<event>
 5    1  0.1401471E+000  0.9342191E+02  0.7818608E-02  0.1294770E+00
         -3   -1    0    0    0  501 -0.00000000000E+00  0.00000000000E+00  0.73886567623E+02  0.73886626152E+02  0.93000000000E-01 0.  1.
          3   -1    0    0  501    0  0.00000000000E+00 -0.00000000000E+00 -0.29530437541E+02  0.29530583983E+02  0.93000000000E-01 0. -1.
         23    2    1    2    0    0  0.00000000000E+00  0.00000000000E+00  0.44356130082E+02  0.10341721014E+03  0.93421908974E+02 0.  0.
        -13    1    3    3    0    0 -0.33643639984E+02  0.30941693614E+02  0.11524510106E+02  0.47139245017E+02  0.10570000000E+00 0. -1.
         13    1    3    3    0    0  0.33643639984E+02 -0.30941693614E+02  0.32831619976E+02  0.56277965118E+02  0.10570000000E+00 0.  1.
<mgrwt>
<rscale>  0 0.93421909E+02</rscale>
<asrwt>0</asrwt>
<pdfrwt beam="2">  1        3 0.45431600E-02 0.93421909E+02</pdfrwt>
<pdfrwt beam="1">  1       -3 0.11367180E-01 0.93421909E+02</pdfrwt>
<totfact> 0.32210091E+04</totfact>
</mgrwt>
</event>
<event>
 5    1  0.1401471E+000  0.9075473E+02  0.7818608E-02  0.1301034E+00
         -3   -1    0    0    0  501 -0.00000000000E+00  0.00000000000E+00  0.15880661238E+03  0.15880663961E+03  0.93000000000E-01 0.  1.
          3   -1    0    0  501    0  0.00000000000E+00 -0.00000000000E+00 -0.12965921967E+02  0.12966255491E+02  0.93000000000E-01 0. -1.
         23    2    1    2    0    0  0.00000000000E+00  0.00000000000E+00  0.14584069041E+03  0.17177289510E+03  0.90754727215E+02 0.  0.
        -13    1    3    3    0    0 -0.23221993305E+02 -0.38797691518E+02  0.80145492053E+02  0.92020828670E+02  0.10570000000E+00 0. -1.
         13    1    3    3    0    0  0.23221993305E+02  0.38797691518E+02  0.65695198360E+02  0.79752066432E+02  0.10570000000E+00 0.  1.
<mgrwt>
<rscale>  0 0.90754727E+02</rscale>
<asrwt>0</asrwt>
<pdfrwt beam="2">  1        3 0.19947849E-02 0.90754727E+02</pdfrwt>
<pdfrwt beam="1">  1       -3 0.24431815E-01 0.90754727E+02</pdfrwt>
<totfact> 0.30404757E+04</totfact>
</mgrwt>
</event>
<event>
 5    1  0.1401471E+000  0.9421902E+02  0.7818608E-02  0.1292945E+00
          3   -1    0    0  501    0  0.00000000000E+00  0.00000000000E+00  0.63885002198E+02  0.63885069890E+02  0.93000000000E-01 0. -1.
         -3   -1    0    0    0  501 -0.00000000000E+00 -0.00000000000E+00 -0.34738930215E+02  0.34739054701E+02  0.93000000000E-01 0.  1.
         23    2    1    2    0    0  0.00000000000E+00  0.00000000000E+00  0.29146071983E+02  0.98624124590E+02  0.94219023765E+02 0.  0.
        -13    1    3    3    0    0  0.37631618730E+02 -0.13879252380E+02  0.40437019844E+02  0.56955562689E+02  0.10570000000E+00 0. -1.
         13    1    3    3    0    0 -0.37631618730E+02  0.13879252380E+02 -0.11290947862E+02  0.41668561901E+02  0.10570000000E+00 0.  1.
<mgrwt>
<rscale>  0 0.94219024E+02</rscale>
<asrwt>0</asrwt>
<pdfrwt beam="1">  1        3 0.98284766E-02 0.94219024E+02</pdfrwt>
<pdfrwt beam="2">  1       -3 0.53444656E-02 0.94219024E+02</pdfrwt>
<totfact> 0.31791630E+04</totfact>
</mgrwt>
</event>
<event>
 5    1  0.1401471E+000  0.9419313E+02  0.7818608E-02  0.1293004E+00
         -3   -1    0    0    0  501 -0.00000000000E+00  0.00000000000E+00  0.17261002936E+02  0.17261253470E+02  0.93000000000E-01 0.  1.
          3   -1    0    0  501    0  0.00000000000E+00 -0.00000000000E+00 -0.12850156101E+03  0.12850159467E+03  0.93000000000E-01 0. -1.
         23    2    1    2    0    0  0.00000000000E+00  0.00000000000E+00 -0.11124055808E+03  0.14576284814E+03  0.94193132103E+02 0.  0.
        -13    1    3    3    0    0 -0.38006722198E+02  0.18116425664E+02 -0.22962774775E+02  0.47958482138E+02  0.10570000000E+00 0.  1.
         13    1    3    3    0    0  0.38006722198E+02 -0.18116425664E+02 -0.88277783303E+02  0.97804365999E+02  0.10570000000E+00 0. -1.
<mgrwt>
<rscale>  0 0.94193132E+02</rscale>
<asrwt>0</asrwt>
<pdfrwt beam="2">  1        3 0.19769492E-01 0.94193132E+02</pdfrwt>
<pdfrwt beam="1">  1       -3 0.26555609E-02 0.94193132E+02</pdfrwt>
<totfact> 0.28895589E+04</totfact>
</mgrwt>
</event>
<event>
 5    1  0.1401471E+000  0.8860145E+02  0.7818608E-02  0.1306274E+00
          3   -1    0    0  501    0  0.00000000000E+00  0.00000000000E+00  0.18718663406E+02  0.18718894431E+02  0.93000000000E-01 0. -1.
         -3   -1    0    0    0  501 -0.00000000000E+00 -0.00000000000E+00 -0.10484388195E+03  0.10484392320E+03  0.93000000000E-01 0.  1.
         23    2    1    2    0    0  0.00000000000E+00  0.00000000000E+00 -0.86125218545E+02  0.12356281763E+03  0.88601448245E+02 0.  0.
        -13    1    3    3    0    0 -0.11397123893E+02 -0.42767963224E+02 -0.45690174129E+02  0.63612862660E+02  0.10570000000E+00 0.  1.
         13    1    3    3    0    0  0.11397123893E+02  0.42767963224E+02 -0.40435044416E+02  0.59949954969E+02  0.10570000000E+00 0. -1.
<mgrwt>
<rscale>  0 0.88601448E+02</rscale>
<asrwt>0</asrwt>
<pdfrwt beam="1">  1        3 0.28798154E-02 0.88601448E+02</pdfrwt>
<pdfrwt beam="2">  1       -3 0.16129849E-01 0.88601448E+02</pdfrwt>
<totfact> 0.35667422E+04</totfact>
</mgrwt>
</event>
<event>
 5    1  0.1401471E+000  0.9104922E+02  0.7818608E-02  0.1300331E+00
         -3   -1    0    0    0  501 -0.00000000000E+00  0.00000000000E+00  0.14719783426E+03  0.14719786363E+03  0.93000000000E-01 0.  1.
          3   -1    0    0  501    0  0.00000000000E+00 -0.00000000000E+00 -0.14079438039E+02  0.14079745185E+02  0.93000000000E-01 0. -1.
         23    2    1    2    0    0  0.00000000000E+00  0.00000000000E+00  0.13311839622E+03  0.16127760882E+03  0.91049215786E+02 0.  0.
        -13    1    3    3    0    0 -0.39228728827E+02 -0.22798031617E+02  0.59970603464E+02  0.75200584196E+02  0.10570000000E+00 0.  1.
         13    1    3    3    0    0  0.39228728827E+02  0.22798031617E+02  0.73147792753E+02  0.86077024625E+02  0.10570000000E+00 0. -1.
<mgrwt>
<rscale>  0 0.91049216E+02</rscale>
<asrwt>0</asrwt>
<pdfrwt beam="2">  1        3 0.21660932E-02 0.91049216E+02</pdfrwt>
<pdfrwt beam="1">  1       -3 0.22645847E-01 0.91049216E+02</pdfrwt>
<totfact> 0.30748217E+04</totfact>
</mgrwt>
</event>
<event>
 5    1  0.1401471E+000  0.9208321E+02  0.7818608E-02  0.1297884E+00
         -3   -1    0    0    0  501 -0.00000000000E+00  0.00000000000E+00  0.56577046783E+02  0.56577123219E+02  0.93000000000E-01 0.  1.
          3   -1    0    0  501    0  0.00000000000E+00 -0.00000000000E+00 -0.37467854346E+02  0.37467969765E+02  0.93000000000E-01 0. -1.
         23    2    1    2    0    0  0.00000000000E+00  0.00000000000E+00  0.19109192437E+02  0.94045092984E+02  0.92083213881E+02 0.  0.
        -13    1    3    3    0    0  0.40931603738E+02 -0.20938293231E+02  0.70508164323E+01  0.46513798951E+02  0.10570000000E+00 0.  1.
         13    1    3    3    0    0 -0.40931603738E+02  0.20938293231E+02  0.12058376005E+02  0.47531294032E+02  0.10570000000E+00 0. -1.
<mgrwt>
<rscale>  0 0.92083214E+02</rscale>
<asrwt>0</asrwt>
<pdfrwt beam="2">  1        3 0.57643000E-02 0.92083214E+02</pdfrwt>
<pdfrwt beam="1">  1       -3 0.87041758E-02 0.92083214E+02</pdfrwt>
<totfact> 0.34184531E+04</totfact>
</mgrwt>
</event>
<event>
 5    1  0.1401471E+000  0.9051275E+02  0.7818608E-02  0.1301615E+00
         -3   -1    0    0    0  501 -0.00000000000E+00  0.00000000000E+00  0.78322491720E+01  0.78328012928E+01  0.93000000000E-01 0.  1.
          3   -1    0    0  501    0  0.00000000000E+00 -0.00000000000E+00 -0.26149100682E+03  0.26149102335E+03  0.93000000000E-01 0. -1.
         23    2    1    2    0    0  0.00000000000E+00  0.00000000000E+00 -0.25365875764E+03  0.26932382465E+03  0.90512746024E+02 0.  0.
        -13    1    3    3    0    0  0.35334768383E+02  0.16419915069E+02 -0.58329449154E+02  0.70146242085E+02  0.10570000000E+00 0.  1.
         13    1    3    3    0    0 -0.35334768383E+02 -0.16419915069E+02 -0.19532930849E+03  0.19917758256E+03  0.10570000000E+00 0. -1.
<mgrwt>
<rscale>  0 0.90512746E+02</rscale>
<asrwt>0</asrwt>
<pdfrwt beam="2">  1        3 0.40229423E-01 0.90512746E+02</pdfrwt>
<pdfrwt beam="1">  1       -3 0.12050054E-02 0.90512746E+02</pdfrwt>
<totfact> 0.25769405E+04</totfact>
</mgrwt>
</event>
<event>
 5    1  0.1401471E+000  0.6704609E+02  0.7818608E-02  0.1370436E+00
          3   -1    0    0  501    0  0.00000000000E+00  0.00000000000E+00  0.78094445113E+02  0.78094500488E+02  0.93000000000E-01 0. -1.
         -3   -1    0    0    0  501 -0.00000000000E+00 -0.00000000000E+00 -0.14389985573E+02  0.14390286092E+02  0.93000000000E-01 0.  1.
         23    2    1    2    0    0  0.00000000000E+00  0.00000000000E+00  0.63704459539E+02  0.92484786580E+02  0.67046085519E+02 0.  0.
        -13    1    3    3    0    0 -0.22490271769E+02  0.21289834647E+02  0.49555843198E+02  0.58436821877E+02  0.10570000000E+00 0. -1.
         13    1    3    3    0    0  0.22490271769E+02 -0.21289834647E+02  0.14148616341E+02  0.34047964702E+02  0.10570000000E+00 0.  1.
<mgrwt>
<rscale>  0 0.67046086E+02</rscale>
<asrwt>0</asrwt>
<pdfrwt beam="1">  1        3 0.12014558E-01 0.67046086E+02</pdfrwt>
<pdfrwt beam="2">  1       -3 0.22138713E-02 0.67046086E+02</pdfrwt>
<totfact> 0.80068670E+04</totfact>
</mgrwt>
</event>
<event>
 5    1  0.1401471E+000  0.9197662E+02  0.7818608E-02  0.1298134E+00
         -3   -1    0    0    0  501 -0.00000000000E+00  0.00000000000E+00  0.12941025427E+03  0.12941028769E+03  0.93000000000E-01 0.  1.
          3   -1    0    0  501    0  0.00000000000E+00 -0.00000000000E+00 -0.16342623457E+02  0.16342888070E+02  0.93000000000E-01 0. -1.
         23    2    1    2    0    0  0.00000000000E+00  0.00000000000E+00  0.11306763082E+03  0.14575317576E+03  0.91976622604E+02 0.  0.
        -13    1    3    3    0    0  0.27047033014E+02  0.12745512975E+01 -0.23715498554E+01  0.27180910527E+02  0.10570000000E+00 0. -1.
         13    1    3    3    0    0 -0.27047033014E+02 -0.12745512975E+01  0.11543918067E+03  0.11857226523E+03  0.10570000000E+00 0.  1.
<mgrwt>
<rscale>  0 0.91976623E+02</rscale>
<asrwt>0</asrwt>
<pdfrwt beam="2">  1        3 0.25142727E-02 0.91976623E+02</pdfrwt>
<pdfrwt beam="1">  1       -3 0.19909293E-01 0.91976623E+02</pdfrwt>
<totfact> 0.30830383E+04</totfact>
</mgrwt>
</event>
<event>
 5    1  0.1401471E+000  0.9155724E+02  0.7818608E-02  0.1299124E+00
         -3   -1    0    0    0  501 -0.00000000000E+00  0.00000000000E+00  0.29769858871E+02  0.29770004135E+02  0.93000000000E-01 0.  1.
          3   -1    0    0  501    0  0.00000000000E+00 -0.00000000000E+00 -0.70395753693E+02  0.70395815124E+02  0.93000000000E-01 0. -1.
         23    2    1    2    0    0  0.00000000000E+00  0.00000000000E+00 -0.40625894822E+02  0.10016581926E+03  0.91557239025E+02 0.  0.
        -13    1    3    3    0    0  0.27376231268E+02 -0.65823197092E+01  0.19176408047E+02  0.34066563802E+02  0.10570000000E+00 0.  1.
         13    1    3    3    0    0 -0.27376231268E+02  0.65823197092E+01 -0.59802302869E+02  0.66099255458E+02  0.10570000000E+00 0. -1.
<mgrwt>
<rscale>  0 0.91557239E+02</rscale>
<asrwt>0</asrwt>
<pdfrwt beam="2">  1        3 0.10830132E-01 0.91557239E+02</pdfrwt>
<pdfrwt beam="1">  1       -3 0.45799942E-02 0.91557239E+02</pdfrwt>
<totfact> 0.34267426E+04</totfact>
</mgrwt>
</event>
<event>
 5    1  0.1401471E+000  0.8746176E+02  0.7818608E-02  0.1309117E+00
         -3   -1    0    0    0  501 -0.00000000000E+00  0.00000000000E+00  0.57142812501E+02  0.57142888180E+02  0.93000000000E-01 0.  1.
          3   -1    0    0  501    0  0.00000000000E+00 -0.00000000000E+00 -0.33466688190E+02  0.33466817408E+02  0.93000000000E-01 0. -1.
         23    2    1    2    0    0  0.00000000000E+00  0.00000000000E+00  0.23676124311E+02  0.90609705588E+02  0.87461762413E+02 0.  0.
        -13    1    3    3    0    0 -0.23593593952E+01  0.40649801676E+02  0.28362246749E+02  0.49622587258E+02  0.10570000000E+00 0. -1.
         13    1    3    3    0    0  0.23593593952E+01 -0.40649801676E+02 -0.46861224378E+01  0.40987118330E+02  0.10570000000E+00 0.  1.
<mgrwt>
<rscale>  0 0.87461762E+02</rscale>
<asrwt>0</asrwt>
<pdfrwt beam="2">  1        3 0.51487370E-02 0.87461762E+02</pdfrwt>
<pdfrwt beam="1">  1       -3 0.87912177E-02 0.87461762E+02</pdfrwt>
<totfact> 0.39612294E+04</totfact>
</mgrwt>
</event>
<event>
 5    1  0.1401471E+000  0.9034856E+02  0.7818608E-02  0.1302010E+00
          3   -1    0    0  501    0  0.00000000000E+00  0.00000000000E+00  0.22004099045E+03  0.22004101010E+03  0.93000000000E-01 0. -1.
         -3   -1    0    0    0  501 -0.00000000000E+00 -0.00000000000E+00 -0.92739983215E+01  0.92744646135E+01  0.93000000000E-01 0.  1.
         23    2    1    2    0    0  0.00000000000E+00  0.00000000000E+00  0.21076699213E+03  0.22931547471E+03  0.90348558226E+02 0.  0.
        -13    1    3    3    0    0  0.37263385676E+02  0.15957682426E+01  0.17007309422E+03  0.17411483262E+03  0.10570000000E+00 0. -1.
         13    1    3    3    0    0 -0.37263385676E+02 -0.15957682426E+01  0.40693897906E+02  0.55200642094E+02  0.10570000000E+00 0.  1.
<mgrwt>
<rscale>  0 0.90348558E+02</rscale>
<asrwt>0</asrwt>
<pdfrwt beam="1">  1        3 0.33852496E-01 0.90348558E+02</pdfrwt>
<pdfrwt beam="2">  1       -3 0.14268064E-02 0.90348558E+02</pdfrwt>
<totfact> 0.27722762E+04</totfact>
</mgrwt>
</event>
<event>
 5    1  0.1401471E+000  0.9093531E+02  0.7818608E-02  0.1300602E+00
          3   -1    0    0  501    0  0.00000000000E+00  0.00000000000E+00  0.67640444249E+01  0.67646837311E+01  0.93000000000E-01 0. -1.
         -3   -1    0    0    0  501 -0.00000000000E+00 -0.00000000000E+00 -0.30561679145E+03  0.30561680560E+03  0.93000000000E-01 0.  1.
         23    2    1    2    0    0  0.00000000000E+00  0.00000000000E+00 -0.29885274702E+03  0.31238148933E+03  0.90935309272E+02 0.  0.
        -13    1    3    3    0    0  0.37547407364E+02 -0.25512127199E+02 -0.15826494582E+03  0.16464653255E+03  0.10570000000E+00 0.  1.
         13    1    3    3    0    0 -0.37547407364E+02  0.25512127199E+02 -0.14058780120E+03  0.14773495678E+03  0.10570000000E+00 0. -1.
<mgrwt>
<rscale>  0 0.90935309E+02</rscale>
<asrwt>0</asrwt>
<pdfrwt beam="1">  1        3 0.10406727E-02 0.90935309E+02</pdfrwt>
<pdfrwt beam="2">  1       -3 0.47018007E-01 0.90935309E+02</pdfrwt>
<totfact> 0.23719622E+04</totfact>
</mgrwt>
</event>
<event>
 5    1  0.1401471E+000  0.9510974E+02  0.7818608E-02  0.1290929E+00
          3   -1    0    0  501    0  0.00000000000E+00  0.00000000000E+00  0.24888941777E+02  0.24889115528E+02  0.93000000000E-01 0. -1.
         -3   -1    0    0    0  501 -0.00000000000E+00 -0.00000000000E+00 -0.90861748090E+02  0.90861795684E+02  0.93000000000E-01 0.  1.
         23    2    1    2    0    0  0.00000000000E+00  0.00000000000E+00 -0.65972806313E+02  0.11575091121E+03  0.95109738059E+02 0.  0.
        -13    1    3    3    0    0  0.30198275818E+02  0.30421673126E+02 -0.58047669891E+02  0.72159248960E+02  0.10570000000E+00 0.  1.
         13    1    3    3    0    0 -0.30198275818E+02 -0.30421673126E+02 -0.79251364223E+01  0.43591662253E+02  0.10570000000E+00 0. -1.
<mgrwt>
<rscale>  0 0.95109738E+02</rscale>
<asrwt>0</asrwt>
<pdfrwt beam="1">  1        3 0.38290850E-02 0.95109738E+02</pdfrwt>
<pdfrwt beam="2">  1       -3 0.13978747E-01 0.95109738E+02</pdfrwt>
<totfact> 0.29891847E+04</totfact>
</mgrwt>
</event>
<event>
 5    1  0.1401471E+000  0.9416060E+02  0.7818608E-02  0.1293078E+00
         -3   -1    0    0    0  501 -0.00000000000E+00  0.00000000000E+00  0.47117773440E+02  0.47117865220E+02  0.93000000000E-01 0.  1.
          3   -1    0    0  501    0  0.00000000000E+00 -0.00000000000E+00 -0.47042675816E+02  0.47042767743E+02  0.93000000000E-01 0. -1.
         23    2    1    2    0    0  0.00000000000E+00  0.00000000000E+00  0.75097623220E-01  0.94160632964E+02  0.94160603017E+02 0.  0.
        -13    1    3    3    0    0  0.25088023604E+02 -0.24817494005E+02 -0.31126971053E+02  0.47055461282E+02  0.10570000000E+00 0. -1.
         13    1    3    3    0    0 -0.25088023604E+02  0.24817494005E+02  0.31202068676E+02  0.47105171682E+02  0.10570000000E+00 0.  1.
<mgrwt>
<rscale>  0 0.94160603E+02</rscale>
<asrwt>0</asrwt>
<pdfrwt beam="2">  1        3 0.72373489E-02 0.94160603E+02</pdfrwt>
<pdfrwt beam="1">  1       -3 0.72489023E-02 0.94160603E+02</pdfrwt>
<totfact> 0.32152224E+04</totfact>
</mgrwt>
</event>
<event>
 5    1  0.1401471E+000  0.9526214E+02  0.7818608E-02  0.1290587E+00
          3   -1    0    0  501    0  0.00000000000E+00  0.00000000000E+00  0.16891299642E+03  0.16891302202E+03  0.93000000000E-01 0. -1.
         -3   -1    0    0    0  501 -0.00000000000E+00 -0.00000000000E+00 -0.13431099366E+02  0.13431421338E+02  0.93000000000E-01 0.  1.
         23    2    1    2    0    0  0.00000000000E+00  0.00000000000E+00  0.15548189706E+03  0.18234444336E+03  0.95262142076E+02 0.  0.
        -13    1    3    3    0    0 -0.46578456621E+02 -0.95172723220E+01  0.72135229316E+02  0.86392323586E+02  0.10570000000E+00 0. -1.
         13    1    3    3    0    0  0.46578456621E+02  0.95172723220E+01  0.83346667740E+02  0.95952119776E+02  0.10570000000E+00 0.  1.
<mgrwt>
<rscale>  0 0.95262142E+02</rscale>
<asrwt>0</asrwt>
<pdfrwt beam="1">  1        3 0.25986639E-01 0.95262142E+02</pdfrwt>
<pdfrwt beam="2">  1       -3 0.20663499E-02 0.95262142E+02</pdfrwt>
<totfact> 0.26138451E+04</totfact>
</mgrwt>
</event>
<event>
 5    1  0.1401471E+000  0.9096758E+02  0.7818608E-02  0.1300525E+00
         -3   -1    0    0    0  501 -0.00000000000E+00  0.00000000000E+00  0.42331563635E+02  0.42331665793E+02  0.93000000000E-01 0.  1.
          3   -1    0    0  501    0  0.00000000000E+00 -0.00000000000E+00 -0.48870545501E+02  0.48870633990E+02  0.93000000000E-01 0. -1.
         23    2    1    2    0    0  0.00000000000E+00  0.00000000000E+00 -0.65389818659E+01  0.91202299782E+02  0.90967583246E+02 0.  0.
        -13    1    3    3    0    0 -0.36569770593E+01  0.21884762226E+02 -0.43076443771E+02  0.48455211065E+02  0.10570000000E+00 0. -1.
         13    1    3    3    0    0  0.36569770593E+01 -0.21884762226E+02  0.36537461905E+02  0.42747088718E+02  0.10570000000E+00 0.  1.
<mgrwt>
<rscale>  0 0.90967583E+02</rscale>
<asrwt>0</asrwt>
<pdfrwt beam="2">  1        3 0.75185601E-02 0.90967583E+02</pdfrwt>
<pdfrwt beam="1">  1       -3 0.65125629E-02 0.90967583E+02</pdfrwt>
<totfact> 0.35558733E+04</totfact>
</mgrwt>
</event>
<event>
 5    1  0.1401471E+000  0.9090381E+02  0.7818608E-02  0.1300678E+00
         -3   -1    0    0    0  501 -0.00000000000E+00  0.00000000000E+00  0.20571490128E+03  0.20571492231E+03  0.93000000000E-01 0.  1.
          3   -1    0    0  501    0  0.00000000000E+00 -0.00000000000E+00 -0.10042183268E+02  0.10042613892E+02  0.93000000000E-01 0. -1.
         23    2    1    2    0    0  0.00000000000E+00  0.00000000000E+00  0.19567271802E+03  0.21575753620E+03  0.90903805479E+02 0.  0.
        -13    1    3    3    0    0 -0.12736650029E+02 -0.43620172759E+02  0.95556634767E+02  0.10581126285E+03  0.10570000000E+00 0.  1.
         13    1    3    3    0    0  0.12736650029E+02  0.43620172759E+02  0.10011608325E+03  0.10994627335E+03  0.10570000000E+00 0. -1.
<mgrwt>
<rscale>  0 0.90903805E+02</rscale>
<asrwt>0</asrwt>
<pdfrwt beam="2">  1        3 0.15449861E-02 0.90903805E+02</pdfrwt>
<pdfrwt beam="1">  1       -3 0.31648479E-01 0.90903805E+02</pdfrwt>
<totfact> 0.27926576E+04</totfact>
</mgrwt>
</event>
<event>
 5    1  0.1401471E+000  0.9173676E+02  0.7818608E-02  0.1298700E+00
          3   -1    0    0  501    0  0.00000000000E+00  0.00000000000E+00  0.17411023025E+02  0.17411271401E+02  0.93000000000E-01 0. -1.
         -3   -1    0    0    0  501 -0.00000000000E+00 -0.00000000000E+00 -0.12083659712E+03  0.12083663291E+03  0.93000000000E-01 0.  1.
         23    2    1    2    0    0  0.00000000000E+00  0.00000000000E+00 -0.10342557410E+03  0.13824790431E+03  0.91736762910E+02 0.  0.
        -13    1    3    3    0    0 -0.30931698514E+02  0.16282359500E+02 -0.96468904241E+02  0.10260675349E+03  0.10570000000E+00 0.  1.
         13    1    3    3    0    0  0.30931698514E+02 -0.16282359500E+02 -0.69566698558E+01  0.35641150821E+02  0.10570000000E+00 0. -1.
<mgrwt>
<rscale>  0 0.91736763E+02</rscale>
<asrwt>0</asrwt>
<pdfrwt beam="1">  1        3 0.26786409E-02 0.91736763E+02</pdfrwt>
<pdfrwt beam="2">  1       -3 0.18590267E-01 0.91736763E+02</pdfrwt>
<totfact> 0.31514696E+04</totfact>
</mgrwt>
</event>
<event>
 5    1  0.1401471E+000  0.9244501E+02  0.7818608E-02  0.1297036E+00
         -3   -1    0    0    0  501 -0.00000000000E+00  0.00000000000E+00  0.34016148399E+02  0.34016275529E+02  0.93000000000E-01 0.  1.
          3   -1    0    0  501    0  0.00000000000E+00 -0.00000000000E+00 -0.62808713834E+02  0.62808782686E+02  0.93000000000E-01 0. -1.
         23    2    1    2    0    0  0.00000000000E+00  0.00000000000E+00 -0.28792565435E+02  0.96825058215E+02  0.92445011082E+02 0.  0.
        -13    1    3    3    0    0  0.25114746083E+02 -0.25411190332E+02  0.16319460840E+02  0.39278684289E+02  0.10570000000E+00 0.  1.
         13    1    3    3    0    0 -0.25114746083E+02  0.25411190332E+02 -0.45112026275E+02  0.57546373926E+02  0.10570000000E+00 0. -1.
<mgrwt>
<rscale>  0 0.92445011E+02</rscale>
<asrwt>0</asrwt>
<pdfrwt beam="2">  1        3 0.96628941E-02 0.92445011E+02</pdfrwt>
<pdfrwt beam="1">  1       -3 0.52332687E-02 0.92445011E+02</pdfrwt>
<totfact> 0.33616786E+04</totfact>
</mgrwt>
</event>
<event>
 5    1  0.1401471E+000  0.9058162E+02  0.7818608E-02  0.1301449E+00
         -3   -1    0    0    0  501 -0.00000000000E+00  0.00000000000E+00  0.69229000575E+02  0.69229063041E+02  0.93000000000E-01 0.  1.
          3   -1    0    0  501    0  0.00000000000E+00 -0.00000000000E+00 -0.29629882521E+02  0.29630028471E+02  0.93000000000E-01 0. -1.
         23    2    1    2    0    0  0.00000000000E+00  0.00000000000E+00  0.39599118054E+02  0.98859091513E+02  0.90581619681E+02 0.  0.
        -13    1    3    3    0    0 -0.37055934584E+02  0.44149176520E+01 -0.82090484276E+01  0.38210383855E+02  0.10570000000E+00 0. -1.
         13    1    3    3    0    0  0.37055934584E+02 -0.44149176520E+01  0.47808166481E+02  0.60648707658E+02  0.10570000000E+00 0.  1.
<mgrwt>
<rscale>  0 0.90581620E+02</rscale>
<asrwt>0</asrwt>
<pdfrwt beam="2">  1        3 0.45584595E-02 0.90581620E+02</pdfrwt>
<pdfrwt beam="1">  1       -3 0.10650631E-01 0.90581620E+02</pdfrwt>
<totfact> 0.35381553E+04</totfact>
</mgrwt>
</event>
<event>
 5    1  0.1401471E+000  0.8984097E+02  0.7818608E-02  0.1303237E+00
         -3   -1    0    0    0  501 -0.00000000000E+00  0.00000000000E+00  0.30219090846E+02  0.30219233951E+02  0.93000000000E-01 0.  1.
          3   -1    0    0  501    0  0.00000000000E+00 -0.00000000000E+00 -0.66773686616E+02  0.66773751380E+02  0.93000000000E-01 0. -1.
         23    2    1    2    0    0  0.00000000000E+00  0.00000000000E+00 -0.36554595770E+02  0.96992985331E+02  0.89840974680E+02 0.  0.
        -13    1    3    3    0    0 -0.32816349480E+02 -0.32139956416E+01 -0.51211456079E+02  0.60908677276E+02  0.10570000000E+00 0. -1.
         13    1    3    3    0    0  0.32816349480E+02  0.32139956416E+01  0.14656860309E+02  0.36084308055E+02  0.10570000000E+00 0.  1.
<mgrwt>
<rscale>  0 0.89840975E+02</rscale>
<asrwt>0</asrwt>
<pdfrwt beam="2">  1        3 0.10272891E-01 0.89840975E+02</pdfrwt>
<pdfrwt beam="1">  1       -3 0.46491069E-02 0.89840975E+02</pdfrwt>
<totfact> 0.36323071E+04</totfact>
</mgrwt>
</event>
<event>
 5    1  0.1401471E+000  0.9176352E+02  0.7818608E-02  0.1298636E+00
         -3   -1    0    0    0  501 -0.00000000000E+00  0.00000000000E+00  0.26572858674E+02  0.26573021414E+02  0.93000000000E-01 0.  1.
          3   -1    0    0  501    0  0.00000000000E+00 -0.00000000000E+00 -0.79220847532E+02  0.79220902120E+02  0.93000000000E-01 0. -1.
         23    2    1    2    0    0  0.00000000000E+00  0.00000000000E+00 -0.52647988859E+02  0.10579392353E+03  0.91763519582E+02 0.  0.
        -13    1    3    3    0    0 -0.36125138181E+02 -0.10870938338E+02 -0.56430333505E+02  0.67879279761E+02  0.10570000000E+00 0. -1.
         13    1    3    3    0    0  0.36125138181E+02  0.10870938338E+02  0.37823446461E+01  0.37914643773E+02  0.10570000000E+00 0.  1.
<mgrwt>
<rscale>  0 0.91763520E+02</rscale>
<asrwt>0</asrwt>
<pdfrwt beam="2">  1        3 0.12187839E-01 0.91763520E+02</pdfrwt>
<pdfrwt beam="1">  1       -3 0.40881489E-02 0.91763520E+02</pdfrwt>
<totfact> 0.33653355E+04</totfact>
</mgrwt>
</event>
<event>
 5    1  0.1401471E+000  0.9001428E+02  0.7818608E-02  0.1302817E+00
         -3   -1    0    0    0  501 -0.00000000000E+00  0.00000000000E+00  0.54113035665E+02  0.54113115581E+02  0.93000000000E-01 0.  1.
          3   -1    0    0  501    0  0.00000000000E+00 -0.00000000000E+00 -0.37433377460E+02  0.37433492985E+02  0.93000000000E-01 0. -1.
         23    2    1    2    0    0  0.00000000000E+00  0.00000000000E+00  0.16679658206E+02  0.91546608566E+02  0.90014279657E+02 0.  0.
        -13    1    3    3    0    0 -0.43959808963E+01 -0.35008280397E+02  0.36756976645E+02  0.50950867009E+02  0.10570000000E+00 0.  1.
         13    1    3    3    0    0  0.43959808963E+01  0.35008280397E+02 -0.20077318440E+02  0.40595741557E+02  0.10570000000E+00 0. -1.
<mgrwt>
<rscale>  0 0.90014280E+02</rscale>
<asrwt>0</asrwt>
<pdfrwt beam="2">  1        3 0.57589962E-02 0.90014280E+02</pdfrwt>
<pdfrwt beam="1">  1       -3 0.83250974E-02 0.90014280E+02</pdfrwt>
<totfact> 0.36564616E+04</totfact>
</mgrwt>
</event>
<event>
 5    1  0.1401471E+000  0.8988364E+02  0.7818608E-02  0.1303134E+00
          3   -1    0    0  501    0  0.00000000000E+00  0.00000000000E+00  0.89359163510E+02  0.89359211904E+02  0.93000000000E-01 0. -1.
         -3   -1    0    0    0  501 -0.00000000000E+00 -0.00000000000E+00 -0.22602648153E+02  0.22602839480E+02  0.93000000000E-01 0.  1.
         23    2    1    2    0    0  0.00000000000E+00  0.00000000000E+00  0.66756515356E+02  0.11196205138E+03  0.89883639265E+02 0.  0.
        -13    1    3    3    0    0 -0.12513639154E+02 -0.28802737871E+02  0.73424294143E+02  0.79858168127E+02  0.10570000000E+00 0. -1.
         13    1    3    3    0    0  0.12513639154E+02  0.28802737871E+02 -0.66677787862E+01  0.32103883257E+02  0.10570000000E+00 0.  1.
<mgrwt>
<rscale>  0 0.89883639E+02</rscale>
<asrwt>0</asrwt>
<pdfrwt beam="1">  1        3 0.13747582E-01 0.89883639E+02</pdfrwt>
<pdfrwt beam="2">  1       -3 0.34773489E-02 0.89883639E+02</pdfrwt>
<totfact> 0.35140590E+04</totfact>
</mgrwt>
</event>
<event>
 5    1  0.1401471E+000  0.9096491E+02  0.7818608E-02  0.1300532E+00
          3   -1    0    0  501    0  0.00000000000E+00  0.00000000000E+00  0.44638077254E+02  0.44638174133E+02  0.93000000000E-01 0. -1.
         -3   -1    0    0    0  501 -0.00000000000E+00 -0.00000000000E+00 -0.46342610185E+02  0.46342703501E+02  0.93000000000E-01 0.  1.
         23    2    1    2    0    0  0.00000000000E+00  0.00000000000E+00 -0.17045329306E+01  0.90980877634E+02  0.90964908962E+02 0.  0.
        -13    1    3    3    0    0  0.15739848250E+02 -0.13798539706E+02 -0.41238804855E+02  0.46247083361E+02  0.10570000000E+00 0.  1.
         13    1    3    3    0    0 -0.15739848250E+02  0.13798539706E+02  0.39534271925E+02  0.44733794273E+02  0.10570000000E+00 0. -1.
<mgrwt>
<rscale>  0 0.90964909E+02</rscale>
<asrwt>0</asrwt>
<pdfrwt beam="1">  1        3 0.68674111E-02 0.90964909E+02</pdfrwt>
<pdfrwt beam="2">  1       -3 0.71296470E-02 0.90964909E+02</pdfrwt>
<totfact> 0.35578701E+04</totfact>
</mgrwt>
</event>
<event>
 5    1  0.1401471E+000  0.8784404E+02  0.7818608E-02  0.1308158E+00
          3   -1    0    0  501    0  0.00000000000E+00  0.00000000000E+00  0.24926471195E+02  0.24926644685E+02  0.93000000000E-01 0. -1.
         -3   -1    0    0    0  501 -0.00000000000E+00 -0.00000000000E+00 -0.77392908129E+02  0.77392964006E+02  0.93000000000E-01 0.  1.
         23    2    1    2    0    0  0.00000000000E+00  0.00000000000E+00 -0.52466436934E+02  0.10231960869E+03  0.87844039741E+02 0.  0.
        -13    1    3    3    0    0  0.42995391381E+02  0.62371593118E+01 -0.18718145666E+02  0.47306299643E+02  0.10570000000E+00 0. -1.
         13    1    3    3    0    0 -0.42995391381E+02 -0.62371593118E+01 -0.33748291269E+02  0.55013309047E+02  0.10570000000E+00 0.  1.
<mgrwt>
<rscale>  0 0.87844040E+02</rscale>
<asrwt>0</asrwt>
<pdfrwt beam="1">  1        3 0.38348594E-02 0.87844040E+02</pdfrwt>
<pdfrwt beam="2">  1       -3 0.11906619E-01 0.87844040E+02</pdfrwt>
<totfact> 0.38166142E+04</totfact>
</mgrwt>
</event>
<event>
 5    1  0.1401471E+000  0.9194170E+02  0.7818608E-02  0.1298217E+00
         -3   -1    0    0    0  501 -0.00000000000E+00  0.00000000000E+00  0.52298385833E+02  0.52298468522E+02  0.93000000000E-01 0.  1.
          3   -1    0    0  501    0  0.00000000000E+00 -0.00000000000E+00 -0.40408707072E+02  0.40408814091E+02  0.93000000000E-01 0. -1.
         23    2    1    2    0    0  0.00000000000E+00  0.00000000000E+00  0.11889678761E+02  0.92707282612E+02  0.91941697767E+02 0.  0.
        -13    1    3    3    0    0 -0.45965008889E+02 -0.31014208807E+00  0.52839857223E+01  0.46268887040E+02  0.10570000000E+00 0.  1.
         13    1    3    3    0    0  0.45965008889E+02  0.31014208807E+00  0.66056930387E+01  0.46438395572E+02  0.10570000000E+00 0. -1.
<mgrwt>
<rscale>  0 0.91941698E+02</rscale>
<asrwt>0</asrwt>
<pdfrwt beam="2">  1        3 0.62167387E-02 0.91941698E+02</pdfrwt>
<pdfrwt beam="1">  1       -3 0.80459201E-02 0.91941698E+02</pdfrwt>
<totfact> 0.34427778E+04</totfact>
</mgrwt>
</event>
<event>
 5    1  0.1401471E+000  0.9083187E+02  0.7818608E-02  0.1300850E+00
         -3   -1    0    0    0  501 -0.00000000000E+00  0.00000000000E+00  0.28834572928E+02  0.28834722904E+02  0.93000000000E-01 0.  1.
          3   -1    0    0  501    0  0.00000000000E+00 -0.00000000000E+00 -0.71532068678E+02  0.71532129133E+02  0.93000000000E-01 0. -1.
         23    2    1    2    0    0  0.00000000000E+00  0.00000000000E+00 -0.42697495750E+02  0.10036685204E+03  0.90831871303E+02 0.  0.
        -13    1    3    3    0    0 -0.91280925004E+01 -0.25773739023E+02 -0.61418162032E+02  0.67229528451E+02  0.10570000000E+00 0. -1.
         13    1    3    3    0    0  0.91280925004E+01  0.25773739023E+02  0.18720666282E+02  0.33137323586E+02  0.10570000000E+00 0.  1.
<mgrwt>
<rscale>  0 0.90831871E+02</rscale>
<asrwt>0</asrwt>
<pdfrwt beam="2">  1        3 0.11004950E-01 0.90831871E+02</pdfrwt>
<pdfrwt beam="1">  1       -3 0.44361044E-02 0.90831871E+02</pdfrwt>
<totfact> 0.35002966E+04</totfact>
</mgrwt>
</event>
<event>
 5    1  0.1401471E+000  0.8923070E+02  0.7818608E-02  0.1304725E+00
         -3   -1    0    0    0  501 -0.00000000000E+00  0.00000000000E+00  0.52453520853E+02  0.52453603297E+02  0.93000000000E-01 0.  1.
          3   -1    0    0  501    0  0.00000000000E+00 -0.00000000000E+00 -0.37948270505E+02  0.37948384463E+02  0.93000000000E-01 0. -1.
         23    2    1    2    0    0  0.00000000000E+00  0.00000000000E+00  0.14505250348E+02  0.90401987760E+02  0.89230695970E+02 0.  0.
        -13    1    3    3    0    0  0.12359452895E+02 -0.25775425801E+02  0.41957045083E+02  0.50769414569E+02  0.10570000000E+00 0.  1.
         13    1    3    3    0    0 -0.12359452895E+02  0.25775425801E+02 -0.27451794735E+02  0.39632573191E+02  0.10570000000E+00 0. -1.
<mgrwt>
<rscale>  0 0.89230696E+02</rscale>
<asrwt>0</asrwt>
<pdfrwt beam="2">  1        3 0.58382106E-02 0.89230696E+02</pdfrwt>
<pdfrwt beam="1">  1       -3 0.80697876E-02 0.89230696E+02</pdfrwt>
<totfact> 0.37536493E+04</totfact>
</mgrwt>
</event>
<event>
 5    1  0.1401471E+000  0.9382812E+02  0.7818608E-02  0.1293837E+00
          3   -1    0    0  501    0  0.00000000000E+00  0.00000000000E+00  0.47942849499E+01  0.47951868765E+01  0.93000000000E-01 0. -1.
         -3   -1    0    0    0  501 -0.00000000000E+00 -0.00000000000E+00 -0.45902940200E+03  0.45902941142E+03  0.93000000000E-01 0.  1.
         23    2    1    2    0    0  0.00000000000E+00  0.00000000000E+00 -0.45423511705E+03  0.46382459829E+03  0.93828121713E+02 0.  0.
        -13    1    3    3    0    0  0.25391431024E+02 -0.39402147507E+02 -0.21765530259E+03  0.22264567347E+03  0.10570000000E+00 0. -1.
         13    1    3    3    0    0 -0.25391431024E+02  0.39402147507E+02 -0.23657981446E+03  0.24117892482E+03  0.10570000000E+00 0.  1.
<mgrwt>
<rscale>  0 0.93828122E+02</rscale>
<asrwt>0</asrwt>
<pdfrwt beam="1">  1        3 0.73765277E-03 0.93828122E+02</pdfrwt>
<pdfrwt beam="2">  1       -3 0.70619943E-01 0.93828122E+02</pdfrwt>
<totfact> 0.17413961E+04</totfact>
</mgrwt>
</event>
<event>
 5    1  0.1401471E+000  0.9126350E+02  0.7818608E-02  0.1299820E+00
         -3   -1    0    0    0  501 -0.00000000000E+00  0.00000000000E+00  0.16156721012E+02  0.16156988669E+02  0.93000000000E-01 0.  1.
          3   -1    0    0  501    0  0.00000000000E+00 -0.00000000000E+00 -0.12887731947E+03  0.12887735303E+03  0.93000000000E-01 0. -1.
         23    2    1    2    0    0  0.00000000000E+00  0.00000000000E+00 -0.11272059846E+03  0.14503434170E+03  0.91263502859E+02 0.  0.
        -13    1    3    3    0    0 -0.24170778714E+02  0.18701581874E+01 -0.11779656385E+03  0.12026539678E+03  0.10570000000E+00 0. -1.
         13    1    3    3    0    0  0.24170778714E+02 -0.18701581874E+01  0.50759653866E+01  0.24768944919E+02  0.10570000000E+00 0.  1.
<mgrwt>
<rscale>  0 0.91263503E+02</rscale>
<asrwt>0</asrwt>
<pdfrwt beam="2">  1        3 0.19827302E-01 0.91263503E+02</pdfrwt>
<pdfrwt beam="1">  1       -3 0.24856726E-02 0.91263503E+02</pdfrwt>
<totfact> 0.31532159E+04</totfact>
</mgrwt>
</event>
<event>
 5    1  0.1401471E+000  0.9742023E+02  0.7818608E-02  0.1285816E+00
          3   -1    0    0  501    0  0.00000000000E+00  0.00000000000E+00  0.91446666417E+02  0.91446713707E+02  0.93000000000E-01 0. -1.
         -3   -1    0    0    0  501 -0.00000000000E+00 -0.00000000000E+00 -0.25945862516E+02  0.25946029190E+02  0.93000000000E-01 0.  1.
         23    2    1    2    0    0  0.00000000000E+00  0.00000000000E+00  0.65500803901E+02  0.11739274290E+03  0.97420227741E+02 0.  0.
        -13    1    3    3    0    0 -0.45700736143E+02  0.13465396152E+02  0.44967476149E+02  0.65513046496E+02  0.10570000000E+00 0. -1.
         13    1    3    3    0    0  0.45700736143E+02 -0.13465396152E+02  0.20533327752E+02  0.51879696400E+02  0.10570000000E+00 0.  1.
<mgrwt>
<rscale>  0 0.97420228E+02</rscale>
<asrwt>0</asrwt>
<pdfrwt beam="1">  1        3 0.14068735E-01 0.97420228E+02</pdfrwt>
<pdfrwt beam="2">  1       -3 0.39916875E-02 0.97420228E+02</pdfrwt>
<totfact> 0.27895641E+04</totfact>
</mgrwt>
</event>
<event>
 5    1  0.1401471E+000  0.9419457E+02  0.7818608E-02  0.1293000E+00
          3   -1    0    0  501    0  0.00000000000E+00  0.00000000000E+00  0.25567072169E+03  0.25567073860E+03  0.93000000000E-01 0. -1.
         -3   -1    0    0    0  501 -0.00000000000E+00 -0.00000000000E+00 -0.86755585193E+01  0.86760569744E+01  0.93000000000E-01 0.  1.
         23    2    1    2    0    0  0.00000000000E+00  0.00000000000E+00  0.24699516317E+03  0.26434679558E+03  0.94194573638E+02 0.  0.
        -13    1    3    3    0    0 -0.36089393809E+02 -0.12584749622E+02  0.20072806166E+03  0.20433449581E+03  0.10570000000E+00 0. -1.
         13    1    3    3    0    0  0.36089393809E+02  0.12584749622E+02  0.46267101508E+02  0.60012299764E+02  0.10570000000E+00 0.  1.
<mgrwt>
<rscale>  0 0.94194574E+02</rscale>
<asrwt>0</asrwt>
<pdfrwt beam="1">  1        3 0.39333997E-01 0.94194574E+02</pdfrwt>
<pdfrwt beam="2">  1       -3 0.13347410E-02 0.94194574E+02</pdfrwt>
<totfact> 0.23337722E+04</totfact>
</mgrwt>
</event>
<event>
 5    1  0.1401471E+000  0.9524653E+02  0.7818608E-02  0.1290622E+00
         -3   -1    0    0    0  501 -0.00000000000E+00  0.00000000000E+00  0.38517862996E+02  0.38517975268E+02  0.93000000000E-01 0.  1.
          3   -1    0    0  501    0  0.00000000000E+00 -0.00000000000E+00 -0.58880894139E+02  0.58880967584E+02  0.93000000000E-01 0. -1.
         23    2    1    2    0    0  0.00000000000E+00  0.00000000000E+00 -0.20363031143E+02  0.97398942852E+02  0.95246527661E+02 0.  0.
        -13    1    3    3    0    0  0.25456870048E+02  0.40227927289E+02 -0.88776650663E+01  0.48426877621E+02  0.10570000000E+00 0.  1.
         13    1    3    3    0    0 -0.25456870048E+02 -0.40227927289E+02 -0.11485366077E+02  0.48972065231E+02  0.10570000000E+00 0. -1.
<mgrwt>
<rscale>  0 0.95246528E+02</rscale>
<asrwt>0</asrwt>
<pdfrwt beam="2">  1        3 0.90586134E-02 0.95246528E+02</pdfrwt>
<pdfrwt beam="1">  1       -3 0.59258393E-02 0.95246528E+02</pdfrwt>
<totfact> 0.30943122E+04</totfact>
</mgrwt>
</event>
<event>
 5    1  0.1401471E+000  0.9164940E+02  0.7818608E-02  0.1298906E+00
         -3   -1    0    0    0  501 -0.00000000000E+00  0.00000000000E+00  0.18291032231E+03  0.18291034596E+03  0.93000000000E-01 0.  1.
          3   -1    0    0  501    0  0.00000000000E+00 -0.00000000000E+00 -0.11480292793E+02  0.11480669476E+02  0.93000000000E-01 0. -1.
         23    2    1    2    0    0  0.00000000000E+00  0.00000000000E+00  0.17143002952E+03  0.19439101543E+03  0.91649396393E+02 0.  0.
        -13    1    3    3    0    0 -0.42848883521E+02  0.14389041196E+02  0.10170319287E+03  0.11129520178E+03  0.10570000000E+00 0.  1.
         13    1    3    3    0    0  0.42848883521E+02 -0.14389041196E+02  0.69726836650E+02  0.83095813656E+02  0.10570000000E+00 0. -1.
<mgrwt>
<rscale>  0 0.91649396E+02</rscale>
<asrwt>0</asrwt>
<pdfrwt beam="2">  1        3 0.17662298E-02 0.91649396E+02</pdfrwt>
<pdfrwt beam="1">  1       -3 0.28140078E-01 0.91649396E+02</pdfrwt>
<totfact> 0.28390624E+04</totfact>
</mgrwt>
</event>
<event>
 5    1  0.1401471E+000  0.9166866E+02  0.7818608E-02  0.1298860E+00
          3   -1    0    0  501    0  0.00000000000E+00  0.00000000000E+00  0.17009942747E+02  0.17010196979E+02  0.93000000000E-01 0. -1.
         -3   -1    0    0    0  501 -0.00000000000E+00 -0.00000000000E+00 -0.12350220233E+03  0.12350223735E+03  0.93000000000E-01 0.  1.
         23    2    1    2    0    0  0.00000000000E+00  0.00000000000E+00 -0.10649225958E+03  0.14051243433E+03  0.91668657942E+02 0.  0.
        -13    1    3    3    0    0  0.13935823186E+02  0.18675344017E+02  0.72530630854E+01  0.24404789256E+02  0.10570000000E+00 0. -1.
         13    1    3    3    0    0 -0.13935823186E+02 -0.18675344017E+02 -0.11374532267E+03  0.11610764507E+03  0.10570000000E+00 0.  1.
<mgrwt>
<rscale>  0 0.91668658E+02</rscale>
<asrwt>0</asrwt>
<pdfrwt beam="1">  1        3 0.26169366E-02 0.91668658E+02</pdfrwt>
<pdfrwt beam="2">  1       -3 0.19000360E-01 0.91668658E+02</pdfrwt>
<totfact> 0.31436492E+04</totfact>
</mgrwt>
</event>
<event>
 5    1  0.1401471E+000  0.8867339E+02  0.7818608E-02  0.1306096E+00
          3   -1    0    0  501    0  0.00000000000E+00  0.00000000000E+00  0.10372383154E+03  0.10372387324E+03  0.93000000000E-01 0. -1.
         -3   -1    0    0    0  501 -0.00000000000E+00 -0.00000000000E+00 -0.18951534468E+02  0.18951762653E+02  0.93000000000E-01 0.  1.
         23    2    1    2    0    0  0.00000000000E+00  0.00000000000E+00  0.84772297075E+02  0.12267563589E+03  0.88673385462E+02 0.  0.
        -13    1    3    3    0    0  0.35510441361E+01 -0.27195498543E+02  0.90579772845E+02  0.94640960881E+02  0.10570000000E+00 0. -1.
         13    1    3    3    0    0 -0.35510441361E+01  0.27195498543E+02 -0.58074757697E+01  0.28034675007E+02  0.10570000000E+00 0.  1.
<mgrwt>
<rscale>  0 0.88673385E+02</rscale>
<asrwt>0</asrwt>
<pdfrwt beam="1">  1        3 0.15957534E-01 0.88673385E+02</pdfrwt>
<pdfrwt beam="2">  1       -3 0.29156414E-02 0.88673385E+02</pdfrwt>
<totfact> 0.35652274E+04</totfact>
</mgrwt>
</event>
<event>
 5    1  0.1401471E+000  0.9125750E+02  0.7818608E-02  0.1299835E+00
         -3   -1    0    0    0  501 -0.00000000000E+00  0.00000000000E+00  0.12450640913E+02  0.12450988239E+02  0.93000000000E-01 0.  1.
          3   -1    0    0  501    0  0.00000000000E+00 -0.00000000000E+00 -0.16721622132E+03  0.16721624718E+03  0.93000000000E-01 0. -1.
         23    2    1    2    0    0  0.00000000000E+00  0.00000000000E+00 -0.15476558041E+03  0.17966723542E+03  0.91257496158E+02 0.  0.
        -13    1    3    3    0    0  0.19539525440E+02 -0.29679579219E+02 -0.13373644397E+03  0.13837672527E+03  0.10570000000E+00 0. -1.
         13    1    3    3    0    0 -0.19539525440E+02  0.29679579219E+02 -0.21029136436E+02  0.41290510154E+02  0.10570000000E+00 0.  1.
<mgrwt>
<rscale>  0 0.91257496E+02</rscale>
<asrwt>0</asrwt>
<pdfrwt beam="2">  1        3 0.25725600E-01 0.91257496E+02</pdfrwt>
<pdfrwt beam="1">  1       -3 0.19155120E-02 0.91257496E+02</pdfrwt>
<totfact> 0.29513752E+04</totfact>
</mgrwt>
</event>
<event>
 5    1  0.1401471E+000  0.8687113E+02  0.7818608E-02  0.1310611E+00
          3   -1    0    0  501    0  0.00000000000E+00  0.00000000000E+00  0.27196307140E+02  0.27196466150E+02  0.93000000000E-01 0. -1.
         -3   -1    0    0    0  501 -0.00000000000E+00 -0.00000000000E+00 -0.69371088084E+02  0.69371150422E+02  0.93000000000E-01 0.  1.
         23    2    1    2    0    0  0.00000000000E+00  0.00000000000E+00 -0.42174780944E+02  0.96567616573E+02  0.86871125369E+02 0.  0.
        -13    1    3    3    0    0  0.20256427402E+02  0.20888825744E+02  0.14760754566E+02  0.32627548788E+02  0.10570000000E+00 0. -1.
         13    1    3    3    0    0 -0.20256427402E+02 -0.20888825744E+02 -0.56935535509E+02  0.63940067785E+02  0.10570000000E+00 0.  1.
<mgrwt>
<rscale>  0 0.86871125E+02</rscale>
<asrwt>0</asrwt>
<pdfrwt beam="1">  1        3 0.41840643E-02 0.86871125E+02</pdfrwt>
<pdfrwt beam="2">  1       -3 0.10672492E-01 0.86871125E+02</pdfrwt>
<totfact> 0.39823835E+04</totfact>
</mgrwt>
</event>
<event>
 5    1  0.1401471E+000  0.9096920E+02  0.7818608E-02  0.1300521E+00
          3   -1    0    0  501    0  0.00000000000E+00  0.00000000000E+00  0.66891406649E+02  0.66891471299E+02  0.93000000000E-01 0. -1.
         -3   -1    0    0    0  501 -0.00000000000E+00 -0.00000000000E+00 -0.30928316844E+02  0.30928456667E+02  0.93000000000E-01 0.  1.
         23    2    1    2    0    0  0.00000000000E+00  0.00000000000E+00  0.35963089805E+02  0.97819927965E+02  0.90969195219E+02 0.  0.
        -13    1    3    3    0    0  0.21587190691E+02  0.14776903203E+02 -0.22029081728E+02  0.34200223456E+02  0.10570000000E+00 0.  1.
         13    1    3    3    0    0 -0.21587190691E+02 -0.14776903203E+02  0.57992171533E+02  0.63619704509E+02  0.10570000000E+00 0. -1.
<mgrwt>
<rscale>  0 0.90969195E+02</rscale>
<asrwt>0</asrwt>
<pdfrwt beam="1">  1        3 0.10291001E-01 0.90969195E+02</pdfrwt>
<pdfrwt beam="2">  1       -3 0.47582184E-02 0.90969195E+02</pdfrwt>
<totfact> 0.35050452E+04</totfact>
</mgrwt>
</event>
<event>
 5    1  0.1401471E+000  0.9096682E+02  0.7818608E-02  0.1300527E+00
         -3   -1    0    0    0  501 -0.00000000000E+00  0.00000000000E+00  0.16289455747E+02  0.16289721223E+02  0.93000000000E-01 0.  1.
          3   -1    0    0  501    0  0.00000000000E+00 -0.00000000000E+00 -0.12699743328E+03  0.12699746734E+03  0.93000000000E-01 0. -1.
         23    2    1    2    0    0  0.00000000000E+00  0.00000000000E+00 -0.11070797754E+03  0.14328718856E+03  0.90966818758E+02 0.  0.
        -13    1    3    3    0    0  0.89595724541E+01  0.37581193747E+02 -0.93161387295E+02  0.10085472382E+03  0.10570000000E+00 0. -1.
         13    1    3    3    0    0 -0.89595724541E+01 -0.37581193747E+02 -0.17546590241E+02  0.42432464736E+02  0.10570000000E+00 0.  1.
<mgrwt>
<rscale>  0 0.90966819E+02</rscale>
<asrwt>0</asrwt>
<pdfrwt beam="2">  1        3 0.19538089E-01 0.90966819E+02</pdfrwt>
<pdfrwt beam="1">  1       -3 0.25060932E-02 0.90966819E+02</pdfrwt>
<totfact> 0.31921698E+04</totfact>
</mgrwt>
</event>
<event>
 5    1  0.1401471E+000  0.9327090E+02  0.7818608E-02  0.1295119E+00
         -3   -1    0    0    0  501 -0.00000000000E+00  0.00000000000E+00  0.71293180637E+01  0.71299246177E+01  0.93000000000E-01 0.  1.
          3   -1    0    0  501    0  0.00000000000E+00 -0.00000000000E+00 -0.30504577217E+03  0.30504578634E+03  0.93000000000E-01 0. -1.
         23    2    1    2    0    0  0.00000000000E+00  0.00000000000E+00 -0.29791645410E+03  0.31217571096E+03  0.93270900546E+02 0.  0.
        -13    1    3    3    0    0  0.36610666269E+02 -0.15967846539E+02 -0.68384205917E+02  0.79194215692E+02  0.10570000000E+00 0. -1.
         13    1    3    3    0    0 -0.36610666269E+02  0.15967846539E+02 -0.22953224819E+03  0.23298149527E+03  0.10570000000E+00 0.  1.
<mgrwt>
<rscale>  0 0.93270901E+02</rscale>
<asrwt>0</asrwt>
<pdfrwt beam="2">  1        3 0.46930156E-01 0.93270901E+02</pdfrwt>
<pdfrwt beam="1">  1       -3 0.10968662E-02 0.93270901E+02</pdfrwt>
<totfact> 0.22171392E+04</totfact>
</mgrwt>
</event>
<event>
 5    1  0.1401471E+000  0.9888463E+02  0.7818608E-02  0.1282659E+00
          3   -1    0    0  501    0  0.00000000000E+00  0.00000000000E+00  0.24052688150E+02  0.24052867942E+02  0.93000000000E-01 0. -1.
         -3   -1    0    0    0  501 -0.00000000000E+00 -0.00000000000E+00 -0.10163224532E+03  0.10163228787E+03  0.93000000000E-01 0.  1.
         23    2    1    2    0    0  0.00000000000E+00  0.00000000000E+00 -0.77579557168E+02  0.12568515581E+03  0.98884633289E+02 0.  0.
        -13    1    3    3    0    0 -0.39527892857E+02  0.27367877274E+02 -0.24127352457E+02  0.53792149328E+02  0.10570000000E+00 0. -1.
         13    1    3    3    0    0  0.39527892857E+02 -0.27367877274E+02 -0.53452204711E+02  0.71893006483E+02  0.10570000000E+00 0.  1.
<mgrwt>
<rscale>  0 0.98884633E+02</rscale>
<asrwt>0</asrwt>
<pdfrwt beam="1">  1        3 0.37004307E-02 0.98884633E+02</pdfrwt>
<pdfrwt beam="2">  1       -3 0.15635747E-01 0.98884633E+02</pdfrwt>
<totfact> 0.26331152E+04</totfact>
</mgrwt>
</event>
<event>
 5    1  0.1401471E+000  0.9727710E+02  0.7818608E-02  0.1286128E+00
          3   -1    0    0  501    0  0.00000000000E+00  0.00000000000E+00  0.11442814659E+03  0.11442818438E+03  0.93000000000E-01 0. -1.
         -3   -1    0    0    0  501 -0.00000000000E+00 -0.00000000000E+00 -0.20674038442E+02  0.20674247617E+02  0.93000000000E-01 0.  1.
         23    2    1    2    0    0  0.00000000000E+00  0.00000000000E+00  0.93754108144E+02  0.13510243200E+03  0.97277100785E+02 0.  0.
        -13    1    3    3    0    0 -0.24882089246E+02 -0.41118540842E+02  0.36498345492E+02  0.60348928428E+02  0.10570000000E+00 0.  1.
         13    1    3    3    0    0  0.24882089246E+02  0.41118540842E+02  0.57255762652E+02  0.74753503567E+02  0.10570000000E+00 0. -1.
<mgrwt>
<rscale>  0 0.97277101E+02</rscale>
<asrwt>0</asrwt>
<pdfrwt beam="1">  1        3 0.17604349E-01 0.97277101E+02</pdfrwt>
<pdfrwt beam="2">  1       -3 0.31806404E-02 0.97277101E+02</pdfrwt>
<totfact> 0.27025672E+04</totfact>
</mgrwt>
</event>
<event>
 5    1  0.1401471E+000  0.9033983E+02  0.7818608E-02  0.1302031E+00
          3   -1    0    0  501    0  0.00000000000E+00  0.00000000000E+00  0.17477272690E+03  0.17477275164E+03  0.93000000000E-01 0. -1.
         -3   -1    0    0    0  501 -0.00000000000E+00 -0.00000000000E+00 -0.11673930155E+02  0.11674300590E+02  0.93000000000E-01 0.  1.
         23    2    1    2    0    0  0.00000000000E+00  0.00000000000E+00  0.16309879674E+03  0.18644705223E+03  0.90339834994E+02 0.  0.
        -13    1    3    3    0    0  0.12045893820E+02 -0.26307797625E+02  0.15313542623E+03  0.15584503109E+03  0.10570000000E+00 0. -1.
         13    1    3    3    0    0 -0.12045893820E+02  0.26307797625E+02  0.99633705091E+01  0.30602021146E+02  0.10570000000E+00 0.  1.
<mgrwt>
<rscale>  0 0.90339835E+02</rscale>
<asrwt>0</asrwt>
<pdfrwt beam="1">  1        3 0.26888141E-01 0.90339835E+02</pdfrwt>
<pdfrwt beam="2">  1       -3 0.17960198E-02 0.90339835E+02</pdfrwt>
<totfact> 0.29950082E+04</totfact>
</mgrwt>
</event>
<event>
 5    1  0.1401471E+000  0.9123438E+02  0.7818608E-02  0.1299890E+00
         -3   -1    0    0    0  501 -0.00000000000E+00  0.00000000000E+00  0.16939307197E+02  0.16939562489E+02  0.93000000000E-01 0.  1.
          3   -1    0    0  501    0  0.00000000000E+00 -0.00000000000E+00 -0.12284491004E+03  0.12284494524E+03  0.93000000000E-01 0. -1.
         23    2    1    2    0    0  0.00000000000E+00  0.00000000000E+00 -0.10590560284E+03  0.13978450773E+03  0.91234378872E+02 0.  0.
        -13    1    3    3    0    0  0.30057129095E+01  0.44174811290E+02 -0.69769368331E+02  0.82633069606E+02  0.10570000000E+00 0. -1.
         13    1    3    3    0    0 -0.30057129095E+01 -0.44174811290E+02 -0.36136234508E+02  0.57151438123E+02  0.10570000000E+00 0.  1.
<mgrwt>
<rscale>  0 0.91234379E+02</rscale>
<asrwt>0</asrwt>
<pdfrwt beam="2">  1        3 0.18899239E-01 0.91234379E+02</pdfrwt>
<pdfrwt beam="1">  1       -3 0.26060697E-02 0.91234379E+02</pdfrwt>
<totfact> 0.31889211E+04</totfact>
</mgrwt>
</event>
<event>
 5    1  0.1401471E+000  0.9114196E+02  0.7818608E-02  0.1300110E+00
          3   -1    0    0  501    0  0.00000000000E+00  0.00000000000E+00  0.67699353381E+02  0.67699417259E+02  0.93000000000E-01 0. -1.
         -3   -1    0    0    0  501 -0.00000000000E+00 -0.00000000000E+00 -0.30675391854E+02  0.30675532830E+02  0.93000000000E-01 0.  1.
         23    2    1    2    0    0  0.00000000000E+00  0.00000000000E+00  0.37023961527E+02  0.98374950089E+02  0.91141961126E+02 0.  0.
        -13    1    3    3    0    0  0.38167809137E+02 -0.43445199435E+01 -0.79498705169E+01  0.39228409624E+02  0.10570000000E+00 0.  1.
         13    1    3    3    0    0 -0.38167809137E+02  0.43445199435E+01  0.44973832043E+02  0.59146540465E+02  0.10570000000E+00 0. -1.
<mgrwt>
<rscale>  0 0.91141961E+02</rscale>
<asrwt>0</asrwt>
<pdfrwt beam="1">  1        3 0.10415301E-01 0.91141961E+02</pdfrwt>
<pdfrwt beam="2">  1       -3 0.47193068E-02 0.91141961E+02</pdfrwt>
<totfact> 0.34828245E+04</totfact>
</mgrwt>
</event>
<event>
 5    1  0.1401471E+000  0.9219043E+02  0.7818608E-02  0.1297632E+00
          3   -1    0    0  501    0  0.00000000000E+00  0.00000000000E+00  0.21792507993E+02  0.21792706432E+02  0.93000000000E-01 0. -1.
         -3   -1    0    0    0  501 -0.00000000000E+00 -0.00000000000E+00 -0.97499307369E+02  0.97499351723E+02  0.93000000000E-01 0.  1.
         23    2    1    2    0    0  0.00000000000E+00  0.00000000000E+00 -0.75706799376E+02  0.11929205816E+03  0.92190431538E+02 0.  0.
        -13    1    3    3    0    0  0.10380503262E+02 -0.44891225419E+02 -0.39580153472E+02  0.60741885787E+02  0.10570000000E+00 0.  1.
         13    1    3    3    0    0 -0.10380503262E+02  0.44891225419E+02 -0.36126645903E+02  0.58550172368E+02  0.10570000000E+00 0. -1.
<mgrwt>
<rscale>  0 0.92190432E+02</rscale>
<asrwt>0</asrwt>
<pdfrwt beam="1">  1        3 0.33527123E-02 0.92190432E+02</pdfrwt>
<pdfrwt beam="2">  1       -3 0.14999912E-01 0.92190432E+02</pdfrwt>
<totfact> 0.32309329E+04</totfact>
</mgrwt>
</event>
<event>
 5    1  0.1401471E+000  0.9150919E+02  0.7818608E-02  0.1299238E+00
         -3   -1    0    0    0  501 -0.00000000000E+00  0.00000000000E+00  0.72539231843E+02  0.72539291459E+02  0.93000000000E-01 0.  1.
          3   -1    0    0  501    0  0.00000000000E+00 -0.00000000000E+00 -0.28859860815E+02  0.28860010659E+02  0.93000000000E-01 0. -1.
         23    2    1    2    0    0  0.00000000000E+00  0.00000000000E+00  0.43679371029E+02  0.10139930212E+03  0.91509185422E+02 0.  0.
        -13    1    3    3    0    0  0.73749470310E+01 -0.25081826833E+02  0.63447731682E+02  0.68622982368E+02  0.10570000000E+00 0.  1.
         13    1    3    3    0    0 -0.73749470310E+01  0.25081826833E+02 -0.19768360654E+02  0.32776319751E+02  0.10570000000E+00 0. -1.
<mgrwt>
<rscale>  0 0.91509185E+02</rscale>
<asrwt>0</asrwt>
<pdfrwt beam="2">  1        3 0.44399947E-02 0.91509185E+02</pdfrwt>
<pdfrwt beam="1">  1       -3 0.11159898E-01 0.91509185E+02</pdfrwt>
<totfact> 0.34227771E+04</totfact>
</mgrwt>
</event>
<event>
 5    1  0.1401471E+000  0.8954344E+02  0.7818608E-02  0.1303961E+00
          3   -1    0    0  501    0  0.00000000000E+00  0.00000000000E+00  0.77429400520E+02  0.77429456371E+02  0.93000000000E-01 0. -1.
         -3   -1    0    0    0  501 -0.00000000000E+00 -0.00000000000E+00 -0.25888042523E+02  0.25888209569E+02  0.93000000000E-01 0.  1.
         23    2    1    2    0    0  0.00000000000E+00  0.00000000000E+00  0.51541357997E+02  0.10331766594E+03  0.89543444825E+02 0.  0.
        -13    1    3    3    0    0 -0.15948406915E+02 -0.39328319688E+02  0.93138686274E+01  0.43449139622E+02  0.10570000000E+00 0.  1.
         13    1    3    3    0    0  0.15948406915E+02  0.39328319688E+02  0.42227489369E+02  0.59868526318E+02  0.10570000000E+00 0. -1.
<mgrwt>
<rscale>  0 0.89543445E+02</rscale>
<asrwt>0</asrwt>
<pdfrwt beam="1">  1        3 0.11912232E-01 0.89543445E+02</pdfrwt>
<pdfrwt beam="2">  1       -3 0.39827930E-02 0.89543445E+02</pdfrwt>
<totfact> 0.36157779E+04</totfact>
</mgrwt>
</event>
<event>
 5    1  0.1401471E+000  0.9146889E+02  0.7818608E-02  0.1299333E+00
          3   -1    0    0  501    0  0.00000000000E+00  0.00000000000E+00  0.14660056583E+02  0.14660351565E+02  0.93000000000E-01 0. -1.
         -3   -1    0    0    0  501 -0.00000000000E+00 -0.00000000000E+00 -0.14267434309E+03  0.14267437340E+03  0.93000000000E-01 0.  1.
         23    2    1    2    0    0  0.00000000000E+00  0.00000000000E+00 -0.12801428651E+03  0.15733472496E+03  0.91468891596E+02 0.  0.
        -13    1    3    3    0    0  0.40580484008E+02 -0.20060685856E+02 -0.52803881324E+02  0.69551907628E+02  0.10570000000E+00 0. -1.
         13    1    3    3    0    0 -0.40580484008E+02  0.20060685856E+02 -0.75210405181E+02  0.87782817335E+02  0.10570000000E+00 0.  1.
<mgrwt>
<rscale>  0 0.91468892E+02</rscale>
<asrwt>0</asrwt>
<pdfrwt beam="1">  1        3 0.22554184E-02 0.91468892E+02</pdfrwt>
<pdfrwt beam="2">  1       -3 0.21949923E-01 0.91468892E+02</pdfrwt>
<totfact> 0.30598617E+04</totfact>
</mgrwt>
</event>
<event>
 5    1  0.1401471E+000  0.9196450E+02  0.7818608E-02  0.1298163E+00
         -3   -1    0    0    0  501 -0.00000000000E+00  0.00000000000E+00  0.15691514153E+02  0.15691789745E+02  0.93000000000E-01 0.  1.
          3   -1    0    0  501    0  0.00000000000E+00 -0.00000000000E+00 -0.13474444467E+03  0.13474447676E+03  0.93000000000E-01 0. -1.
         23    2    1    2    0    0  0.00000000000E+00  0.00000000000E+00 -0.11905293051E+03  0.15043626651E+03  0.91964504111E+02 0.  0.
        -13    1    3    3    0    0  0.55328939668E+01 -0.33560350144E+02 -0.89102662384E+01  0.35161257577E+02  0.10570000000E+00 0.  1.
         13    1    3    3    0    0 -0.55328939668E+01  0.33560350144E+02 -0.11014266427E+03  0.11527500893E+03  0.10570000000E+00 0. -1.
<mgrwt>
<rscale>  0 0.91964504E+02</rscale>
<asrwt>0</asrwt>
<pdfrwt beam="2">  1        3 0.20729937E-01 0.91964504E+02</pdfrwt>
<pdfrwt beam="1">  1       -3 0.24141029E-02 0.91964504E+02</pdfrwt>
<totfact> 0.30558661E+04</totfact>
</mgrwt>
</event>
<event>
 5    1  0.1401471E+000  0.9209102E+02  0.7818608E-02  0.1297866E+00
          3   -1    0    0  501    0  0.00000000000E+00  0.00000000000E+00  0.18655643429E+02  0.18655875234E+02  0.93000000000E-01 0. -1.
         -3   -1    0    0    0  501 -0.00000000000E+00 -0.00000000000E+00 -0.11364772084E+03  0.11364775890E+03  0.93000000000E-01 0.  1.
         23    2    1    2    0    0  0.00000000000E+00  0.00000000000E+00 -0.94992077416E+02  0.13230363413E+03  0.92091024711E+02 0.  0.
        -13    1    3    3    0    0  0.28940149653E+02  0.59125927272E+01  0.32506018139E+01  0.29716470170E+02  0.10570000000E+00 0. -1.
         13    1    3    3    0    0 -0.28940149653E+02 -0.59125927272E+01 -0.98242679230E+02  0.10258716396E+03  0.10570000000E+00 0.  1.
<mgrwt>
<rscale>  0 0.92091025E+02</rscale>
<asrwt>0</asrwt>
<pdfrwt beam="1">  1        3 0.28701198E-02 0.92091025E+02</pdfrwt>
<pdfrwt beam="2">  1       -3 0.17484285E-01 0.92091025E+02</pdfrwt>
<totfact> 0.31558992E+04</totfact>
</mgrwt>
</event>
<event>
 5    1  0.1401471E+000  0.9233400E+02  0.7818608E-02  0.1297296E+00
         -3   -1    0    0    0  501 -0.00000000000E+00  0.00000000000E+00  0.94350949411E+02  0.94350995245E+02  0.93000000000E-01 0.  1.
          3   -1    0    0  501    0  0.00000000000E+00 -0.00000000000E+00 -0.22589894963E+02  0.22590086397E+02  0.93000000000E-01 0. -1.
         23    2    1    2    0    0  0.00000000000E+00  0.00000000000E+00  0.71761054448E+02  0.11694108164E+03  0.92334000455E+02 0.  0.
        -13    1    3    3    0    0  0.35623765784E+02  0.18662656294E+01 -0.12356188969E+01  0.35694167067E+02  0.10570000000E+00 0. -1.
         13    1    3    3    0    0 -0.35623765784E+02 -0.18662656294E+01  0.72996673345E+02  0.81246914575E+02  0.10570000000E+00 0.  1.
<mgrwt>
<rscale>  0 0.92334000E+02</rscale>
<asrwt>0</asrwt>
<pdfrwt beam="2">  1        3 0.34753867E-02 0.92334000E+02</pdfrwt>
<pdfrwt beam="1">  1       -3 0.14515549E-01 0.92334000E+02</pdfrwt>
<totfact> 0.32329003E+04</totfact>
</mgrwt>
</event>
<event>
 5    1  0.1401471E+000  0.9119060E+02  0.7818608E-02  0.1299994E+00
          3   -1    0    0  501    0  0.00000000000E+00  0.00000000000E+00  0.84837112911E+01  0.84842210173E+01  0.93000000000E-01 0. -1.
         -3   -1    0    0    0  501 -0.00000000000E+00 -0.00000000000E+00 -0.24504189525E+03  0.24504191290E+03  0.93000000000E-01 0.  1.
         23    2    1    2    0    0  0.00000000000E+00  0.00000000000E+00 -0.23655818396E+03  0.25352613392E+03  0.91190603574E+02 0.  0.
        -13    1    3    3    0    0  0.44228687241E+02  0.81405699127E+01 -0.13917203803E+03  0.14625769380E+03  0.10570000000E+00 0.  1.
         13    1    3    3    0    0 -0.44228687241E+02 -0.81405699127E+01 -0.97386145933E+02  0.10726844012E+03  0.10570000000E+00 0. -1.
<mgrwt>
<rscale>  0 0.91190604E+02</rscale>
<asrwt>0</asrwt>
<pdfrwt beam="1">  1        3 0.13052271E-02 0.91190604E+02</pdfrwt>
<pdfrwt beam="2">  1       -3 0.37698788E-01 0.91190604E+02</pdfrwt>
<totfact> 0.25932893E+04</totfact>
</mgrwt>
</event>
<event>
 5    1  0.1401471E+000  0.8618127E+02  0.7818608E-02  0.1312372E+00
         -3   -1    0    0    0  501 -0.00000000000E+00  0.00000000000E+00  0.36451727229E+02  0.36451845865E+02  0.93000000000E-01 0.  1.
          3   -1    0    0  501    0  0.00000000000E+00 -0.00000000000E+00 -0.50938433248E+02  0.50938518145E+02  0.93000000000E-01 0. -1.
         23    2    1    2    0    0  0.00000000000E+00  0.00000000000E+00 -0.14486706019E+02  0.87390364010E+02  0.86181268675E+02 0.  0.
        -13    1    3    3    0    0 -0.74355815809E+01  0.24723201753E+02  0.27740920914E+02  0.37895836764E+02  0.10570000000E+00 0.  1.
         13    1    3    3    0    0  0.74355815809E+01 -0.24723201753E+02 -0.42227626933E+02  0.49494527246E+02  0.10570000000E+00 0. -1.
<mgrwt>
<rscale>  0 0.86181269E+02</rscale>
<asrwt>0</asrwt>
<pdfrwt beam="2">  1        3 0.78366977E-02 0.86181269E+02</pdfrwt>
<pdfrwt beam="1">  1       -3 0.56079737E-02 0.86181269E+02</pdfrwt>
<totfact> 0.41517561E+04</totfact>
</mgrwt>
</event>
<event>
 5    1  0.1401471E+000  0.9123432E+02  0.7818608E-02  0.1299890E+00
          3   -1    0    0  501    0  0.00000000000E+00  0.00000000000E+00  0.19337531540E+02  0.19337755171E+02  0.93000000000E-01 0. -1.
         -3   -1    0    0    0  501 -0.00000000000E+00 -0.00000000000E+00 -0.10760983401E+03  0.10760987420E+03  0.93000000000E-01 0.  1.
         23    2    1    2    0    0  0.00000000000E+00  0.00000000000E+00 -0.88272302469E+02  0.12694762937E+03  0.91234320399E+02 0.  0.
        -13    1    3    3    0    0  0.12540028114E+02  0.24627955047E+02  0.63625209333E+01  0.28359854020E+02  0.10570000000E+00 0. -1.
         13    1    3    3    0    0 -0.12540028114E+02 -0.24627955047E+02 -0.94634823402E+02  0.98587775347E+02  0.10570000000E+00 0.  1.
<mgrwt>
<rscale>  0 0.91234320E+02</rscale>
<asrwt>0</asrwt>
<pdfrwt beam="1">  1        3 0.29750252E-02 0.91234320E+02</pdfrwt>
<pdfrwt beam="2">  1       -3 0.16555379E-01 0.91234320E+02</pdfrwt>
<totfact> 0.32723306E+04</totfact>
</mgrwt>
</event>
<event>
 5    1  0.1401471E+000  0.9155405E+02  0.7818608E-02  0.1299131E+00
          3   -1    0    0  501    0  0.00000000000E+00  0.00000000000E+00  0.23953292852E+03  0.23953294657E+03  0.93000000000E-01 0. -1.
         -3   -1    0    0    0  501 -0.00000000000E+00 -0.00000000000E+00 -0.87481601905E+01  0.87486545090E+01  0.93000000000E-01 0.  1.
         23    2    1    2    0    0  0.00000000000E+00  0.00000000000E+00  0.23078476833E+03  0.24828160108E+03  0.91554050392E+02 0.  0.
        -13    1    3    3    0    0  0.18293109308E+02  0.40672158937E+02  0.14339978839E+03  0.15017447467E+03  0.10570000000E+00 0.  1.
         13    1    3    3    0    0 -0.18293109308E+02 -0.40672158937E+02  0.87384979939E+02  0.98107126409E+02  0.10570000000E+00 0. -1.
<mgrwt>
<rscale>  0 0.91554050E+02</rscale>
<asrwt>0</asrwt>
<pdfrwt beam="1">  1        3 0.36851267E-01 0.91554050E+02</pdfrwt>
<pdfrwt beam="2">  1       -3 0.13459099E-02 0.91554050E+02</pdfrwt>
<totfact> 0.25890671E+04</totfact>
</mgrwt>
</event>
<event>
 5    1  0.1401471E+000  0.9642703E+02  0.7818608E-02  0.1287994E+00
         -3   -1    0    0    0  501 -0.00000000000E+00  0.00000000000E+00  0.12715476298E+03  0.12715479699E+03  0.93000000000E-01 0.  1.
          3   -1    0    0  501    0  0.00000000000E+00 -0.00000000000E+00 -0.18281054225E+02  0.18281290780E+02  0.93000000000E-01 0. -1.
         23    2    1    2    0    0  0.00000000000E+00  0.00000000000E+00  0.10887370876E+03  0.14543608777E+03  0.96427025092E+02 0.  0.
        -13    1    3    3    0    0  0.25150504360E+02 -0.21692732793E+02  0.17255225131E+01  0.33258248992E+02  0.10570000000E+00 0. -1.
         13    1    3    3    0    0 -0.25150504360E+02  0.21692732793E+02  0.10714818624E+03  0.11217783878E+03  0.10570000000E+00 0.  1.
<mgrwt>
<rscale>  0 0.96427025E+02</rscale>
<asrwt>0</asrwt>
<pdfrwt beam="2">  1        3 0.28124907E-02 0.96427025E+02</pdfrwt>
<pdfrwt beam="1">  1       -3 0.19562292E-01 0.96427025E+02</pdfrwt>
<totfact> 0.27125253E+04</totfact>
</mgrwt>
</event>
<event>
 5    1  0.1401471E+000  0.8918249E+02  0.7818608E-02  0.1304844E+00
          3   -1    0    0  501    0  0.00000000000E+00  0.00000000000E+00  0.30642300775E+02  0.30642441903E+02  0.93000000000E-01 0. -1.
         -3   -1    0    0    0  501 -0.00000000000E+00 -0.00000000000E+00 -0.64889677826E+02  0.64889744470E+02  0.93000000000E-01 0.  1.
         23    2    1    2    0    0  0.00000000000E+00  0.00000000000E+00 -0.34247377052E+02  0.95532186373E+02  0.89182485939E+02 0.  0.
        -13    1    3    3    0    0 -0.27421577503E+02 -0.87296903502E+01 -0.53610828682E+02  0.60846384698E+02  0.10570000000E+00 0.  1.
         13    1    3    3    0    0  0.27421577503E+02  0.87296903502E+01  0.19363451630E+02  0.34685801675E+02  0.10570000000E+00 0. -1.
<mgrwt>
<rscale>  0 0.89182486E+02</rscale>
<asrwt>0</asrwt>
<pdfrwt beam="1">  1        3 0.47142161E-02 0.89182486E+02</pdfrwt>
<pdfrwt beam="2">  1       -3 0.99830433E-02 0.89182486E+02</pdfrwt>
<totfact> 0.37173746E+04</totfact>
</mgrwt>
</event>
<event>
 5    1  0.1401471E+000  0.9210089E+02  0.7818608E-02  0.1297842E+00
         -3   -1    0    0    0  501 -0.00000000000E+00  0.00000000000E+00  0.42113614846E+02  0.42113717533E+02  0.93000000000E-01 0.  1.
          3   -1    0    0  501    0  0.00000000000E+00 -0.00000000000E+00 -0.50355082418E+02  0.50355168298E+02  0.93000000000E-01 0. -1.
         23    2    1    2    0    0  0.00000000000E+00  0.00000000000E+00 -0.82414675712E+01  0.92468885830E+02  0.92100885224E+02 0.  0.
        -13    1    3    3    0    0  0.11774418378E+02 -0.34074677727E+02 -0.32886767870E+02  0.48798271115E+02  0.10570000000E+00 0. -1.
         13    1    3    3    0    0 -0.11774418378E+02  0.34074677727E+02  0.24645300299E+02  0.43670614716E+02  0.10570000000E+00 0.  1.
<mgrwt>
<rscale>  0 0.92100885E+02</rscale>
<asrwt>0</asrwt>
<pdfrwt beam="2">  1        3 0.77469503E-02 0.92100885E+02</pdfrwt>
<pdfrwt beam="1">  1       -3 0.64790322E-02 0.92100885E+02</pdfrwt>
<totfact> 0.34282489E+04</totfact>
</mgrwt>
</event>
<event>
 5    1  0.1401471E+000  0.9047829E+02  0.7818608E-02  0.1301698E+00
          3   -1    0    0  501    0  0.00000000000E+00  0.00000000000E+00  0.89815416234E+02  0.89815464382E+02  0.93000000000E-01 0.  1.
         -3   -1    0    0    0  501 -0.00000000000E+00 -0.00000000000E+00 -0.22786363762E+02  0.22786553546E+02  0.93000000000E-01 0. -1.
         23    2    1    2    0    0  0.00000000000E+00  0.00000000000E+00  0.67029052471E+02  0.11260201793E+03  0.90478287817E+02 0.  0.
        -13    1    3    3    0    0  0.21361118389E+02 -0.16259618338E+02  0.78831050867E+02  0.83276757385E+02  0.10570000000E+00 0.  1.
         13    1    3    3    0    0 -0.21361118389E+02  0.16259618338E+02 -0.11801998396E+02  0.29325260543E+02  0.10570000000E+00 0. -1.
<mgrwt>
<rscale>  0 0.90478288E+02</rscale>
<asrwt>0</asrwt>
<pdfrwt beam="1">  1        3 0.13817775E-01 0.90478288E+02</pdfrwt>
<pdfrwt beam="2">  1       -3 0.35056127E-02 0.90478288E+02</pdfrwt>
<totfact> 0.34472094E+04</totfact>
</mgrwt>
</event>
<event>
 4    1  0.1401471E+000  0.1324073E+03  0.7818608E-02  0.1223927E+00
         -3   -1    0    0    0  501 -0.00000000000E+00  0.00000000000E+00  0.12742271860E+03  0.12742275254E+03  0.93000000000E-01 0.  1.
          3   -1    0    0  501    0  0.00000000000E+00 -0.00000000000E+00 -0.34396593707E+02  0.34396719432E+02  0.93000000000E-01 0. -1.
        -13    1    1    2    0    0 -0.28549399326E+02  0.37088588214E+02  0.10373555489E+03  0.11380557148E+03  0.10570000000E+00 0.  1.
         13    1    1    2    0    0  0.28549399326E+02 -0.37088588214E+02 -0.10709429997E+02  0.48013900497E+02  0.10570000000E+00 0. -1.
<mgrwt>
<rscale>  0 0.13240726E+03</rscale>
<asrwt>0</asrwt>
<pdfrwt beam="2">  1        3 0.52917959E-02 0.13240726E+03</pdfrwt>
<pdfrwt beam="1">  1       -3 0.19603507E-01 0.13240726E+03</pdfrwt>
<totfact> 0.10891494E+04</totfact>
</mgrwt>
</event>
<event>
 5    1  0.1401471E+000  0.9066649E+02  0.7818608E-02  0.1301246E+00
          3   -1    0    0  501    0  0.00000000000E+00  0.00000000000E+00  0.64586119958E+02  0.64586186915E+02  0.93000000000E-01 0. -1.
         -3   -1    0    0    0  501 -0.00000000000E+00 -0.00000000000E+00 -0.31819426548E+02  0.31819562455E+02  0.93000000000E-01 0.  1.
         23    2    1    2    0    0  0.00000000000E+00  0.00000000000E+00  0.32766693409E+02  0.96405749370E+02  0.90666489480E+02 0.  0.
        -13    1    3    3    0    0  0.44368456873E+02  0.19471392823E+01  0.67113655947E+01  0.44915530914E+02  0.10570000000E+00 0. -1.
         13    1    3    3    0    0 -0.44368456873E+02 -0.19471392823E+01  0.26055327815E+02  0.51490218456E+02  0.10570000000E+00 0.  1.
<mgrwt>
<rscale>  0 0.90666489E+02</rscale>
<asrwt>0</asrwt>
<pdfrwt beam="1">  1        3 0.99363418E-02 0.90666489E+02</pdfrwt>
<pdfrwt beam="2">  1       -3 0.48953120E-02 0.90666489E+02</pdfrwt>
<totfact> 0.35477238E+04</totfact>
</mgrwt>
</event>
<event>
 5    1  0.1401471E+000  0.9121885E+02  0.7818608E-02  0.1299927E+00
          3   -1    0    0  501    0  0.00000000000E+00  0.00000000000E+00  0.30269982145E+02  0.30270125009E+02  0.93000000000E-01 0. -1.
         -3   -1    0    0    0  501 -0.00000000000E+00 -0.00000000000E+00 -0.68721857216E+02  0.68721920144E+02  0.93000000000E-01 0.  1.
         23    2    1    2    0    0  0.00000000000E+00  0.00000000000E+00 -0.38451875071E+02  0.98992045153E+02  0.91218848420E+02 0.  0.
        -13    1    3    3    0    0  0.18145032888E+02 -0.26475633567E+02 -0.54391033861E+02  0.63155341249E+02  0.10570000000E+00 0.  1.
         13    1    3    3    0    0 -0.18145032888E+02  0.26475633567E+02  0.15939158790E+02  0.35836703904E+02  0.10570000000E+00 0. -1.
<mgrwt>
<rscale>  0 0.91218848E+02</rscale>
<asrwt>0</asrwt>
<pdfrwt beam="1">  1        3 0.46569362E-02 0.91218848E+02</pdfrwt>
<pdfrwt beam="2">  1       -3 0.10572609E-01 0.91218848E+02</pdfrwt>
<totfact> 0.34703555E+04</totfact>
</mgrwt>
</event>
<event>
 5    1  0.1401471E+000  0.9048744E+02  0.7818608E-02  0.1301676E+00
         -3   -1    0    0    0  501 -0.00000000000E+00  0.00000000000E+00  0.19115907972E+02  0.19116134196E+02  0.93000000000E-01 0.  1.
          3   -1    0    0  501    0  0.00000000000E+00 -0.00000000000E+00 -0.10708240505E+03  0.10708244543E+03  0.93000000000E-01 0. -1.
         23    2    1    2    0    0  0.00000000000E+00  0.00000000000E+00 -0.87966497076E+02  0.12619857963E+03  0.90487440523E+02 0.  0.
        -13    1    3    3    0    0 -0.34539340097E+01 -0.40541740294E+02 -0.71575557779E+02  0.82332460246E+02  0.10570000000E+00 0. -1.
         13    1    3    3    0    0  0.34539340097E+01  0.40541740294E+02 -0.16390939297E+02  0.43866119383E+02  0.10570000000E+00 0.  1.
<mgrwt>
<rscale>  0 0.90487441E+02</rscale>
<asrwt>0</asrwt>
<pdfrwt beam="2">  1        3 0.16474236E-01 0.90487441E+02</pdfrwt>
<pdfrwt beam="1">  1       -3 0.29409295E-02 0.90487441E+02</pdfrwt>
<totfact> 0.33509921E+04</totfact>
</mgrwt>
</event>
<event>
 5    1  0.1401471E+000  0.9269192E+02  0.7818608E-02  0.1296461E+00
         -3   -1    0    0    0  501 -0.00000000000E+00  0.00000000000E+00  0.22201450223E+02  0.22201645006E+02  0.93000000000E-01 0.  1.
          3   -1    0    0  501    0  0.00000000000E+00 -0.00000000000E+00 -0.96747461391E+02  0.96747506089E+02  0.93000000000E-01 0. -1.
         23    2    1    2    0    0  0.00000000000E+00  0.00000000000E+00 -0.74546011168E+02  0.11894915110E+03  0.92691923949E+02 0.  0.
        -13    1    3    3    0    0 -0.25479478695E+02 -0.38711460074E+02 -0.37779928428E+02  0.59792266558E+02  0.10570000000E+00 0.  1.
         13    1    3    3    0    0  0.25479478695E+02  0.38711460074E+02 -0.36766082740E+02  0.59156884537E+02  0.10570000000E+00 0. -1.
<mgrwt>
<rscale>  0 0.92691924E+02</rscale>
<asrwt>0</asrwt>
<pdfrwt beam="2">  1        3 0.14884243E-01 0.92691924E+02</pdfrwt>
<pdfrwt beam="1">  1       -3 0.34156262E-02 0.92691924E+02</pdfrwt>
<totfact> 0.31856136E+04</totfact>
</mgrwt>
</event>
<event>
 5    1  0.1401471E+000  0.8268127E+02  0.7818608E-02  0.1321610E+00
          3   -1    0    0  501    0  0.00000000000E+00  0.00000000000E+00  0.10518005267E+03  0.10518009378E+03  0.93000000000E-01 0. -1.
         -3   -1    0    0    0  501 -0.00000000000E+00 -0.00000000000E+00 -0.16248607726E+02  0.16248873869E+02  0.93000000000E-01 0.  1.
         23    2    1    2    0    0  0.00000000000E+00  0.00000000000E+00  0.88931444943E+02  0.12142896765E+03  0.82681269256E+02 0.  0.
        -13    1    3    3    0    0  0.17863080414E+02  0.18680669782E+02  0.91850225052E+02  0.95417671738E+02  0.10570000000E+00 0. -1.
         13    1    3    3    0    0 -0.17863080414E+02 -0.18680669782E+02 -0.29187801086E+01  0.26011295915E+02  0.10570000000E+00 0.  1.
<mgrwt>
<rscale>  0 0.82681269E+02</rscale>
<asrwt>0</asrwt>
<pdfrwt beam="1">  1        3 0.16181570E-01 0.82681269E+02</pdfrwt>
<pdfrwt beam="2">  1       -3 0.24998095E-02 0.82681269E+02</pdfrwt>
<totfact> 0.43151163E+04</totfact>
</mgrwt>
</event>
<event>
 5    1  0.1401471E+000  0.9157602E+02  0.7818608E-02  0.1299079E+00
          3   -1    0    0  501    0  0.00000000000E+00  0.00000000000E+00  0.62199863077E+02  0.62199932603E+02  0.93000000000E-01 0. -1.
         -3   -1    0    0    0  501 -0.00000000000E+00 -0.00000000000E+00 -0.33706383208E+02  0.33706511507E+02  0.93000000000E-01 0.  1.
         23    2    1    2    0    0  0.00000000000E+00  0.00000000000E+00  0.28493479869E+02  0.95906444110E+02  0.91576021024E+02 0.  0.
        -13    1    3    3    0    0  0.23712591272E+02 -0.30958824765E+02 -0.10883690862E+02  0.40487056140E+02  0.10570000000E+00 0.  1.
         13    1    3    3    0    0 -0.23712591272E+02  0.30958824765E+02  0.39377170731E+02  0.55419387969E+02  0.10570000000E+00 0. -1.
<mgrwt>
<rscale>  0 0.91576021E+02</rscale>
<asrwt>0</asrwt>
<pdfrwt beam="1">  1        3 0.95692249E-02 0.91576021E+02</pdfrwt>
<pdfrwt beam="2">  1       -3 0.51856126E-02 0.91576021E+02</pdfrwt>
<totfact> 0.34563217E+04</totfact>
</mgrwt>
</event>
<event>
 5    1  0.1401471E+000  0.9052554E+02  0.7818608E-02  0.1301584E+00
          3   -1    0    0  501    0  0.00000000000E+00  0.00000000000E+00  0.36348536867E+02  0.36348655840E+02  0.93000000000E-01 0.  1.
         -3   -1    0    0    0  501 -0.00000000000E+00 -0.00000000000E+00 -0.56362914920E+02  0.56362991646E+02  0.93000000000E-01 0. -1.
         23    2    1    2    0    0  0.00000000000E+00  0.00000000000E+00 -0.20014378053E+02  0.92711647486E+02  0.90525544741E+02 0.  0.
        -13    1    3    3    0    0  0.28129106335E+02  0.26591625852E+02  0.14018792474E+02  0.41169149901E+02  0.10570000000E+00 0.  1.
         13    1    3    3    0    0 -0.28129106335E+02 -0.26591625852E+02 -0.34033170527E+02  0.51542497585E+02  0.10570000000E+00 0. -1.
<mgrwt>
<rscale>  0 0.90525545E+02</rscale>
<asrwt>0</asrwt>
<pdfrwt beam="1">  1        3 0.55920977E-02 0.90525545E+02</pdfrwt>
<pdfrwt beam="2">  1       -3 0.86712327E-02 0.90525545E+02</pdfrwt>
<totfact> 0.35915339E+04</totfact>
</mgrwt>
</event>
<event>
 5    1  0.1401471E+000  0.9155995E+02  0.7818608E-02  0.1299117E+00
         -3   -1    0    0    0  501 -0.00000000000E+00  0.00000000000E+00  0.10591728228E+03  0.10591732311E+03  0.93000000000E-01 0.  1.
          3   -1    0    0  501    0  0.00000000000E+00 -0.00000000000E+00 -0.19787041356E+02  0.19787259907E+02  0.93000000000E-01 0. -1.
         23    2    1    2    0    0  0.00000000000E+00  0.00000000000E+00  0.86130240920E+02  0.12570458301E+03  0.91559946424E+02 0.  0.
        -13    1    3    3    0    0 -0.28452217784E+02 -0.65802732314E-01  0.92304237788E+02  0.96589940019E+02  0.10570000000E+00 0.  1.
         13    1    3    3    0    0  0.28452217784E+02  0.65802732314E-01 -0.61739968675E+01  0.29114642993E+02  0.10570000000E+00 0. -1.
<mgrwt>
<rscale>  0 0.91559946E+02</rscale>
<asrwt>0</asrwt>
<pdfrwt beam="2">  1        3 0.30441802E-02 0.91559946E+02</pdfrwt>
<pdfrwt beam="1">  1       -3 0.16294986E-01 0.91559946E+02</pdfrwt>
<totfact> 0.32489689E+04</totfact>
</mgrwt>
</event>
<event>
 5    1  0.1401471E+000  0.7741327E+02  0.7818608E-02  0.1336557E+00
          3   -1    0    0  501    0  0.00000000000E+00  0.00000000000E+00  0.93987917478E+01  0.93992518489E+01  0.93000000000E-01 0. -1.
         -3   -1    0    0    0  501 -0.00000000000E+00 -0.00000000000E+00 -0.15939947734E+03  0.15939950447E+03  0.93000000000E-01 0.  1.
         23    2    1    2    0    0  0.00000000000E+00  0.00000000000E+00 -0.15000068559E+03  0.16879875632E+03  0.77413270547E+02 0.  0.
        -13    1    3    3    0    0 -0.27425914323E+02  0.10893975098E+02 -0.20386481417E+02  0.35867523847E+02  0.10570000000E+00 0. -1.
         13    1    3    3    0    0  0.27425914323E+02 -0.10893975098E+02 -0.12961420418E+03  0.13293123247E+03  0.10570000000E+00 0.  1.
<mgrwt>
<rscale>  0 0.77413271E+02</rscale>
<asrwt>0</asrwt>
<pdfrwt beam="1">  1        3 0.14460056E-02 0.77413271E+02</pdfrwt>
<pdfrwt beam="2">  1       -3 0.24523032E-01 0.77413271E+02</pdfrwt>
<totfact> 0.46783301E+04</totfact>
</mgrwt>
</event>
<event>
 5    1  0.1401471E+000  0.8821372E+02  0.7818608E-02  0.1307236E+00
         -3   -1    0    0    0  501 -0.00000000000E+00  0.00000000000E+00  0.47150043574E+02  0.47150135292E+02  0.93000000000E-01 0.  1.
          3   -1    0    0  501    0  0.00000000000E+00 -0.00000000000E+00 -0.41259907105E+02  0.41260011916E+02  0.93000000000E-01 0. -1.
         23    2    1    2    0    0  0.00000000000E+00  0.00000000000E+00  0.58901364697E+01  0.88410147208E+02  0.88213720144E+02 0.  0.
        -13    1    3    3    0    0 -0.15744948308E+02 -0.15123630336E+02 -0.35464887827E+02  0.41646092648E+02  0.10570000000E+00 0. -1.
         13    1    3    3    0    0  0.15744948308E+02  0.15123630336E+02  0.41355024297E+02  0.46764054560E+02  0.10570000000E+00 0.  1.
<mgrwt>
<rscale>  0 0.88213720E+02</rscale>
<asrwt>0</asrwt>
<pdfrwt beam="2">  1        3 0.63476932E-02 0.88213720E+02</pdfrwt>
<pdfrwt beam="1">  1       -3 0.72538679E-02 0.88213720E+02</pdfrwt>
<totfact> 0.38891327E+04</totfact>
</mgrwt>
</event>
<event>
 5    1  0.1401471E+000  0.9221448E+02  0.7818608E-02  0.1297576E+00
         -3   -1    0    0    0  501 -0.00000000000E+00  0.00000000000E+00  0.13448545168E+03  0.13448548384E+03  0.93000000000E-01 0.  1.
          3   -1    0    0  501    0  0.00000000000E+00 -0.00000000000E+00 -0.15807318747E+02  0.15807592321E+02  0.93000000000E-01 0. -1.
         23    2    1    2    0    0  0.00000000000E+00  0.00000000000E+00  0.11867813293E+03  0.15029307616E+03  0.92214475568E+02 0.  0.
        -13    1    3    3    0    0 -0.51892776293E+00  0.38788175608E+02  0.99956424368E+02  0.10721981999E+03  0.10570000000E+00 0.  1.
         13    1    3    3    0    0  0.51892776293E+00 -0.38788175608E+02  0.18721708564E+02  0.43073256170E+02  0.10570000000E+00 0. -1.
<mgrwt>
<rscale>  0 0.92214476E+02</rscale>
<asrwt>0</asrwt>
<pdfrwt beam="2">  1        3 0.24319187E-02 0.92214476E+02</pdfrwt>
<pdfrwt beam="1">  1       -3 0.20690093E-01 0.92214476E+02</pdfrwt>
<totfact> 0.30343766E+04</totfact>
</mgrwt>
</event>
<event>
 5    1  0.1401471E+000  0.1037719E+03  0.7818608E-02  0.1272558E+00
         -3   -1    0    0    0  501 -0.00000000000E+00  0.00000000000E+00  0.31640909240E+02  0.31641045914E+02  0.93000000000E-01 0.  1.
          3   -1    0    0  501    0  0.00000000000E+00 -0.00000000000E+00 -0.85084260563E+02  0.85084311389E+02  0.93000000000E-01 0. -1.
         23    2    1    2    0    0  0.00000000000E+00  0.00000000000E+00 -0.53443351323E+02  0.11672535730E+03  0.10377194822E+03 0.  0.
        -13    1    3    3    0    0 -0.37214532532E+02 -0.90582138674E+01  0.12649963977E+02  0.40336155384E+02  0.10570000000E+00 0.  1.
         13    1    3    3    0    0  0.37214532532E+02  0.90582138674E+01 -0.66093315300E+02  0.76389201920E+02  0.10570000000E+00 0. -1.
<mgrwt>
<rscale>  0 0.10377195E+03</rscale>
<asrwt>0</asrwt>
<pdfrwt beam="2">  1        3 0.13089901E-01 0.10377195E+03</pdfrwt>
<pdfrwt beam="1">  1       -3 0.48678466E-02 0.10377195E+03</pdfrwt>
<totfact> 0.23480139E+04</totfact>
</mgrwt>
</event>
<event>
 5    1  0.1401471E+000  0.9419891E+02  0.7818608E-02  0.1292991E+00
          3   -1    0    0  501    0  0.00000000000E+00  0.00000000000E+00  0.94749908942E+02  0.94749954583E+02  0.93000000000E-01 0. -1.
         -3   -1    0    0    0  501 -0.00000000000E+00 -0.00000000000E+00 -0.23412636924E+02  0.23412821631E+02  0.93000000000E-01 0.  1.
         23    2    1    2    0    0  0.00000000000E+00  0.00000000000E+00  0.71337272018E+02  0.11816277621E+03  0.94198913496E+02 0.  0.
        -13    1    3    3    0    0 -0.68263139944E+01  0.32783858989E+02 -0.58776023735E+01  0.33999078739E+02  0.10570000000E+00 0.  1.
         13    1    3    3    0    0  0.68263139944E+01 -0.32783858989E+02  0.77214874391E+02  0.84163697475E+02  0.10570000000E+00 0. -1.
<mgrwt>
<rscale>  0 0.94198913E+02</rscale>
<asrwt>0</asrwt>
<pdfrwt beam="1">  1        3 0.14576927E-01 0.94198913E+02</pdfrwt>
<pdfrwt beam="2">  1       -3 0.36019619E-02 0.94198913E+02</pdfrwt>
<totfact> 0.30534458E+04</totfact>
</mgrwt>
</event>
<event>
 5    1  0.1401471E+000  0.8982007E+02  0.7818608E-02  0.1303288E+00
          3   -1    0    0  501    0  0.00000000000E+00  0.00000000000E+00  0.23881177031E+03  0.23881178842E+03  0.93000000000E-01 0. -1.
         -3   -1    0    0    0  501 -0.00000000000E+00 -0.00000000000E+00 -0.84453356756E+01  0.84458477179E+01  0.93000000000E-01 0.  1.
         23    2    1    2    0    0  0.00000000000E+00  0.00000000000E+00  0.23036643463E+03  0.24725763613E+03  0.89820066920E+02 0.  0.
        -13    1    3    3    0    0  0.44888231100E+02 -0.13358549655E+00  0.11136008312E+03  0.12006685813E+03  0.10570000000E+00 0.  1.
         13    1    3    3    0    0 -0.44888231100E+02  0.13358549655E+00  0.11900635151E+03  0.12719077800E+03  0.10570000000E+00 0. -1.
<mgrwt>
<rscale>  0 0.89820067E+02</rscale>
<asrwt>0</asrwt>
<pdfrwt beam="1">  1        3 0.36740312E-01 0.89820067E+02</pdfrwt>
<pdfrwt beam="2">  1       -3 0.12993232E-02 0.89820067E+02</pdfrwt>
<totfact> 0.27303235E+04</totfact>
</mgrwt>
</event>
<event>
 5    1  0.1401471E+000  0.9109376E+02  0.7818608E-02  0.1300224E+00
          3   -1    0    0  501    0  0.00000000000E+00  0.00000000000E+00  0.68527413135E+02  0.68527476241E+02  0.93000000000E-01 0. -1.
         -3   -1    0    0    0  501 -0.00000000000E+00 -0.00000000000E+00 -0.30272674827E+02  0.30272817678E+02  0.93000000000E-01 0.  1.
         23    2    1    2    0    0  0.00000000000E+00  0.00000000000E+00  0.38254738308E+02  0.98800293919E+02  0.91093759806E+02 0.  0.
        -13    1    3    3    0    0 -0.11155039319E+01 -0.26810233350E+02 -0.20789361830E+02  0.33944685874E+02  0.10570000000E+00 0.  1.
         13    1    3    3    0    0  0.11155039319E+01  0.26810233350E+02  0.59044100138E+02  0.64855608045E+02  0.10570000000E+00 0. -1.
<mgrwt>
<rscale>  0 0.91093760E+02</rscale>
<asrwt>0</asrwt>
<pdfrwt beam="1">  1        3 0.10542695E-01 0.91093760E+02</pdfrwt>
<pdfrwt beam="2">  1       -3 0.46573505E-02 0.91093760E+02</pdfrwt>
<totfact> 0.34846698E+04</totfact>
</mgrwt>
</event>
<event>
 5    1  0.1401471E+000  0.9396340E+02  0.7818608E-02  0.1293528E+00
          3   -1    0    0  501    0  0.00000000000E+00  0.00000000000E+00  0.28509638593E+02  0.28509790278E+02  0.93000000000E-01 0. -1.
         -3   -1    0    0    0  501 -0.00000000000E+00 -0.00000000000E+00 -0.77421853080E+02  0.77421908936E+02  0.93000000000E-01 0.  1.
         23    2    1    2    0    0  0.00000000000E+00  0.00000000000E+00 -0.48912214487E+02  0.10593169921E+03  0.93963398046E+02 0.  0.
        -13    1    3    3    0    0 -0.16776520590E+02  0.14224839637E+01  0.24991636662E+02  0.30134169630E+02  0.10570000000E+00 0. -1.
         13    1    3    3    0    0  0.16776520590E+02 -0.14224839637E+01 -0.73903851150E+02  0.75797529584E+02  0.10570000000E+00 0.  1.
<mgrwt>
<rscale>  0 0.93963398E+02</rscale>
<asrwt>0</asrwt>
<pdfrwt beam="1">  1        3 0.43861142E-02 0.93963398E+02</pdfrwt>
<pdfrwt beam="2">  1       -3 0.11911070E-01 0.93963398E+02</pdfrwt>
<totfact> 0.31537873E+04</totfact>
</mgrwt>
</event>
<event>
 5    1  0.1401471E+000  0.9130185E+02  0.7818608E-02  0.1299729E+00
          3   -1    0    0  501    0  0.00000000000E+00  0.00000000000E+00  0.38556526936E+02  0.38556639096E+02  0.93000000000E-01 0. -1.
         -3   -1    0    0    0  501 -0.00000000000E+00 -0.00000000000E+00 -0.54050458605E+02  0.54050538613E+02  0.93000000000E-01 0.  1.
         23    2    1    2    0    0  0.00000000000E+00  0.00000000000E+00 -0.15493931668E+02  0.92607177709E+02  0.91301847981E+02 0.  0.
        -13    1    3    3    0    0  0.22422716754E+01 -0.26671472163E+02 -0.45256761911E+02  0.52579281859E+02  0.10570000000E+00 0.  1.
         13    1    3    3    0    0 -0.22422716754E+01  0.26671472163E+02  0.29762830243E+02  0.40027895850E+02  0.10570000000E+00 0. -1.
<mgrwt>
<rscale>  0 0.91301848E+02</rscale>
<asrwt>0</asrwt>
<pdfrwt beam="1">  1        3 0.59317881E-02 0.91301848E+02</pdfrwt>
<pdfrwt beam="2">  1       -3 0.83154700E-02 0.91301848E+02</pdfrwt>
<totfact> 0.35098221E+04</totfact>
</mgrwt>
</event>
<event>
 5    1  0.1401471E+000  0.9113832E+02  0.7818608E-02  0.1300118E+00
          3   -1    0    0  501    0  0.00000000000E+00  0.00000000000E+00  0.66287996692E+02  0.66288061930E+02  0.93000000000E-01 0. -1.
         -3   -1    0    0    0  501 -0.00000000000E+00 -0.00000000000E+00 -0.31326007235E+02  0.31326145283E+02  0.93000000000E-01 0.  1.
         23    2    1    2    0    0  0.00000000000E+00  0.00000000000E+00  0.34961989457E+02  0.97614207213E+02  0.91138316547E+02 0.  0.
        -13    1    3    3    0    0 -0.43196207916E+02  0.14183405528E+02  0.20774493861E+02  0.49986719620E+02  0.10570000000E+00 0.  1.
         13    1    3    3    0    0  0.43196207916E+02 -0.14183405528E+02  0.14187495596E+02  0.47627487593E+02  0.10570000000E+00 0. -1.
<mgrwt>
<rscale>  0 0.91138317E+02</rscale>
<asrwt>0</asrwt>
<pdfrwt beam="1">  1        3 0.10198169E-01 0.91138317E+02</pdfrwt>
<pdfrwt beam="2">  1       -3 0.48194014E-02 0.91138317E+02</pdfrwt>
<totfact> 0.34889054E+04</totfact>
</mgrwt>
</event>
<event>
 5    1  0.1401471E+000  0.7404203E+02  0.7818608E-02  0.1346863E+00
          3   -1    0    0  501    0  0.00000000000E+00  0.00000000000E+00  0.15074818014E+02  0.15075104881E+02  0.93000000000E-01 0. -1.
         -3   -1    0    0    0  501 -0.00000000000E+00 -0.00000000000E+00 -0.90915707079E+02  0.90915754645E+02  0.93000000000E-01 0.  1.
         23    2    1    2    0    0  0.00000000000E+00  0.00000000000E+00 -0.75840889065E+02  0.10599085953E+03  0.74042027585E+02 0.  0.
        -13    1    3    3    0    0  0.10688794927E+02  0.22328140967E+02 -0.77325553380E+02  0.81191431777E+02  0.10570000000E+00 0.  1.
         13    1    3    3    0    0 -0.10688794927E+02 -0.22328140967E+02  0.14846643151E+01  0.24799427749E+02  0.10570000000E+00 0. -1.
<mgrwt>
<rscale>  0 0.74042028E+02</rscale>
<asrwt>0</asrwt>
<pdfrwt beam="1">  1        3 0.23192286E-02 0.74042028E+02</pdfrwt>
<pdfrwt beam="2">  1       -3 0.13987057E-01 0.74042028E+02</pdfrwt>
<totfact> 0.59848662E+04</totfact>
</mgrwt>
</event>
<event>
 5    1  0.1401471E+000  0.8991008E+02  0.7818608E-02  0.1303070E+00
         -3   -1    0    0    0  501 -0.00000000000E+00  0.00000000000E+00  0.17155048831E+03  0.17155051352E+03  0.93000000000E-01 0.  1.
          3   -1    0    0  501    0  0.00000000000E+00 -0.00000000000E+00 -0.11780319467E+02  0.11780686557E+02  0.93000000000E-01 0. -1.
         23    2    1    2    0    0  0.00000000000E+00  0.00000000000E+00  0.15977016885E+03  0.18333120008E+03  0.89910077684E+02 0.  0.
        -13    1    3    3    0    0 -0.69595449839E+00 -0.41932444280E+02  0.11289819620E+03  0.12043599177E+03  0.10570000000E+00 0.  1.
         13    1    3    3    0    0  0.69595449839E+00  0.41932444280E+02  0.46871972648E+02  0.62895208310E+02  0.10570000000E+00 0. -1.
<mgrwt>
<rscale>  0 0.89910078E+02</rscale>
<asrwt>0</asrwt>
<pdfrwt beam="2">  1        3 0.18123870E-02 0.89910078E+02</pdfrwt>
<pdfrwt beam="1">  1       -3 0.26392413E-01 0.89910078E+02</pdfrwt>
<totfact> 0.30512382E+04</totfact>
</mgrwt>
</event>
<event>
 5    1  0.1401471E+000  0.8995922E+02  0.7818608E-02  0.1302950E+00
          3   -1    0    0  501    0  0.00000000000E+00  0.00000000000E+00  0.25150629396E+03  0.25150631115E+03  0.93000000000E-01 0. -1.
         -3   -1    0    0    0  501 -0.00000000000E+00 -0.00000000000E+00 -0.80439081255E+01  0.80444457194E+01  0.93000000000E-01 0.  1.
         23    2    1    2    0    0  0.00000000000E+00  0.00000000000E+00  0.24346238583E+03  0.25955075687E+03  0.89959224526E+02 0.  0.
        -13    1    3    3    0    0  0.41326651478E+02  0.21916037806E+01  0.17256806156E+03  0.17746110078E+03  0.10570000000E+00 0. -1.
         13    1    3    3    0    0 -0.41326651478E+02 -0.21916037806E+01  0.70894324274E+02  0.82089656086E+02  0.10570000000E+00 0.  1.
<mgrwt>
<rscale>  0 0.89959225E+02</rscale>
<asrwt>0</asrwt>
<pdfrwt beam="1">  1        3 0.38693316E-01 0.89959225E+02</pdfrwt>
<pdfrwt beam="2">  1       -3 0.12375671E-02 0.89959225E+02</pdfrwt>
<totfact> 0.26628992E+04</totfact>
</mgrwt>
</event>
<event>
 5    1  0.1401471E+000  0.9116183E+02  0.7818608E-02  0.1300062E+00
         -3   -1    0    0    0  501 -0.00000000000E+00  0.00000000000E+00  0.84082723324E+02  0.84082774755E+02  0.93000000000E-01 0.  1.
          3   -1    0    0  501    0  0.00000000000E+00 -0.00000000000E+00 -0.24709088062E+02  0.24709263078E+02  0.93000000000E-01 0. -1.
         23    2    1    2    0    0  0.00000000000E+00  0.00000000000E+00  0.59373635262E+02  0.10879203783E+03  0.91161828259E+02 0.  0.
        -13    1    3    3    0    0 -0.28215316652E+02  0.30325834145E+02  0.69856955779E+01  0.42006802135E+02  0.10570000000E+00 0.  1.
         13    1    3    3    0    0  0.28215316652E+02 -0.30325834145E+02  0.52387939684E+02  0.66785235698E+02  0.10570000000E+00 0. -1.
<mgrwt>
<rscale>  0 0.91161828E+02</rscale>
<asrwt>0</asrwt>
<pdfrwt beam="2">  1        3 0.38014156E-02 0.91161828E+02</pdfrwt>
<pdfrwt beam="1">  1       -3 0.12935821E-01 0.91161828E+02</pdfrwt>
<totfact> 0.34048065E+04</totfact>
</mgrwt>
</event>
<event>
 5    1  0.1401471E+000  0.9176958E+02  0.7818608E-02  0.1298622E+00
         -3   -1    0    0    0  501 -0.00000000000E+00  0.00000000000E+00  0.75268964120E+02  0.75269021574E+02  0.93000000000E-01 0.  1.
          3   -1    0    0  501    0  0.00000000000E+00 -0.00000000000E+00 -0.27971725186E+02  0.27971879788E+02  0.93000000000E-01 0. -1.
         23    2    1    2    0    0  0.00000000000E+00  0.00000000000E+00  0.47297238934E+02  0.10324090136E+03  0.91769575041E+02 0.  0.
        -13    1    3    3    0    0 -0.42643624126E+02 -0.61137480987E+01  0.58769454815E+01  0.43478802365E+02  0.10570000000E+00 0. -1.
         13    1    3    3    0    0  0.42643624126E+02  0.61137480987E+01  0.41420293452E+02  0.59762098997E+02  0.10570000000E+00 0.  1.
<mgrwt>
<rscale>  0 0.91769575E+02</rscale>
<asrwt>0</asrwt>
<pdfrwt beam="2">  1        3 0.43033587E-02 0.91769575E+02</pdfrwt>
<pdfrwt beam="1">  1       -3 0.11579857E-01 0.91769575E+02</pdfrwt>
<totfact> 0.33831026E+04</totfact>
</mgrwt>
</event>
<event>
 5    1  0.1401471E+000  0.9125233E+02  0.7818608E-02  0.1299847E+00
          3   -1    0    0  501    0  0.00000000000E+00  0.00000000000E+00  0.14671662834E+03  0.14671665782E+03  0.93000000000E-01 0. -1.
         -3   -1    0    0    0  501 -0.00000000000E+00 -0.00000000000E+00 -0.14188712187E+02  0.14189016968E+02  0.93000000000E-01 0.  1.
         23    2    1    2    0    0  0.00000000000E+00  0.00000000000E+00  0.13252791615E+03  0.16090567478E+03  0.91252329381E+02 0.  0.
        -13    1    3    3    0    0 -0.21500544304E+02 -0.34815115598E+02  0.10185346336E+03  0.10976568156E+03  0.10570000000E+00 0. -1.
         13    1    3    3    0    0  0.21500544304E+02  0.34815115598E+02  0.30674452799E+02  0.51139993219E+02  0.10570000000E+00 0.  1.
<mgrwt>
<rscale>  0 0.91252329E+02</rscale>
<asrwt>0</asrwt>
<pdfrwt beam="1">  1        3 0.22571815E-01 0.91252329E+02</pdfrwt>
<pdfrwt beam="2">  1       -3 0.21829045E-02 0.91252329E+02</pdfrwt>
<totfact> 0.30584232E+04</totfact>
</mgrwt>
</event>
<event>
 5    1  0.1401471E+000  0.9217255E+02  0.7818608E-02  0.1297674E+00
          3   -1    0    0  501    0  0.00000000000E+00  0.00000000000E+00  0.12387978864E+03  0.12387982355E+03  0.93000000000E-01 0. -1.
         -3   -1    0    0    0  501 -0.00000000000E+00 -0.00000000000E+00 -0.17145043901E+02  0.17145296129E+02  0.93000000000E-01 0.  1.
         23    2    1    2    0    0  0.00000000000E+00  0.00000000000E+00  0.10673474474E+03  0.14102511968E+03  0.92172548222E+02 0.  0.
        -13    1    3    3    0    0 -0.79741296168E+01  0.43560177585E+02  0.72892730001E+02  0.85290310551E+02  0.10570000000E+00 0.  1.
         13    1    3    3    0    0  0.79741296168E+01 -0.43560177585E+02  0.33842014739E+02  0.55734809128E+02  0.10570000000E+00 0. -1.
<mgrwt>
<rscale>  0 0.92172548E+02</rscale>
<asrwt>0</asrwt>
<pdfrwt beam="1">  1        3 0.19058451E-01 0.92172548E+02</pdfrwt>
<pdfrwt beam="2">  1       -3 0.26377212E-02 0.92172548E+02</pdfrwt>
<totfact> 0.30938953E+04</totfact>
</mgrwt>
</event>
<event>
 5    1  0.1401471E+000  0.9533558E+02  0.7818608E-02  0.1290422E+00
          3   -1    0    0  501    0  0.00000000000E+00  0.00000000000E+00  0.23972588365E+02  0.23972768758E+02  0.93000000000E-01 0. -1.
         -3   -1    0    0    0  501 -0.00000000000E+00 -0.00000000000E+00 -0.94783452939E+02  0.94783498564E+02  0.93000000000E-01 0.  1.
         23    2    1    2    0    0  0.00000000000E+00  0.00000000000E+00 -0.70810864574E+02  0.11875626732E+03  0.95335578284E+02 0.  0.
        -13    1    3    3    0    0 -0.42689297346E+02  0.17061788309E+02 -0.51099151268E+02  0.68735836076E+02  0.10570000000E+00 0.  1.
         13    1    3    3    0    0  0.42689297346E+02 -0.17061788309E+02 -0.19711713305E+02  0.50020431247E+02  0.10570000000E+00 0. -1.
<mgrwt>
<rscale>  0 0.95335578E+02</rscale>
<asrwt>0</asrwt>
<pdfrwt beam="1">  1        3 0.36881079E-02 0.95335578E+02</pdfrwt>
<pdfrwt beam="2">  1       -3 0.14582087E-01 0.95335578E+02</pdfrwt>
<totfact> 0.29515512E+04</totfact>
</mgrwt>
</event>
<event>
 5    1  0.1401471E+000  0.8546388E+02  0.7818608E-02  0.1314224E+00
         -3   -1    0    0    0  501 -0.00000000000E+00  0.00000000000E+00  0.53922127032E+02  0.53922207231E+02  0.93000000000E-01 0.  1.
          3   -1    0    0  501    0  0.00000000000E+00 -0.00000000000E+00 -0.33863825429E+02  0.33863953131E+02  0.93000000000E-01 0. -1.
         23    2    1    2    0    0  0.00000000000E+00  0.00000000000E+00  0.20058301603E+02  0.87786160362E+02  0.85463878264E+02 0.  0.
        -13    1    3    3    0    0  0.27518983148E+02 -0.29017963120E+02  0.25493842876E+02  0.47426615040E+02  0.10570000000E+00 0.  1.
         13    1    3    3    0    0 -0.27518983148E+02  0.29017963120E+02 -0.54355412729E+01  0.40359545321E+02  0.10570000000E+00 0. -1.
<mgrwt>
<rscale>  0 0.85463878E+02</rscale>
<asrwt>0</asrwt>
<pdfrwt beam="2">  1        3 0.52098353E-02 0.85463878E+02</pdfrwt>
<pdfrwt beam="1">  1       -3 0.82957278E-02 0.85463878E+02</pdfrwt>
<totfact> 0.42429948E+04</totfact>
</mgrwt>
</event>
<event>
 5    1  0.1401471E+000  0.9158214E+02  0.7818608E-02  0.1299065E+00
         -3   -1    0    0    0  501 -0.00000000000E+00  0.00000000000E+00  0.25989692895E+03  0.25989694559E+03  0.93000000000E-01 0.  1.
          3   -1    0    0  501    0  0.00000000000E+00 -0.00000000000E+00 -0.80676141680E+01  0.80681501822E+01  0.93000000000E-01 0. -1.
         23    2    1    2    0    0  0.00000000000E+00  0.00000000000E+00  0.25182931478E+03  0.26796509577E+03  0.91582142190E+02 0.  0.
        -13    1    3    3    0    0  0.14338649200E+02 -0.37383926118E+02  0.19092459358E+03  0.19507784702E+03  0.10570000000E+00 0.  1.
         13    1    3    3    0    0 -0.14338649200E+02  0.37383926118E+02  0.60904721200E+02  0.72887248747E+02  0.10570000000E+00 0. -1.
<mgrwt>
<rscale>  0 0.91582142E+02</rscale>
<asrwt>0</asrwt>
<pdfrwt beam="2">  1        3 0.12412139E-02 0.91582142E+02</pdfrwt>
<pdfrwt beam="1">  1       -3 0.39984187E-01 0.91582142E+02</pdfrwt>
<totfact> 0.25019928E+04</totfact>
</mgrwt>
</event>
<event>
 5    1  0.1401471E+000  0.9673730E+02  0.7818608E-02  0.1287311E+00
         -3   -1    0    0    0  501 -0.00000000000E+00  0.00000000000E+00  0.22931862954E+02  0.22932051534E+02  0.93000000000E-01 0.  1.
          3   -1    0    0  501    0  0.00000000000E+00 -0.00000000000E+00 -0.10202013733E+03  0.10202017972E+03  0.93000000000E-01 0. -1.
         23    2    1    2    0    0  0.00000000000E+00  0.00000000000E+00 -0.79088274381E+02  0.12495223126E+03  0.96737298658E+02 0.  0.
        -13    1    3    3    0    0 -0.40018129529E+02  0.14655358111E+02 -0.99967460105E+01  0.43774151227E+02  0.10570000000E+00 0.  1.
         13    1    3    3    0    0  0.40018129529E+02 -0.14655358111E+02 -0.69091528370E+02  0.81178080030E+02  0.10570000000E+00 0. -1.
<mgrwt>
<rscale>  0 0.96737299E+02</rscale>
<asrwt>0</asrwt>
<pdfrwt beam="2">  1        3 0.15695423E-01 0.96737299E+02</pdfrwt>
<pdfrwt beam="1">  1       -3 0.35279968E-02 0.96737299E+02</pdfrwt>
<totfact> 0.28003531E+04</totfact>
</mgrwt>
</event>
<event>
 5    1  0.1401471E+000  0.9623398E+02  0.7818608E-02  0.1288421E+00
          3   -1    0    0  501    0  0.00000000000E+00  0.00000000000E+00  0.53945984298E+01  0.53954000055E+01  0.93000000000E-01 0. -1.
         -3   -1    0    0    0  501 -0.00000000000E+00 -0.00000000000E+00 -0.42914562626E+03  0.42914563634E+03  0.93000000000E-01 0.  1.
         23    2    1    2    0    0  0.00000000000E+00  0.00000000000E+00 -0.42375102783E+03  0.43454103634E+03  0.96233978815E+02 0.  0.
        -13    1    3    3    0    0  0.22955440241E+02  0.42202333166E+02 -0.22402902163E+03  0.22912224438E+03  0.10570000000E+00 0.  1.
         13    1    3    3    0    0 -0.22955440241E+02 -0.42202333166E+02 -0.19972200620E+03  0.20541879197E+03  0.10570000000E+00 0. -1.
<mgrwt>
<rscale>  0 0.96233979E+02</rscale>
<asrwt>0</asrwt>
<pdfrwt beam="1">  1        3 0.83000100E-03 0.96233979E+02</pdfrwt>
<pdfrwt beam="2">  1       -3 0.66022439E-01 0.96233979E+02</pdfrwt>
<totfact> 0.16953449E+04</totfact>
</mgrwt>
</event>
<event>
 5    1  0.1401471E+000  0.9168290E+02  0.7818608E-02  0.1298827E+00
         -3   -1    0    0    0  501 -0.00000000000E+00  0.00000000000E+00  0.81947600769E+01  0.81952877752E+01  0.93000000000E-01 0.  1.
          3   -1    0    0  501    0  0.00000000000E+00 -0.00000000000E+00 -0.25642804518E+03  0.25642806204E+03  0.93000000000E-01 0. -1.
         23    2    1    2    0    0  0.00000000000E+00  0.00000000000E+00 -0.24823328510E+03  0.26462334982E+03  0.91682896096E+02 0.  0.
        -13    1    3    3    0    0  0.36407430067E+02 -0.52214051057E+01 -0.45142836586E+02  0.58229295916E+02  0.10570000000E+00 0.  1.
         13    1    3    3    0    0 -0.36407430067E+02  0.52214051057E+01 -0.20309044851E+03  0.20639405390E+03  0.10570000000E+00 0. -1.
<mgrwt>
<rscale>  0 0.91682896E+02</rscale>
<asrwt>0</asrwt>
<pdfrwt beam="2">  1        3 0.39450504E-01 0.91682896E+02</pdfrwt>
<pdfrwt beam="1">  1       -3 0.12607744E-02 0.91682896E+02</pdfrwt>
<totfact> 0.25091033E+04</totfact>
</mgrwt>
</event>
<event>
 5    1  0.1401471E+000  0.8952795E+02  0.7818608E-02  0.1303999E+00
          3   -1    0    0  501    0  0.00000000000E+00  0.00000000000E+00  0.10673770670E+03  0.10673774722E+03  0.93000000000E-01 0. -1.
         -3   -1    0    0    0  501 -0.00000000000E+00 -0.00000000000E+00 -0.18773089410E+02  0.18773319765E+02  0.93000000000E-01 0.  1.
         23    2    1    2    0    0  0.00000000000E+00  0.00000000000E+00  0.87964617294E+02  0.12551106698E+03  0.89527951166E+02 0.  0.
        -13    1    3    3    0    0 -0.30820724816E+02  0.10655988148E+02  0.99257870187E+00  0.32626117553E+02  0.10570000000E+00 0.  1.
         13    1    3    3    0    0  0.30820724816E+02 -0.10655988148E+02  0.86972038592E+02  0.92884949432E+02  0.10570000000E+00 0. -1.
<mgrwt>
<rscale>  0 0.89527951E+02</rscale>
<asrwt>0</asrwt>
<pdfrwt beam="1">  1        3 0.16421207E-01 0.89527951E+02</pdfrwt>
<pdfrwt beam="2">  1       -3 0.28881884E-02 0.89527951E+02</pdfrwt>
<totfact> 0.34538771E+04</totfact>
</mgrwt>
</event>
<event>
 5    1  0.1401471E+000  0.9188258E+02  0.7818608E-02  0.1298356E+00
          3   -1    0    0  501    0  0.00000000000E+00  0.00000000000E+00  0.14365572418E+02  0.14365873447E+02  0.93000000000E-01 0. -1.
         -3   -1    0    0    0  501 -0.00000000000E+00 -0.00000000000E+00 -0.14691898572E+03  0.14691901515E+03  0.93000000000E-01 0.  1.
         23    2    1    2    0    0  0.00000000000E+00  0.00000000000E+00 -0.13255341330E+03  0.16128488860E+03  0.91882576764E+02 0.  0.
        -13    1    3    3    0    0  0.11277776192E+02  0.40527318398E+02 -0.98688187589E+02  0.10728010680E+03  0.10570000000E+00 0.  1.
         13    1    3    3    0    0 -0.11277776192E+02 -0.40527318398E+02 -0.33865225709E+02  0.54004781799E+02  0.10570000000E+00 0. -1.
<mgrwt>
<rscale>  0 0.91882577E+02</rscale>
<asrwt>0</asrwt>
<pdfrwt beam="1">  1        3 0.22101136E-02 0.91882577E+02</pdfrwt>
<pdfrwt beam="2">  1       -3 0.22602945E-01 0.91882577E+02</pdfrwt>
<totfact> 0.29997604E+04</totfact>
</mgrwt>
</event>
<event>
 5    1  0.1401471E+000  0.9001492E+02  0.7818608E-02  0.1302816E+00
         -3   -1    0    0    0  501 -0.00000000000E+00  0.00000000000E+00  0.59685398271E+02  0.59685470726E+02  0.93000000000E-01 0.  1.
          3   -1    0    0  501    0  0.00000000000E+00 -0.00000000000E+00 -0.33938992815E+02  0.33939120234E+02  0.93000000000E-01 0. -1.
         23    2    1    2    0    0  0.00000000000E+00  0.00000000000E+00  0.25746405456E+02  0.93624590960E+02  0.90014924532E+02 0.  0.
        -13    1    3    3    0    0 -0.15685772111E+02 -0.16237974710E+02 -0.27623266994E+02  0.35675920749E+02  0.10570000000E+00 0. -1.
         13    1    3    3    0    0  0.15685772111E+02  0.16237974710E+02  0.53369672449E+02  0.57948670211E+02  0.10570000000E+00 0.  1.
<mgrwt>
<rscale>  0 0.90014925E+02</rscale>
<asrwt>0</asrwt>
<pdfrwt beam="2">  1        3 0.52213989E-02 0.90014925E+02</pdfrwt>
<pdfrwt beam="1">  1       -3 0.91823843E-02 0.90014925E+02</pdfrwt>
<totfact> 0.36398958E+04</totfact>
</mgrwt>
</event>
<event>
 5    1  0.1401471E+000  0.8826759E+02  0.7818608E-02  0.1307102E+00
          3   -1    0    0  501    0  0.00000000000E+00  0.00000000000E+00  0.97129688672E+02  0.97129733195E+02  0.93000000000E-01 0. -1.
         -3   -1    0    0    0  501 -0.00000000000E+00 -0.00000000000E+00 -0.20053358031E+02  0.20053573679E+02  0.93000000000E-01 0.  1.
         23    2    1    2    0    0  0.00000000000E+00  0.00000000000E+00  0.77076330641E+02  0.11718330687E+03  0.88267585584E+02 0.  0.
        -13    1    3    3    0    0 -0.28271094411E+02  0.32496953065E+02  0.25771609426E+02  0.50194559094E+02  0.10570000000E+00 0.  1.
         13    1    3    3    0    0  0.28271094411E+02 -0.32496953065E+02  0.51304721215E+02  0.66988747780E+02  0.10570000000E+00 0. -1.
<mgrwt>
<rscale>  0 0.88267586E+02</rscale>
<asrwt>0</asrwt>
<pdfrwt beam="1">  1        3 0.14943049E-01 0.88267586E+02</pdfrwt>
<pdfrwt beam="2">  1       -3 0.30851520E-02 0.88267586E+02</pdfrwt>
<totfact> 0.36508623E+04</totfact>
</mgrwt>
</event>
<event>
 5    1  0.1401471E+000  0.9106016E+02  0.7818608E-02  0.1300304E+00
         -3   -1    0    0    0  501 -0.00000000000E+00  0.00000000000E+00  0.25160343509E+03  0.25160345228E+03  0.93000000000E-01 0.  1.
          3   -1    0    0  501    0  0.00000000000E+00 -0.00000000000E+00 -0.82388293077E+01  0.82393541835E+01  0.93000000000E-01 0. -1.
         23    2    1    2    0    0  0.00000000000E+00  0.00000000000E+00  0.24336460578E+03  0.25984280646E+03  0.91060159906E+02 0.  0.
        -13    1    3    3    0    0  0.26827747111E+02 -0.21727454493E+02  0.20638774847E+03  0.20925516526E+03  0.10570000000E+00 0.  1.
         13    1    3    3    0    0 -0.26827747111E+02  0.21727454493E+02  0.36976857309E+02  0.50587641206E+02  0.10570000000E+00 0. -1.
<mgrwt>
<rscale>  0 0.91060160E+02</rscale>
<asrwt>0</asrwt>
<pdfrwt beam="2">  1        3 0.12675538E-02 0.91060160E+02</pdfrwt>
<pdfrwt beam="1">  1       -3 0.38708264E-01 0.91060160E+02</pdfrwt>
<totfact> 0.25756469E+04</totfact>
</mgrwt>
</event>
<event>
 5    1  0.1401471E+000  0.6520825E+02  0.7818608E-02  0.1377190E+00
         -3   -1    0    0    0  501 -0.00000000000E+00  0.00000000000E+00  0.33879058021E+02  0.33879185666E+02  0.93000000000E-01 0.  1.
          3   -1    0    0  501    0  0.00000000000E+00 -0.00000000000E+00 -0.31376917269E+02  0.31377055093E+02  0.93000000000E-01 0. -1.
         23    2    1    2    0    0  0.00000000000E+00  0.00000000000E+00  0.25021407521E+01  0.65256240760E+02  0.65208252926E+02 0.  0.
        -13    1    3    3    0    0 -0.20905465147E+02  0.16797204172E+02  0.19807460123E+02  0.33339633922E+02  0.10570000000E+00 0.  1.
         13    1    3    3    0    0  0.20905465147E+02 -0.16797204172E+02 -0.17305319371E+02  0.31916606838E+02  0.10570000000E+00 0. -1.
<mgrwt>
<rscale>  0 0.65208253E+02</rscale>
<asrwt>0</asrwt>
<pdfrwt beam="2">  1        3 0.48272385E-02 0.65208253E+02</pdfrwt>
<pdfrwt beam="1">  1       -3 0.52121831E-02 0.65208253E+02</pdfrwt>
<totfact> 0.91825796E+04</totfact>
</mgrwt>
</event>
<event>
 5    1  0.1401471E+000  0.8979046E+02  0.7818608E-02  0.1303360E+00
          3   -1    0    0  501    0  0.00000000000E+00  0.00000000000E+00  0.36400700438E+02  0.36400819240E+02  0.93000000000E-01 0. -1.
         -3   -1    0    0    0  501 -0.00000000000E+00 -0.00000000000E+00 -0.55371803367E+02  0.55371881466E+02  0.93000000000E-01 0.  1.
         23    2    1    2    0    0  0.00000000000E+00  0.00000000000E+00 -0.18971102929E+02  0.91772700706E+02  0.89790455219E+02 0.  0.
        -13    1    3    3    0    0 -0.30201878179E+02  0.47066501737E+01 -0.43094062230E+02  0.52833846854E+02  0.10570000000E+00 0.  1.
         13    1    3    3    0    0  0.30201878179E+02 -0.47066501737E+01  0.24122959301E+02  0.38938853852E+02  0.10570000000E+00 0. -1.
<mgrwt>
<rscale>  0 0.89790455E+02</rscale>
<asrwt>0</asrwt>
<pdfrwt beam="1">  1        3 0.56001229E-02 0.89790455E+02</pdfrwt>
<pdfrwt beam="2">  1       -3 0.85187542E-02 0.89790455E+02</pdfrwt>
<totfact> 0.36794531E+04</totfact>
</mgrwt>
</event>
<event>
 5    1  0.1401471E+000  0.9100046E+02  0.7818608E-02  0.1300447E+00
         -3   -1    0    0    0  501 -0.00000000000E+00  0.00000000000E+00  0.11006228133E+03  0.11006232062E+03  0.93000000000E-01 0.  1.
          3   -1    0    0  501    0  0.00000000000E+00 -0.00000000000E+00 -0.18809835675E+02  0.18810065580E+02  0.93000000000E-01 0. -1.
         23    2    1    2    0    0  0.00000000000E+00  0.00000000000E+00  0.91252445651E+02  0.12887238620E+03  0.91000456521E+02 0.  0.
        -13    1    3    3    0    0 -0.19186755182E+02 -0.31125145494E+02  0.72755544790E+01  0.37280707100E+02  0.10570000000E+00 0. -1.
         13    1    3    3    0    0  0.19186755182E+02  0.31125145494E+02  0.83976891172E+02  0.91591679097E+02  0.10570000000E+00 0.  1.
<mgrwt>
<rscale>  0 0.91000457E+02</rscale>
<asrwt>0</asrwt>
<pdfrwt beam="2">  1        3 0.28938416E-02 0.91000457E+02</pdfrwt>
<pdfrwt beam="1">  1       -3 0.16932679E-01 0.91000457E+02</pdfrwt>
<totfact> 0.32824018E+04</totfact>
</mgrwt>
</event>
<event>
 5    1  0.1401471E+000  0.8923500E+02  0.7818608E-02  0.1304715E+00
          3   -1    0    0  501    0  0.00000000000E+00  0.00000000000E+00  0.11240080414E+02  0.11240465146E+02  0.93000000000E-01 0. -1.
         -3   -1    0    0    0  501 -0.00000000000E+00 -0.00000000000E+00 -0.17710574924E+03  0.17710577366E+03  0.93000000000E-01 0.  1.
         23    2    1    2    0    0  0.00000000000E+00  0.00000000000E+00 -0.16586566883E+03  0.18834623881E+03  0.89235001969E+02 0.  0.
        -13    1    3    3    0    0  0.11688766064E+02  0.27855439448E+02 -0.15223755406E+03  0.15520578854E+03  0.10570000000E+00 0.  1.
         13    1    3    3    0    0 -0.11688766064E+02 -0.27855439448E+02 -0.13628114768E+02  0.33140450261E+02  0.10570000000E+00 0. -1.
<mgrwt>
<rscale>  0 0.89235002E+02</rscale>
<asrwt>0</asrwt>
<pdfrwt beam="1">  1        3 0.17292747E-02 0.89235002E+02</pdfrwt>
<pdfrwt beam="2">  1       -3 0.27247068E-01 0.89235002E+02</pdfrwt>
<totfact> 0.30849463E+04</totfact>
</mgrwt>
</event>
<event>
 5    1  0.1401471E+000  0.9230318E+02  0.7818608E-02  0.1297368E+00
         -3   -1    0    0    0  501 -0.00000000000E+00  0.00000000000E+00  0.75762276873E+02  0.75762333953E+02  0.93000000000E-01 0.  1.
          3   -1    0    0  501    0  0.00000000000E+00 -0.00000000000E+00 -0.28113706356E+02  0.28113860178E+02  0.93000000000E-01 0. -1.
         23    2    1    2    0    0  0.00000000000E+00  0.00000000000E+00  0.47648570517E+02  0.10387619413E+03  0.92303182149E+02 0.  0.
        -13    1    3    3    0    0  0.45088268314E+02  0.84233472641E+01  0.18080051277E+02  0.49303185956E+02  0.10570000000E+00 0. -1.
         13    1    3    3    0    0 -0.45088268314E+02 -0.84233472641E+01  0.29568519240E+02  0.54573008175E+02  0.10570000000E+00 0.  1.
<mgrwt>
<rscale>  0 0.92303182E+02</rscale>
<asrwt>0</asrwt>
<pdfrwt beam="2">  1        3 0.43252019E-02 0.92303182E+02</pdfrwt>
<pdfrwt beam="1">  1       -3 0.11655751E-01 0.92303182E+02</pdfrwt>
<totfact> 0.33255308E+04</totfact>
</mgrwt>
</event>
<event>
 5    1  0.1401471E+000  0.8816482E+02  0.7818608E-02  0.1307358E+00
         -3   -1    0    0    0  501 -0.00000000000E+00  0.00000000000E+00  0.87711711039E+02  0.87711760342E+02  0.93000000000E-01 0.  1.
          3   -1    0    0  501    0  0.00000000000E+00 -0.00000000000E+00 -0.22154912952E+02  0.22155108145E+02  0.93000000000E-01 0. -1.
         23    2    1    2    0    0  0.00000000000E+00  0.00000000000E+00  0.65556798086E+02  0.10986686849E+03  0.88164817336E+02 0.  0.
        -13    1    3    3    0    0  0.25073639931E+02  0.33789147184E+02  0.49162053034E+02  0.64709446898E+02  0.10570000000E+00 0.  1.
         13    1    3    3    0    0 -0.25073639931E+02 -0.33789147184E+02  0.16394745053E+02  0.45157421590E+02  0.10570000000E+00 0. -1.
<mgrwt>
<rscale>  0 0.88164817E+02</rscale>
<asrwt>0</asrwt>
<pdfrwt beam="2">  1        3 0.34084669E-02 0.88164817E+02</pdfrwt>
<pdfrwt beam="1">  1       -3 0.13494128E-01 0.88164817E+02</pdfrwt>
<totfact> 0.37191061E+04</totfact>
</mgrwt>
</event>
<event>
 5    1  0.1401471E+000  0.9013060E+02  0.7818608E-02  0.1302536E+00
         -3   -1    0    0    0  501 -0.00000000000E+00  0.00000000000E+00  0.26583643283E+02  0.26583805958E+02  0.93000000000E-01 0.  1.
          3   -1    0    0  501    0  0.00000000000E+00 -0.00000000000E+00 -0.76395468955E+02  0.76395525562E+02  0.93000000000E-01 0. -1.
         23    2    1    2    0    0  0.00000000000E+00  0.00000000000E+00 -0.49811825672E+02  0.10297933152E+03  0.90130598264E+02 0.  0.
        -13    1    3    3    0    0 -0.33364065601E+02 -0.24682928296E+00  0.97052289652E+01  0.34748013466E+02  0.10570000000E+00 0.  1.
         13    1    3    3    0    0  0.33364065601E+02  0.24682928296E+00 -0.59517054638E+02  0.68231318054E+02  0.10570000000E+00 0. -1.
<mgrwt>
<rscale>  0 0.90130598E+02</rscale>
<asrwt>0</asrwt>
<pdfrwt beam="2">  1        3 0.11753166E-01 0.90130598E+02</pdfrwt>
<pdfrwt beam="1">  1       -3 0.40898082E-02 0.90130598E+02</pdfrwt>
<totfact> 0.35548381E+04</totfact>
</mgrwt>
</event>
<event>
 5    1  0.1401471E+000  0.9105885E+02  0.7818608E-02  0.1300308E+00
          3   -1    0    0  501    0  0.00000000000E+00  0.00000000000E+00  0.64018166772E+02  0.64018234323E+02  0.93000000000E-01 0. -1.
         -3   -1    0    0    0  501 -0.00000000000E+00 -0.00000000000E+00 -0.32380166594E+02  0.32380300148E+02  0.93000000000E-01 0.  1.
         23    2    1    2    0    0  0.00000000000E+00  0.00000000000E+00  0.31638000178E+02  0.96398534470E+02  0.91058851260E+02 0.  0.
        -13    1    3    3    0    0  0.38834005059E+02  0.23758674684E+02  0.16456696880E+02  0.48408559330E+02  0.10570000000E+00 0.  1.
         13    1    3    3    0    0 -0.38834005059E+02 -0.23758674684E+02  0.15181303298E+02  0.47989975141E+02  0.10570000000E+00 0. -1.
<mgrwt>
<rscale>  0 0.91058851E+02</rscale>
<asrwt>0</asrwt>
<pdfrwt beam="1">  1        3 0.98489641E-02 0.91058851E+02</pdfrwt>
<pdfrwt beam="2">  1       -3 0.49815796E-02 0.91058851E+02</pdfrwt>
<totfact> 0.35063945E+04</totfact>
</mgrwt>
</event>
<event>
 5    1  0.1401471E+000  0.9305661E+02  0.7818608E-02  0.1295614E+00
          3   -1    0    0  501    0  0.00000000000E+00  0.00000000000E+00  0.14508546625E+03  0.14508549606E+03  0.93000000000E-01 0. -1.
         -3   -1    0    0    0  501 -0.00000000000E+00 -0.00000000000E+00 -0.14921258903E+02  0.14921548722E+02  0.93000000000E-01 0.  1.
         23    2    1    2    0    0  0.00000000000E+00  0.00000000000E+00  0.13016420735E+03  0.16000704478E+03  0.93056614513E+02 0.  0.
        -13    1    3    3    0    0 -0.31955595770E+02 -0.33764250389E+02  0.61780250405E+02  0.77317496196E+02  0.10570000000E+00 0.  1.
         13    1    3    3    0    0  0.31955595770E+02  0.33764250389E+02  0.68383956943E+02  0.82689548584E+02  0.10570000000E+00 0. -1.
<mgrwt>
<rscale>  0 0.93056615E+02</rscale>
<asrwt>0</asrwt>
<pdfrwt beam="1">  1        3 0.22320866E-01 0.93056615E+02</pdfrwt>
<pdfrwt beam="2">  1       -3 0.22956028E-02 0.93056615E+02</pdfrwt>
<totfact> 0.29051892E+04</totfact>
</mgrwt>
</event>
<event>
 5    1  0.1401471E+000  0.9113893E+02  0.7818608E-02  0.1300117E+00
         -3   -1    0    0    0  501 -0.00000000000E+00  0.00000000000E+00  0.35147192078E+02  0.35147315117E+02  0.93000000000E-01 0.  1.
          3   -1    0    0  501    0  0.00000000000E+00 -0.00000000000E+00 -0.59082016246E+02  0.59082089441E+02  0.93000000000E-01 0. -1.
         23    2    1    2    0    0  0.00000000000E+00  0.00000000000E+00 -0.23934824168E+02  0.94229404558E+02  0.91138931722E+02 0.  0.
        -13    1    3    3    0    0 -0.36162036214E+02  0.12274794171E+02 -0.37674186079E+02  0.53644374396E+02  0.10570000000E+00 0. -1.
         13    1    3    3    0    0  0.36162036214E+02 -0.12274794171E+02  0.13739361911E+02  0.40585030163E+02  0.10570000000E+00 0.  1.
<mgrwt>
<rscale>  0 0.91138932E+02</rscale>
<asrwt>0</asrwt>
<pdfrwt beam="2">  1        3 0.90895560E-02 0.91138932E+02</pdfrwt>
<pdfrwt beam="1">  1       -3 0.54072754E-02 0.91138932E+02</pdfrwt>
<totfact> 0.35145004E+04</totfact>
</mgrwt>
</event>
<event>
 5    1  0.1401471E+000  0.9128744E+02  0.7818608E-02  0.1299764E+00
          3   -1    0    0  501    0  0.00000000000E+00  0.00000000000E+00  0.82857602265E+02  0.82857654457E+02  0.93000000000E-01 0. -1.
         -3   -1    0    0    0  501 -0.00000000000E+00 -0.00000000000E+00 -0.25143583895E+02  0.25143755886E+02  0.93000000000E-01 0.  1.
         23    2    1    2    0    0  0.00000000000E+00  0.00000000000E+00  0.57714018370E+02  0.10800141034E+03  0.91287440098E+02 0.  0.
        -13    1    3    3    0    0  0.68127179375E+01 -0.42293056905E+02  0.10217317466E+02  0.44039987928E+02  0.10570000000E+00 0.  1.
         13    1    3    3    0    0 -0.68127179375E+01  0.42293056905E+02  0.47496700904E+02  0.63961422415E+02  0.10570000000E+00 0. -1.
<mgrwt>
<rscale>  0 0.91287440E+02</rscale>
<asrwt>0</asrwt>
<pdfrwt beam="1">  1        3 0.12747341E-01 0.91287440E+02</pdfrwt>
<pdfrwt beam="2">  1       -3 0.38682609E-02 0.91287440E+02</pdfrwt>
<totfact> 0.33975370E+04</totfact>
</mgrwt>
</event>
<event>
 5    1  0.1401471E+000  0.9173065E+02  0.7818608E-02  0.1298714E+00
         -3   -1    0    0    0  501 -0.00000000000E+00  0.00000000000E+00  0.28681867544E+03  0.28681869051E+03  0.93000000000E-01 0.  1.
          3   -1    0    0  501    0  0.00000000000E+00 -0.00000000000E+00 -0.73340387625E+01  0.73346283866E+01  0.93000000000E-01 0. -1.
         23    2    1    2    0    0  0.00000000000E+00  0.00000000000E+00  0.27948463667E+03  0.29415331890E+03  0.91730654001E+02 0.  0.
        -13    1    3    3    0    0  0.22583335863E+02  0.38233023105E+02  0.17656306859E+03  0.18206125199E+03  0.10570000000E+00 0.  1.
         13    1    3    3    0    0 -0.22583335863E+02 -0.38233023105E+02  0.10292156808E+03  0.11209206691E+03  0.10570000000E+00 0. -1.
<mgrwt>
<rscale>  0 0.91730654E+02</rscale>
<asrwt>0</asrwt>
<pdfrwt beam="2">  1        3 0.11283602E-02 0.91730654E+02</pdfrwt>
<pdfrwt beam="1">  1       -3 0.44125994E-01 0.91730654E+02</pdfrwt>
<totfact> 0.23860117E+04</totfact>
</mgrwt>
</event>
<event>
 5    1  0.1401471E+000  0.8830602E+02  0.7818608E-02  0.1307007E+00
          3   -1    0    0  501    0  0.00000000000E+00  0.00000000000E+00  0.59844777111E+02  0.59844849373E+02  0.93000000000E-01 0. -1.
         -3   -1    0    0    0  501 -0.00000000000E+00 -0.00000000000E+00 -0.32575591081E+02  0.32575723833E+02  0.93000000000E-01 0.  1.
         23    2    1    2    0    0  0.00000000000E+00  0.00000000000E+00  0.27269186031E+02  0.92420573207E+02  0.88306023832E+02 0.  0.
        -13    1    3    3    0    0 -0.25103456860E+01 -0.43399632933E+02  0.21717615291E+02  0.48595225697E+02  0.10570000000E+00 0. -1.
         13    1    3    3    0    0  0.25103456860E+01  0.43399632933E+02  0.55515707394E+01  0.43825347509E+02  0.10570000000E+00 0.  1.
<mgrwt>
<rscale>  0 0.88306024E+02</rscale>
<asrwt>0</asrwt>
<pdfrwt beam="1">  1        3 0.92069045E-02 0.88306024E+02</pdfrwt>
<pdfrwt beam="2">  1       -3 0.50116452E-02 0.88306024E+02</pdfrwt>
<totfact> 0.38440868E+04</totfact>
</mgrwt>
</event>
<event>
 5    1  0.1401471E+000  0.8981009E+02  0.7818608E-02  0.1303312E+00
         -3   -1    0    0    0  501 -0.00000000000E+00  0.00000000000E+00  0.76048361475E+02  0.76048418340E+02  0.93000000000E-01 0.  1.
          3   -1    0    0  501    0  0.00000000000E+00 -0.00000000000E+00 -0.26515386624E+02  0.26515549718E+02  0.93000000000E-01 0. -1.
         23    2    1    2    0    0  0.00000000000E+00  0.00000000000E+00  0.49532974850E+02  0.10256396806E+03  0.89810088221E+02 0.  0.
        -13    1    3    3    0    0 -0.32101261917E+02 -0.68650729941E+01 -0.10225091079E+02  0.34382901331E+02  0.10570000000E+00 0. -1.
         13    1    3    3    0    0  0.32101261917E+02  0.68650729941E+01  0.59758065929E+02  0.68181066727E+02  0.10570000000E+00 0.  1.
<mgrwt>
<rscale>  0 0.89810088E+02</rscale>
<asrwt>0</asrwt>
<pdfrwt beam="2">  1        3 0.40793073E-02 0.89810088E+02</pdfrwt>
<pdfrwt beam="1">  1       -3 0.11699764E-01 0.89810088E+02</pdfrwt>
<totfact> 0.35926854E+04</totfact>
</mgrwt>
</event>
<event>
 5    1  0.1401471E+000  0.9126184E+02  0.7818608E-02  0.1299824E+00
         -3   -1    0    0    0  501 -0.00000000000E+00  0.00000000000E+00  0.61384713094E+02  0.61384783543E+02  0.93000000000E-01 0.  1.
          3   -1    0    0  501    0  0.00000000000E+00 -0.00000000000E+00 -0.33920031222E+02  0.33920158713E+02  0.93000000000E-01 0. -1.
         23    2    1    2    0    0  0.00000000000E+00  0.00000000000E+00  0.27464681873E+02  0.95304942256E+02  0.91261839057E+02 0.  0.
        -13    1    3    3    0    0  0.13899315248E+02 -0.22954039963E+02 -0.24809213370E+02  0.36545685868E+02  0.10570000000E+00 0. -1.
         13    1    3    3    0    0 -0.13899315248E+02  0.22954039963E+02  0.52273895243E+02  0.58759256389E+02  0.10570000000E+00 0.  1.
<mgrwt>
<rscale>  0 0.91261839E+02</rscale>
<asrwt>0</asrwt>
<pdfrwt beam="2">  1        3 0.52184816E-02 0.91261839E+02</pdfrwt>
<pdfrwt beam="1">  1       -3 0.94438171E-02 0.91261839E+02</pdfrwt>
<totfact> 0.34935246E+04</totfact>
</mgrwt>
</event>
<event>
 5    1  0.1401471E+000  0.9044880E+02  0.7818608E-02  0.1301768E+00
         -3   -1    0    0    0  501 -0.00000000000E+00  0.00000000000E+00  0.40904961747E+03  0.40904962804E+03  0.93000000000E-01 0.  1.
          3   -1    0    0  501    0  0.00000000000E+00 -0.00000000000E+00 -0.49995530386E+01  0.50004179411E+01  0.93000000000E-01 0. -1.
         23    2    1    2    0    0  0.00000000000E+00  0.00000000000E+00  0.40405006443E+03  0.41405004598E+03  0.90448803262E+02 0.  0.
        -13    1    3    3    0    0  0.27558687338E+02 -0.35018404608E+02  0.23732564646E+03  0.24147307003E+03  0.10570000000E+00 0.  1.
         13    1    3    3    0    0 -0.27558687338E+02  0.35018404608E+02  0.16672441797E+03  0.17257697595E+03  0.10570000000E+00 0. -1.
<mgrwt>
<rscale>  0 0.90448803E+02</rscale>
<asrwt>0</asrwt>
<pdfrwt beam="2">  1        3 0.76922923E-03 0.90448803E+02</pdfrwt>
<pdfrwt beam="1">  1       -3 0.62930787E-01 0.90448803E+02</pdfrwt>
<totfact> 0.20618652E+04</totfact>
</mgrwt>
</event>
<event>
 5    1  0.1401471E+000  0.8875706E+02  0.7818608E-02  0.1305890E+00
         -3   -1    0    0    0  501 -0.00000000000E+00  0.00000000000E+00  0.71143986488E+02  0.71144047273E+02  0.93000000000E-01 0.  1.
          3   -1    0    0  501    0  0.00000000000E+00 -0.00000000000E+00 -0.27682499566E+02  0.27682655783E+02  0.93000000000E-01 0. -1.
         23    2    1    2    0    0  0.00000000000E+00  0.00000000000E+00  0.43461486922E+02  0.98826703056E+02  0.88757063896E+02 0.  0.
        -13    1    3    3    0    0  0.16288413279E+02  0.39817557372E+02  0.33861371343E+02  0.54748095162E+02  0.10570000000E+00 0.  1.
         13    1    3    3    0    0 -0.16288413279E+02 -0.39817557372E+02  0.96001155792E+01  0.44078607893E+02  0.10570000000E+00 0. -1.
<mgrwt>
<rscale>  0 0.88757064E+02</rscale>
<asrwt>0</asrwt>
<pdfrwt beam="2">  1        3 0.42588628E-02 0.88757064E+02</pdfrwt>
<pdfrwt beam="1">  1       -3 0.10945245E-01 0.88757064E+02</pdfrwt>
<totfact> 0.37392044E+04</totfact>
</mgrwt>
</event>
<event>
 5    1  0.1401471E+000  0.9273812E+02  0.7818608E-02  0.1296353E+00
         -3   -1    0    0    0  501 -0.00000000000E+00  0.00000000000E+00  0.22053583656E+03  0.22053585616E+03  0.93000000000E-01 0.  1.
          3   -1    0    0  501    0  0.00000000000E+00 -0.00000000000E+00 -0.97491473014E+01  0.97495908685E+01  0.93000000000E-01 0. -1.
         23    2    1    2    0    0  0.00000000000E+00  0.00000000000E+00  0.21078668925E+03  0.23028544703E+03  0.92738119177E+02 0.  0.
        -13    1    3    3    0    0  0.10220112888E+02  0.33710350646E+02  0.30516507297E+02  0.46605866994E+02  0.10570000000E+00 0. -1.
         13    1    3    3    0    0 -0.10220112888E+02 -0.33710350646E+02  0.18027018196E+03  0.18367958004E+03  0.10570000000E+00 0.  1.
<mgrwt>
<rscale>  0 0.92738119E+02</rscale>
<asrwt>0</asrwt>
<pdfrwt beam="2">  1        3 0.14999043E-02 0.92738119E+02</pdfrwt>
<pdfrwt beam="1">  1       -3 0.33928629E-01 0.92738119E+02</pdfrwt>
<totfact> 0.25792207E+04</totfact>
</mgrwt>
</event>
<event>
 5    1  0.1401471E+000  0.9462502E+02  0.7818608E-02  0.1292023E+00
         -3   -1    0    0    0  501 -0.00000000000E+00  0.00000000000E+00  0.39852655905E+02  0.39852764417E+02  0.93000000000E-01 0.  1.
          3   -1    0    0  501    0  0.00000000000E+00 -0.00000000000E+00 -0.56168520429E+02  0.56168597421E+02  0.93000000000E-01 0. -1.
         23    2    1    2    0    0  0.00000000000E+00  0.00000000000E+00 -0.16315864524E+02  0.96021361838E+02  0.94625020444E+02 0.  0.
        -13    1    3    3    0    0 -0.18705680367E+02  0.12564174729E+02  0.34057666956E+02  0.40837443793E+02  0.10570000000E+00 0.  1.
         13    1    3    3    0    0  0.18705680367E+02 -0.12564174729E+02 -0.50373531479E+02  0.55183918045E+02  0.10570000000E+00 0. -1.
<mgrwt>
<rscale>  0 0.94625020E+02</rscale>
<asrwt>0</asrwt>
<pdfrwt beam="2">  1        3 0.86413251E-02 0.94625020E+02</pdfrwt>
<pdfrwt beam="1">  1       -3 0.61311921E-02 0.94625020E+02</pdfrwt>
<totfact> 0.31596255E+04</totfact>
</mgrwt>
</event>
<event>
 5    1  0.1401471E+000  0.8878771E+02  0.7818608E-02  0.1305814E+00
          3   -1    0    0  501    0  0.00000000000E+00  0.00000000000E+00  0.89711797437E+01  0.89716617744E+01  0.93000000000E-01 0. -1.
         -3   -1    0    0    0  501 -0.00000000000E+00 -0.00000000000E+00 -0.21967646448E+03  0.21967648417E+03  0.93000000000E-01 0.  1.
         23    2    1    2    0    0  0.00000000000E+00  0.00000000000E+00 -0.21070528474E+03  0.22864814594E+03  0.88787711009E+02 0.  0.
        -13    1    3    3    0    0  0.43015625264E+02  0.10846878581E+02 -0.10966523139E+03  0.11829823726E+03  0.10570000000E+00 0.  1.
         13    1    3    3    0    0 -0.43015625264E+02 -0.10846878581E+02 -0.10104005335E+03  0.11034990868E+03  0.10570000000E+00 0. -1.
<mgrwt>
<rscale>  0 0.88787711E+02</rscale>
<asrwt>0</asrwt>
<pdfrwt beam="1">  1        3 0.13802203E-02 0.88787711E+02</pdfrwt>
<pdfrwt beam="2">  1       -3 0.33796414E-01 0.88787711E+02</pdfrwt>
<totfact> 0.29080908E+04</totfact>
</mgrwt>
</event>
<event>
 5    1  0.1401471E+000  0.9306080E+02  0.7818608E-02  0.1295604E+00
         -3   -1    0    0    0  501 -0.00000000000E+00  0.00000000000E+00  0.12744030481E+03  0.12744033874E+03  0.93000000000E-01 0.  1.
          3   -1    0    0  501    0  0.00000000000E+00 -0.00000000000E+00 -0.16988794868E+02  0.16989049416E+02  0.93000000000E-01 0. -1.
         23    2    1    2    0    0  0.00000000000E+00  0.00000000000E+00  0.11045150994E+03  0.14442938816E+03  0.93060797951E+02 0.  0.
        -13    1    3    3    0    0  0.19677302009E+02 -0.19427955933E+02  0.11330470458E+03  0.11663022309E+03  0.10570000000E+00 0.  1.
         13    1    3    3    0    0 -0.19677302009E+02  0.19427955933E+02 -0.28531946410E+01  0.27799165064E+02  0.10570000000E+00 0. -1.
<mgrwt>
<rscale>  0 0.93060798E+02</rscale>
<asrwt>0</asrwt>
<pdfrwt beam="2">  1        3 0.26136830E-02 0.93060798E+02</pdfrwt>
<pdfrwt beam="1">  1       -3 0.19606222E-01 0.93060798E+02</pdfrwt>
<totfact> 0.29941863E+04</totfact>
</mgrwt>
</event>
<event>
 5    1  0.1401471E+000  0.9340615E+02  0.7818608E-02  0.1294807E+00
          3   -1    0    0  501    0  0.00000000000E+00  0.00000000000E+00  0.13720478297E+02  0.13720793479E+02  0.93000000000E-01 0. -1.
         -3   -1    0    0    0  501 -0.00000000000E+00 -0.00000000000E+00 -0.15897023453E+03  0.15897026173E+03  0.93000000000E-01 0.  1.
         23    2    1    2    0    0  0.00000000000E+00  0.00000000000E+00 -0.14524975623E+03  0.17269105521E+03  0.93406150036E+02 0.  0.
        -13    1    3    3    0    0  0.14473655361E+02 -0.43768615522E+02 -0.58791111338E+02  0.74710001667E+02  0.10570000000E+00 0.  1.
         13    1    3    3    0    0 -0.14473655361E+02  0.43768615522E+02 -0.86458644895E+02  0.97981053545E+02  0.10570000000E+00 0. -1.
<mgrwt>
<rscale>  0 0.93406150E+02</rscale>
<asrwt>0</asrwt>
<pdfrwt beam="1">  1        3 0.21108693E-02 0.93406150E+02</pdfrwt>
<pdfrwt beam="2">  1       -3 0.24456984E-01 0.93406150E+02</pdfrwt>
<totfact> 0.28073911E+04</totfact>
</mgrwt>
</event>
<event>
 5    1  0.1401471E+000  0.8411642E+02  0.7818608E-02  0.1317759E+00
         -3   -1    0    0    0  501 -0.00000000000E+00  0.00000000000E+00  0.61963585214E+02  0.61963655005E+02  0.93000000000E-01 0.  1.
          3   -1    0    0  501    0  0.00000000000E+00 -0.00000000000E+00 -0.28547140733E+02  0.28547292218E+02  0.93000000000E-01 0. -1.
         23    2    1    2    0    0  0.00000000000E+00  0.00000000000E+00  0.33416444481E+02  0.90510947223E+02  0.84116424113E+02 0.  0.
        -13    1    3    3    0    0 -0.32172009122E+02  0.37311186920E+01 -0.12162870044E+02  0.34596329254E+02  0.10570000000E+00 0. -1.
         13    1    3    3    0    0  0.32172009122E+02 -0.37311186920E+01  0.45579314525E+02  0.55914617970E+02  0.10570000000E+00 0.  1.
<mgrwt>
<rscale>  0 0.84116424E+02</rscale>
<asrwt>0</asrwt>
<pdfrwt beam="2">  1        3 0.43918848E-02 0.84116424E+02</pdfrwt>
<pdfrwt beam="1">  1       -3 0.95328763E-02 0.84116424E+02</pdfrwt>
<totfact> 0.44023825E+04</totfact>
</mgrwt>
</event>
<event>
 5    1  0.1401471E+000  0.9160551E+02  0.7818608E-02  0.1299010E+00
         -3   -1    0    0    0  501 -0.00000000000E+00  0.00000000000E+00  0.63980228714E+01  0.63986987476E+01  0.93000000000E-01 0.  1.
          3   -1    0    0  501    0  0.00000000000E+00 -0.00000000000E+00 -0.32787900612E+03  0.32787901931E+03  0.93000000000E-01 0. -1.
         23    2    1    2    0    0  0.00000000000E+00  0.00000000000E+00 -0.32148098325E+03  0.33427771806E+03  0.91605514020E+02 0.  0.
        -13    1    3    3    0    0 -0.41734801002E+02 -0.18750113133E+02 -0.16849946090E+03  0.17460080141E+03  0.10570000000E+00 0. -1.
         13    1    3    3    0    0  0.41734801002E+02  0.18750113133E+02 -0.15298152235E+03  0.15967691665E+03  0.10570000000E+00 0.  1.
<mgrwt>
<rscale>  0 0.91605514E+02</rscale>
<asrwt>0</asrwt>
<pdfrwt beam="2">  1        3 0.50442964E-01 0.91605514E+02</pdfrwt>
<pdfrwt beam="1">  1       -3 0.98436447E-03 0.91605514E+02</pdfrwt>
<totfact> 0.22478090E+04</totfact>
</mgrwt>
</event>
<event>
 5    1  0.1401471E+000  0.9310050E+02  0.7818608E-02  0.1295512E+00
          3   -1    0    0  501    0  0.00000000000E+00  0.00000000000E+00  0.23139182740E+02  0.23139369630E+02  0.93000000000E-01 0. -1.
         -3   -1    0    0    0  501 -0.00000000000E+00 -0.00000000000E+00 -0.93646878137E+02  0.93646924316E+02  0.93000000000E-01 0.  1.
         23    2    1    2    0    0  0.00000000000E+00  0.00000000000E+00 -0.70507695397E+02  0.11678629395E+03  0.93100501306E+02 0.  0.
        -13    1    3    3    0    0  0.57703431647E+01 -0.19372701613E+02  0.17346467974E+02  0.26636620501E+02  0.10570000000E+00 0. -1.
         13    1    3    3    0    0 -0.57703431647E+01  0.19372701613E+02 -0.87854163372E+02  0.90149673445E+02  0.10570000000E+00 0.  1.
<mgrwt>
<rscale>  0 0.93100501E+02</rscale>
<asrwt>0</asrwt>
<pdfrwt beam="1">  1        3 0.35598923E-02 0.93100501E+02</pdfrwt>
<pdfrwt beam="2">  1       -3 0.14407230E-01 0.93100501E+02</pdfrwt>
<totfact> 0.31618665E+04</totfact>
</mgrwt>
</event>
<event>
 5    1  0.1401471E+000  0.8547589E+02  0.7818608E-02  0.1314193E+00
         -3   -1    0    0    0  501 -0.00000000000E+00  0.00000000000E+00  0.28627174289E+02  0.28627325351E+02  0.93000000000E-01 0.  1.
          3   -1    0    0  501    0  0.00000000000E+00 -0.00000000000E+00 -0.63803780606E+02  0.63803848384E+02  0.93000000000E-01 0. -1.
         23    2    1    2    0    0  0.00000000000E+00  0.00000000000E+00 -0.35176606317E+02  0.92431173735E+02  0.85475892777E+02 0.  0.
        -13    1    3    3    0    0  0.88036479328E+01 -0.29448927080E+02  0.14522731238E+02  0.33995064616E+02  0.10570000000E+00 0.  1.
         13    1    3    3    0    0 -0.88036479328E+01  0.29448927080E+02 -0.49699337555E+02  0.58436109119E+02  0.10570000000E+00 0. -1.
<mgrwt>
<rscale>  0 0.85475893E+02</rscale>
<asrwt>0</asrwt>
<pdfrwt beam="2">  1        3 0.98159831E-02 0.85475893E+02</pdfrwt>
<pdfrwt beam="1">  1       -3 0.44041975E-02 0.85475893E+02</pdfrwt>
<totfact> 0.41980355E+04</totfact>
</mgrwt>
</event>
<event>
 5    1  0.1401471E+000  0.1104352E+03  0.7818608E-02  0.1259766E+00
         -3   -1    0    0    0  501 -0.00000000000E+00  0.00000000000E+00  0.10688908423E+03  0.10688912469E+03  0.93000000000E-01 0. -1.
          3   -1    0    0  501    0  0.00000000000E+00 -0.00000000000E+00 -0.28524642358E+02  0.28524793963E+02  0.93000000000E-01 0.  1.
         23    2    1    2    0    0  0.00000000000E+00  0.00000000000E+00  0.78364441874E+02  0.13541391865E+03  0.11043524625E+03 0.  0.
        -13    1    3    3    0    0  0.33684289668E+02 -0.21854203193E+02  0.85659882041E+02  0.94603721552E+02  0.10570000000E+00 0. -1.
         13    1    3    3    0    0 -0.33684289668E+02  0.21854203193E+02 -0.72954401672E+01  0.40810197101E+02  0.10570000000E+00 0.  1.
<mgrwt>
<rscale>  0 0.11043525E+03</rscale>
<asrwt>0</asrwt>
<pdfrwt beam="2">  1        3 0.43884212E-02 0.11043525E+03</pdfrwt>
<pdfrwt beam="1">  1       -3 0.16444490E-01 0.11043525E+03</pdfrwt>
<totfact> 0.19044859E+04</totfact>
</mgrwt>
</event>
<event>
 5    1  0.1401471E+000  0.9069973E+02  0.7818608E-02  0.1301166E+00
         -3   -1    0    0    0  501 -0.00000000000E+00  0.00000000000E+00  0.18793841965E+03  0.18793844266E+03  0.93000000000E-01 0.  1.
          3   -1    0    0  501    0  0.00000000000E+00 -0.00000000000E+00 -0.10942779893E+02  0.10943175078E+02  0.93000000000E-01 0. -1.
         23    2    1    2    0    0  0.00000000000E+00  0.00000000000E+00  0.17699563975E+03  0.19888161774E+03  0.90699731979E+02 0.  0.
        -13    1    3    3    0    0  0.35639404397E+02  0.20684747888E+02  0.13001975380E+03  0.13639345106E+03  0.10570000000E+00 0.  1.
         13    1    3    3    0    0 -0.35639404397E+02 -0.20684747888E+02  0.46975885954E+02  0.62488166677E+02  0.10570000000E+00 0. -1.
<mgrwt>
<rscale>  0 0.90699732E+02</rscale>
<asrwt>0</asrwt>
<pdfrwt beam="2">  1        3 0.16835369E-02 0.90699732E+02</pdfrwt>
<pdfrwt beam="1">  1       -3 0.28913634E-01 0.90699732E+02</pdfrwt>
<totfact> 0.28961978E+04</totfact>
</mgrwt>
</event>
<event>
 5    1  0.1401471E+000  0.8736264E+02  0.7818608E-02  0.1309367E+00
          3   -1    0    0  501    0  0.00000000000E+00  0.00000000000E+00  0.40338214321E+02  0.40338321526E+02  0.93000000000E-01 0. -1.
         -3   -1    0    0    0  501 -0.00000000000E+00 -0.00000000000E+00 -0.47301273360E+02  0.47301364784E+02  0.93000000000E-01 0.  1.
         23    2    1    2    0    0  0.00000000000E+00  0.00000000000E+00 -0.69630590390E+01  0.87639686310E+02  0.87362637468E+02 0.  0.
        -13    1    3    3    0    0  0.31863540722E+02  0.27415435345E+02  0.84370193644E+01  0.42872902756E+02  0.10570000000E+00 0. -1.
         13    1    3    3    0    0 -0.31863540722E+02 -0.27415435345E+02 -0.15400078403E+02  0.44766783554E+02  0.10570000000E+00 0.  1.
<mgrwt>
<rscale>  0 0.87362637E+02</rscale>
<asrwt>0</asrwt>
<pdfrwt beam="1">  1        3 0.62058944E-02 0.87362637E+02</pdfrwt>
<pdfrwt beam="2">  1       -3 0.72771342E-02 0.87362637E+02</pdfrwt>
<totfact> 0.39994579E+04</totfact>
</mgrwt>
</event>
<event>
 5    1  0.1401471E+000  0.9089900E+02  0.7818608E-02  0.1300689E+00
         -3   -1    0    0    0  501 -0.00000000000E+00  0.00000000000E+00  0.80537000150E+02  0.80537053846E+02  0.93000000000E-01 0. -1.
          3   -1    0    0  501    0  0.00000000000E+00 -0.00000000000E+00 -0.25648399460E+02  0.25648568067E+02  0.93000000000E-01 0.  1.
         23    2    1    2    0    0  0.00000000000E+00  0.00000000000E+00  0.54888600690E+02  0.10618562191E+03  0.90898997878E+02 0.  0.
        -13    1    3    3    0    0 -0.39988622606E+02 -0.21577681342E+02  0.28588578678E+02  0.53684301926E+02  0.10570000000E+00 0.  1.
         13    1    3    3    0    0  0.39988622606E+02  0.21577681342E+02  0.26300022012E+02  0.52501319986E+02  0.10570000000E+00 0. -1.
<mgrwt>
<rscale>  0 0.90898998E+02</rscale>
<asrwt>0</asrwt>
<pdfrwt beam="2">  1        3 0.39459248E-02 0.90898998E+02</pdfrwt>
<pdfrwt beam="1">  1       -3 0.12390325E-01 0.90898998E+02</pdfrwt>
<totfact> 0.34505197E+04</totfact>
</mgrwt>
</event>
<event>
 5    1  0.1401471E+000  0.9014992E+02  0.7818608E-02  0.1302489E+00
          3   -1    0    0  501    0  0.00000000000E+00  0.00000000000E+00  0.98802094501E+02  0.98802138270E+02  0.93000000000E-01 0. -1.
         -3   -1    0    0    0  501 -0.00000000000E+00 -0.00000000000E+00 -0.20563703138E+02  0.20563913435E+02  0.93000000000E-01 0.  1.
         23    2    1    2    0    0  0.00000000000E+00  0.00000000000E+00  0.78238391363E+02  0.11936605170E+03  0.90149921889E+02 0.  0.
        -13    1    3    3    0    0 -0.45019790337E+02  0.14017569973E+01  0.36827923472E+02  0.58181213157E+02  0.10570000000E+00 0.  1.
         13    1    3    3    0    0  0.45019790337E+02 -0.14017569973E+01  0.41410467891E+02  0.61184838548E+02  0.10570000000E+00 0. -1.
<mgrwt>
<rscale>  0 0.90149922E+02</rscale>
<asrwt>0</asrwt>
<pdfrwt beam="1">  1        3 0.15200342E-01 0.90149922E+02</pdfrwt>
<pdfrwt beam="2">  1       -3 0.31636661E-02 0.90149922E+02</pdfrwt>
<totfact> 0.34327677E+04</totfact>
</mgrwt>
</event>
<event>
 5    1  0.1401471E+000  0.9094784E+02  0.7818608E-02  0.1300572E+00
          3   -1    0    0  501    0  0.00000000000E+00  0.00000000000E+00  0.12381978737E+03  0.12381982230E+03  0.93000000000E-01 0. -1.
         -3   -1    0    0    0  501 -0.00000000000E+00 -0.00000000000E+00 -0.16700535216E+02  0.16700794158E+02  0.93000000000E-01 0.  1.
         23    2    1    2    0    0  0.00000000000E+00  0.00000000000E+00  0.10711925216E+03  0.14052061645E+03  0.90947839262E+02 0.  0.
        -13    1    3    3    0    0  0.35305811911E+02 -0.28632315541E+02  0.55487154369E+02  0.71729668341E+02  0.10570000000E+00 0. -1.
         13    1    3    3    0    0 -0.35305811911E+02  0.28632315541E+02  0.51632097787E+02  0.68790948114E+02  0.10570000000E+00 0.  1.
<mgrwt>
<rscale>  0 0.90947839E+02</rscale>
<asrwt>0</asrwt>
<pdfrwt beam="1">  1        3 0.19049220E-01 0.90947839E+02</pdfrwt>
<pdfrwt beam="2">  1       -3 0.25693358E-02 0.90947839E+02</pdfrwt>
<totfact> 0.32115355E+04</totfact>
</mgrwt>
</event>
<event>
 5    1  0.1401471E+000  0.9039234E+02  0.7818608E-02  0.1301904E+00
         -3   -1    0    0    0  501 -0.00000000000E+00  0.00000000000E+00  0.12290860661E+03  0.12290864180E+03  0.93000000000E-01 0.  1.
          3   -1    0    0  501    0  0.00000000000E+00 -0.00000000000E+00 -0.16619448560E+02  0.16619708765E+02  0.93000000000E-01 0. -1.
         23    2    1    2    0    0  0.00000000000E+00  0.00000000000E+00  0.10628915805E+03  0.13952835056E+03  0.90392341992E+02 0.  0.
        -13    1    3    3    0    0 -0.29853153235E+02  0.10876479219E+02  0.35290546615E+01  0.31968327413E+02  0.10570000000E+00 0. -1.
         13    1    3    3    0    0  0.29853153235E+02 -0.10876479219E+02  0.10276010339E+03  0.10756002315E+03  0.10570000000E+00 0.  1.
<mgrwt>
<rscale>  0 0.90392342E+02</rscale>
<asrwt>0</asrwt>
<pdfrwt beam="2">  1        3 0.25568610E-02 0.90392342E+02</pdfrwt>
<pdfrwt beam="1">  1       -3 0.18909039E-01 0.90392342E+02</pdfrwt>
<totfact> 0.32717774E+04</totfact>
</mgrwt>
</event>
<event>
 5    1  0.1401471E+000  0.9633819E+02  0.7818608E-02  0.1288190E+00
         -3   -1    0    0    0  501 -0.00000000000E+00  0.00000000000E+00  0.19945775127E+02  0.19945991939E+02  0.93000000000E-01 0.  1.
          3   -1    0    0  501    0  0.00000000000E+00 -0.00000000000E+00 -0.11632760676E+03  0.11632764393E+03  0.93000000000E-01 0. -1.
         23    2    1    2    0    0  0.00000000000E+00  0.00000000000E+00 -0.96381831630E+02  0.13627363587E+03  0.96338187471E+02 0.  0.
        -13    1    3    3    0    0  0.27490109202E+02  0.26005330383E+02 -0.90349416974E+02  0.97954130246E+02  0.10570000000E+00 0.  1.
         13    1    3    3    0    0 -0.27490109202E+02 -0.26005330383E+02 -0.60324146559E+01  0.38319505625E+02  0.10570000000E+00 0. -1.
<mgrwt>
<rscale>  0 0.96338187E+02</rscale>
<asrwt>0</asrwt>
<pdfrwt beam="2">  1        3 0.17896574E-01 0.96338187E+02</pdfrwt>
<pdfrwt beam="1">  1       -3 0.30686004E-02 0.96338187E+02</pdfrwt>
<totfact> 0.27687538E+04</totfact>
</mgrwt>
</event>
<event>
 5    1  0.1401471E+000  0.9204245E+02  0.7818608E-02  0.1297980E+00
         -3   -1    0    0    0  501 -0.00000000000E+00  0.00000000000E+00  0.67625705860E+02  0.67625769808E+02  0.93000000000E-01 0.  1.
          3   -1    0    0  501    0  0.00000000000E+00 -0.00000000000E+00 -0.31318612119E+02  0.31318750199E+02  0.93000000000E-01 0. -1.
         23    2    1    2    0    0  0.00000000000E+00  0.00000000000E+00  0.36307093741E+02  0.98944520007E+02  0.92042452072E+02 0.  0.
        -13    1    3    3    0    0 -0.27393638347E+02  0.35657226492E+02  0.76157674386E+01  0.45605485516E+02  0.10570000000E+00 0.  1.
         13    1    3    3    0    0  0.27393638347E+02 -0.35657226492E+02  0.28691326303E+02  0.53339034491E+02  0.10570000000E+00 0. -1.
<mgrwt>
<rscale>  0 0.92042452E+02</rscale>
<asrwt>0</asrwt>
<pdfrwt beam="2">  1        3 0.48182636E-02 0.92042452E+02</pdfrwt>
<pdfrwt beam="1">  1       -3 0.10403970E-01 0.92042452E+02</pdfrwt>
<totfact> 0.33866262E+04</totfact>
</mgrwt>
</event>
<event>
 5    1  0.1401471E+000  0.8958386E+02  0.7818608E-02  0.1303863E+00
          3   -1    0    0  501    0  0.00000000000E+00  0.00000000000E+00  0.65160122802E+02  0.65160189170E+02  0.93000000000E-01 0. -1.
         -3   -1    0    0    0  501 -0.00000000000E+00 -0.00000000000E+00 -0.30790415519E+02  0.30790555968E+02  0.93000000000E-01 0.  1.
         23    2    1    2    0    0  0.00000000000E+00  0.00000000000E+00  0.34369707283E+02  0.95950745138E+02  0.89583864138E+02 0.  0.
        -13    1    3    3    0    0 -0.24128591697E+02 -0.37215226507E+02  0.23886030452E+02  0.50375744605E+02  0.10570000000E+00 0.  1.
         13    1    3    3    0    0  0.24128591697E+02  0.37215226507E+02  0.10483676831E+02  0.45575000533E+02  0.10570000000E+00 0. -1.
<mgrwt>
<rscale>  0 0.89583864E+02</rscale>
<asrwt>0</asrwt>
<pdfrwt beam="1">  1        3 0.10024650E-01 0.89583864E+02</pdfrwt>
<pdfrwt beam="2">  1       -3 0.47370030E-02 0.89583864E+02</pdfrwt>
<totfact> 0.36689174E+04</totfact>
</mgrwt>
</event>
<event>
 5    1  0.1401471E+000  0.8895528E+02  0.7818608E-02  0.1305402E+00
         -3   -1    0    0    0  501 -0.00000000000E+00  0.00000000000E+00  0.14848593275E+02  0.14848884512E+02  0.93000000000E-01 0.  1.
          3   -1    0    0  501    0  0.00000000000E+00 -0.00000000000E+00 -0.13322721047E+03  0.13322724293E+03  0.93000000000E-01 0. -1.
         23    2    1    2    0    0  0.00000000000E+00  0.00000000000E+00 -0.11837861720E+03  0.14807612745E+03  0.88955283763E+02 0.  0.
        -13    1    3    3    0    0  0.40226687575E+02 -0.17117574363E+02 -0.45558606513E+02  0.63141076529E+02  0.10570000000E+00 0.  1.
         13    1    3    3    0    0 -0.40226687575E+02  0.17117574363E+02 -0.72820010687E+02  0.84935050917E+02  0.10570000000E+00 0. -1.
<mgrwt>
<rscale>  0 0.88955284E+02</rscale>
<asrwt>0</asrwt>
<pdfrwt beam="2">  1        3 0.20496518E-01 0.88955284E+02</pdfrwt>
<pdfrwt beam="1">  1       -3 0.22844239E-02 0.88955284E+02</pdfrwt>
<totfact> 0.33589895E+04</totfact>
</mgrwt>
</event>
<event>
 5    1  0.1401471E+000  0.9146671E+02  0.7818608E-02  0.1299338E+00
          3   -1    0    0  501    0  0.00000000000E+00  0.00000000000E+00  0.16914667172E+03  0.16914669729E+03  0.93000000000E-01 0.  1.
         -3   -1    0    0    0  501 -0.00000000000E+00 -0.00000000000E+00 -0.12365042078E+02  0.12365391809E+02  0.93000000000E-01 0. -1.
         23    2    1    2    0    0  0.00000000000E+00  0.00000000000E+00  0.15678162964E+03  0.18151208909E+03  0.91466710310E+02 0.  0.
        -13    1    3    3    0    0 -0.71055904438E+01  0.39108989594E+02  0.12327324899E+03  0.12952338620E+03  0.10570000000E+00 0.  1.
         13    1    3    3    0    0  0.71055904438E+01 -0.39108989594E+02  0.33508380646E+02  0.51988702895E+02  0.10570000000E+00 0. -1.
<mgrwt>
<rscale>  0 0.91466710E+02</rscale>
<asrwt>0</asrwt>
<pdfrwt beam="1">  1        3 0.26022592E-01 0.91466710E+02</pdfrwt>
<pdfrwt beam="2">  1       -3 0.19023431E-02 0.91466710E+02</pdfrwt>
<totfact> 0.29230848E+04</totfact>
</mgrwt>
</event>
<event>
 5    1  0.1401471E+000  0.8916904E+02  0.7818608E-02  0.1304877E+00
         -3   -1    0    0    0  501 -0.00000000000E+00  0.00000000000E+00  0.42488568619E+02  0.42488670399E+02  0.93000000000E-01 0.  1.
          3   -1    0    0  501    0  0.00000000000E+00 -0.00000000000E+00 -0.46783657475E+02  0.46783749911E+02  0.93000000000E-01 0. -1.
         23    2    1    2    0    0  0.00000000000E+00  0.00000000000E+00 -0.42950888569E+01  0.89272420310E+02  0.89169037450E+02 0.  0.
        -13    1    3    3    0    0  0.33598276028E+02  0.21078639864E+02  0.18238158793E+02  0.43655409966E+02  0.10570000000E+00 0.  1.
         13    1    3    3    0    0 -0.33598276028E+02 -0.21078639864E+02 -0.22533247650E+02  0.45617010344E+02  0.10570000000E+00 0. -1.
<mgrwt>
<rscale>  0 0.89169037E+02</rscale>
<asrwt>0</asrwt>
<pdfrwt beam="2">  1        3 0.71975007E-02 0.89169037E+02</pdfrwt>
<pdfrwt beam="1">  1       -3 0.65367178E-02 0.89169037E+02</pdfrwt>
<totfact> 0.37699638E+04</totfact>
</mgrwt>
</event>
<event>
 5    1  0.1401471E+000  0.8805910E+02  0.7818608E-02  0.1307621E+00
          3   -1    0    0  501    0  0.00000000000E+00  0.00000000000E+00  0.19059745120E+02  0.19059972011E+02  0.93000000000E-01 0. -1.
         -3   -1    0    0    0  501 -0.00000000000E+00 -0.00000000000E+00 -0.10171095030E+03  0.10171099282E+03  0.93000000000E-01 0.  1.
         23    2    1    2    0    0  0.00000000000E+00  0.00000000000E+00 -0.82651205178E+02  0.12077096483E+03  0.88059095088E+02 0.  0.
        -13    1    3    3    0    0 -0.38495747830E+02 -0.60357984566E+01 -0.13210792010E+02  0.41144740393E+02  0.10570000000E+00 0. -1.
         13    1    3    3    0    0  0.38495747830E+02  0.60357984566E+01 -0.69440413168E+02  0.79626224433E+02  0.10570000000E+00 0.  1.
<mgrwt>
<rscale>  0 0.88059095E+02</rscale>
<asrwt>0</asrwt>
<pdfrwt beam="1">  1        3 0.29322893E-02 0.88059095E+02</pdfrwt>
<pdfrwt beam="2">  1       -3 0.15647859E-01 0.88059095E+02</pdfrwt>
<totfact> 0.36472828E+04</totfact>
</mgrwt>
</event>
<event>
 5    1  0.1401471E+000  0.9244202E+02  0.7818608E-02  0.1297043E+00
         -3   -1    0    0    0  501 -0.00000000000E+00  0.00000000000E+00  0.26276779393E+02  0.26276943967E+02  0.93000000000E-01 0.  1.
          3   -1    0    0  501    0  0.00000000000E+00 -0.00000000000E+00 -0.81302575334E+02  0.81302628525E+02  0.93000000000E-01 0. -1.
         23    2    1    2    0    0  0.00000000000E+00  0.00000000000E+00 -0.55025795942E+02  0.10757957249E+03  0.92442015332E+02 0.  0.
        -13    1    3    3    0    0 -0.42139522314E+02  0.13048743110E+02 -0.43569357363E+02  0.62002492781E+02  0.10570000000E+00 0. -1.
         13    1    3    3    0    0  0.42139522314E+02 -0.13048743110E+02 -0.11456438579E+02  0.45577079711E+02  0.10570000000E+00 0.  1.
<mgrwt>
<rscale>  0 0.92442015E+02</rscale>
<asrwt>0</asrwt>
<pdfrwt beam="2">  1        3 0.12508105E-01 0.92442015E+02</pdfrwt>
<pdfrwt beam="1">  1       -3 0.40425982E-02 0.92442015E+02</pdfrwt>
<totfact> 0.32860204E+04</totfact>
</mgrwt>
</event>
<event>
 5    1  0.1401471E+000  0.9350183E+02  0.7818608E-02  0.1294586E+00
         -3   -1    0    0    0  501 -0.00000000000E+00  0.00000000000E+00  0.15943083347E+03  0.15943086060E+03  0.93000000000E-01 0. -1.
          3   -1    0    0  501    0  0.00000000000E+00 -0.00000000000E+00 -0.13708882532E+02  0.13709197981E+02  0.93000000000E-01 0.  1.
         23    2    1    2    0    0  0.00000000000E+00  0.00000000000E+00  0.14572195094E+03  0.17314005858E+03  0.93501833663E+02 0.  0.
        -13    1    3    3    0    0 -0.28879218169E+02 -0.11575482465E+02  0.82455549776E+01  0.32186975405E+02  0.10570000000E+00 0.  1.
         13    1    3    3    0    0  0.28879218169E+02  0.11575482465E+02  0.13747639596E+03  0.14095308317E+03  0.10570000000E+00 0. -1.
<mgrwt>
<rscale>  0 0.93501834E+02</rscale>
<asrwt>0</asrwt>
<pdfrwt beam="2">  1        3 0.21090851E-02 0.93501834E+02</pdfrwt>
<pdfrwt beam="1">  1       -3 0.24527848E-01 0.93501834E+02</pdfrwt>
<totfact> 0.27972375E+04</totfact>
</mgrwt>
</event>
<event>
 5    1  0.1401471E+000  0.9012895E+02  0.7818608E-02  0.1302540E+00
         -3   -1    0    0    0  501 -0.00000000000E+00  0.00000000000E+00  0.22594492291E+02  0.22594683687E+02  0.93000000000E-01 0.  1.
          3   -1    0    0  501    0  0.00000000000E+00 -0.00000000000E+00 -0.89880021890E+02  0.89880070004E+02  0.93000000000E-01 0. -1.
         23    2    1    2    0    0  0.00000000000E+00  0.00000000000E+00 -0.67285529599E+02  0.11247475369E+03  0.90128950534E+02 0.  0.
        -13    1    3    3    0    0 -0.71197438233E+01 -0.34079555991E+02  0.20639734337E+01  0.34876611754E+02  0.10570000000E+00 0.  1.
         13    1    3    3    0    0  0.71197438233E+01  0.34079555991E+02 -0.69349503032E+02  0.77598141936E+02  0.10570000000E+00 0. -1.
<mgrwt>
<rscale>  0 0.90128951E+02</rscale>
<asrwt>0</asrwt>
<pdfrwt beam="2">  1        3 0.13827714E-01 0.90128951E+02</pdfrwt>
<pdfrwt beam="1">  1       -3 0.34760942E-02 0.90128951E+02</pdfrwt>
<totfact> 0.34844648E+04</totfact>
</mgrwt>
</event>
<event>
 5    1  0.1401471E+000  0.9009813E+02  0.7818608E-02  0.1302614E+00
          3   -1    0    0  501    0  0.00000000000E+00  0.00000000000E+00  0.12455092641E+02  0.12455439844E+02  0.93000000000E-01 0. -1.
         -3   -1    0    0    0  501 -0.00000000000E+00 -0.00000000000E+00 -0.16293618808E+03  0.16293621462E+03  0.93000000000E-01 0.  1.
         23    2    1    2    0    0  0.00000000000E+00  0.00000000000E+00 -0.15048109544E+03  0.17539165446E+03  0.90098126348E+02 0.  0.
        -13    1    3    3    0    0 -0.42414614579E+02  0.63455025228E+01 -0.10208361751E+03  0.11072642443E+03  0.10570000000E+00 0.  1.
         13    1    3    3    0    0  0.42414614579E+02 -0.63455025228E+01 -0.48397477928E+02  0.64665230027E+02  0.10570000000E+00 0. -1.
<mgrwt>
<rscale>  0 0.90098126E+02</rscale>
<asrwt>0</asrwt>
<pdfrwt beam="1">  1        3 0.19161970E-02 0.90098126E+02</pdfrwt>
<pdfrwt beam="2">  1       -3 0.25067133E-01 0.90098126E+02</pdfrwt>
<totfact> 0.30794933E+04</totfact>
</mgrwt>
</event>
<event>
 5    1  0.1401471E+000  0.9149967E+02  0.7818608E-02  0.1299260E+00
         -3   -1    0    0    0  501 -0.00000000000E+00  0.00000000000E+00  0.11331683044E+02  0.11332064666E+02  0.93000000000E-01 0.  1.
          3   -1    0    0  501    0  0.00000000000E+00 -0.00000000000E+00 -0.18470404228E+03  0.18470406569E+03  0.93000000000E-01 0. -1.
         23    2    1    2    0    0  0.00000000000E+00  0.00000000000E+00 -0.17337235923E+03  0.19603613036E+03  0.91499669174E+02 0.  0.
        -13    1    3    3    0    0  0.19708431386E+02  0.40819455386E+02 -0.99960214393E+02  0.10975748649E+03  0.10570000000E+00 0.  1.
         13    1    3    3    0    0 -0.19708431386E+02 -0.40819455386E+02 -0.73412144839E+02  0.86278643870E+02  0.10570000000E+00 0. -1.
<mgrwt>
<rscale>  0 0.91499669E+02</rscale>
<asrwt>0</asrwt>
<pdfrwt beam="2">  1        3 0.28416035E-01 0.91499669E+02</pdfrwt>
<pdfrwt beam="1">  1       -3 0.17433671E-02 0.91499669E+02</pdfrwt>
<totfact> 0.28431837E+04</totfact>
</mgrwt>
</event>
<event>
 5    1  0.1401471E+000  0.9132500E+02  0.7818608E-02  0.1299674E+00
         -3   -1    0    0    0  501 -0.00000000000E+00  0.00000000000E+00  0.37302315030E+03  0.37302316190E+03  0.93000000000E-01 0.  1.
          3   -1    0    0  501    0  0.00000000000E+00 -0.00000000000E+00 -0.55892378748E+01  0.55900115403E+01  0.93000000000E-01 0. -1.
         23    2    1    2    0    0  0.00000000000E+00  0.00000000000E+00  0.36743391243E+03  0.37861317344E+03  0.91324997111E+02 0.  0.
        -13    1    3    3    0    0  0.55044048286E+01  0.42668812748E+02  0.24715231265E+03  0.25086889579E+03  0.10570000000E+00 0. -1.
         13    1    3    3    0    0 -0.55044048286E+01 -0.42668812748E+02  0.12028159978E+03  0.12774427764E+03  0.10570000000E+00 0.  1.
<mgrwt>
<rscale>  0 0.91324997E+02</rscale>
<asrwt>0</asrwt>
<pdfrwt beam="2">  1        3 0.85994312E-03 0.91324997E+02</pdfrwt>
<pdfrwt beam="1">  1       -3 0.57388240E-01 0.91324997E+02</pdfrwt>
<totfact> 0.21171369E+04</totfact>
</mgrwt>
</event>
<event>
 5    1  0.1401471E+000  0.9181170E+02  0.7818608E-02  0.1298523E+00
         -3   -1    0    0    0  501 -0.00000000000E+00  0.00000000000E+00  0.13168609336E+03  0.13168612620E+03  0.93000000000E-01 0.  1.
          3   -1    0    0  501    0  0.00000000000E+00 -0.00000000000E+00 -0.16002636916E+02  0.16002907151E+02  0.93000000000E-01 0. -1.
         23    2    1    2    0    0  0.00000000000E+00  0.00000000000E+00  0.11568345645E+03  0.14768903335E+03  0.91811701201E+02 0.  0.
        -13    1    3    3    0    0 -0.39172030370E+02 -0.11529251135E+02  0.91582806542E+02  0.10027359185E+03  0.10570000000E+00 0.  1.
         13    1    3    3    0    0  0.39172030370E+02  0.11529251135E+02  0.24100649906E+02  0.47415441508E+02  0.10570000000E+00 0. -1.
<mgrwt>
<rscale>  0 0.91811701E+02</rscale>
<asrwt>0</asrwt>
<pdfrwt beam="2">  1        3 0.24619675E-02 0.91811701E+02</pdfrwt>
<pdfrwt beam="1">  1       -3 0.20259422E-01 0.91811701E+02</pdfrwt>
<totfact> 0.30863418E+04</totfact>
</mgrwt>
</event>
<event>
 5    1  0.1401471E+000  0.8415097E+02  0.7818608E-02  0.1317668E+00
         -3   -1    0    0    0  501 -0.00000000000E+00  0.00000000000E+00  0.67000523400E+02  0.67000587944E+02  0.93000000000E-01 0.  1.
          3   -1    0    0  501    0  0.00000000000E+00 -0.00000000000E+00 -0.26422714550E+02  0.26422878215E+02  0.93000000000E-01 0. -1.
         23    2    1    2    0    0  0.00000000000E+00  0.00000000000E+00  0.40577808850E+02  0.93423466159E+02  0.84150968254E+02 0.  0.
        -13    1    3    3    0    0 -0.25811408338E+02 -0.32488878842E+02  0.12551028097E+02  0.43350842294E+02  0.10570000000E+00 0. -1.
         13    1    3    3    0    0  0.25811408338E+02  0.32488878842E+02  0.28026780753E+02  0.50072623865E+02  0.10570000000E+00 0.  1.
<mgrwt>
<rscale>  0 0.84150968E+02</rscale>
<asrwt>0</asrwt>
<pdfrwt beam="2">  1        3 0.40650507E-02 0.84150968E+02</pdfrwt>
<pdfrwt beam="1">  1       -3 0.10307790E-01 0.84150968E+02</pdfrwt>
<totfact> 0.43693609E+04</totfact>
</mgrwt>
</event>
<event>
 5    1  0.1401471E+000  0.7059104E+02  0.7818608E-02  0.1358095E+00
         -3   -1    0    0    0  501 -0.00000000000E+00  0.00000000000E+00  0.31438838177E+02  0.31438975729E+02  0.93000000000E-01 0.  1.
          3   -1    0    0  501    0  0.00000000000E+00 -0.00000000000E+00 -0.39625033015E+02  0.39625142151E+02  0.93000000000E-01 0. -1.
         23    2    1    2    0    0  0.00000000000E+00  0.00000000000E+00 -0.81861948386E+01  0.71064117880E+02  0.70591040962E+02 0.  0.
        -13    1    3    3    0    0  0.24330889697E+02 -0.22087372434E+02 -0.17060351824E+02  0.37025815202E+02  0.10570000000E+00 0. -1.
         13    1    3    3    0    0 -0.24330889697E+02  0.22087372434E+02  0.88741569856E+01  0.34038302678E+02  0.10570000000E+00 0.  1.
<mgrwt>
<rscale>  0 0.70591041E+02</rscale>
<asrwt>0</asrwt>
<pdfrwt beam="2">  1        3 0.60961779E-02 0.70591041E+02</pdfrwt>
<pdfrwt beam="1">  1       -3 0.48367633E-02 0.70591041E+02</pdfrwt>
<totfact> 0.73498552E+04</totfact>
</mgrwt>
</event>
<event>
 5    1  0.1401471E+000  0.8986600E+02  0.7818608E-02  0.1303177E+00
          3   -1    0    0  501    0  0.00000000000E+00  0.00000000000E+00  0.32150449613E+02  0.32150584121E+02  0.93000000000E-01 0.  1.
         -3   -1    0    0    0  501 -0.00000000000E+00 -0.00000000000E+00 -0.62797411056E+02  0.62797479920E+02  0.93000000000E-01 0. -1.
         23    2    1    2    0    0  0.00000000000E+00  0.00000000000E+00 -0.30646961443E+02  0.94948064042E+02  0.89866003692E+02 0.  0.
        -13    1    3    3    0    0  0.91806325387E+01  0.36203463379E+02  0.11068929330E+02  0.38955194050E+02  0.10570000000E+00 0.  1.
         13    1    3    3    0    0 -0.91806325387E+01 -0.36203463379E+02 -0.41715890773E+02  0.55992869992E+02  0.10570000000E+00 0. -1.
<mgrwt>
<rscale>  0 0.89866004E+02</rscale>
<asrwt>0</asrwt>
<pdfrwt beam="1">  1        3 0.49462387E-02 0.89866004E+02</pdfrwt>
<pdfrwt beam="2">  1       -3 0.96611558E-02 0.89866004E+02</pdfrwt>
<totfact> 0.36457828E+04</totfact>
</mgrwt>
</event>
<event>
 5    1  0.1401471E+000  0.9098550E+02  0.7818608E-02  0.1300483E+00
         -3   -1    0    0    0  501 -0.00000000000E+00  0.00000000000E+00  0.44458236392E+02  0.44458333663E+02  0.93000000000E-01 0.  1.
          3   -1    0    0  501    0  0.00000000000E+00 -0.00000000000E+00 -0.46551143126E+02  0.46551236024E+02  0.93000000000E-01 0. -1.
         23    2    1    2    0    0  0.00000000000E+00  0.00000000000E+00 -0.20929067343E+01  0.91009569687E+02  0.90985501680E+02 0.  0.
        -13    1    3    3    0    0  0.25933973931E+02 -0.57776940790E+01 -0.37983534705E+02  0.46354210531E+02  0.10570000000E+00 0. -1.
         13    1    3    3    0    0 -0.25933973931E+02  0.57776940790E+01  0.35890627971E+02  0.44655359156E+02  0.10570000000E+00 0.  1.
<mgrwt>
<rscale>  0 0.90985502E+02</rscale>
<asrwt>0</asrwt>
<pdfrwt beam="2">  1        3 0.71617289E-02 0.90985502E+02</pdfrwt>
<pdfrwt beam="1">  1       -3 0.68397433E-02 0.90985502E+02</pdfrwt>
<totfact> 0.35554520E+04</totfact>
</mgrwt>
</event>
<event>
 5    1  0.1401471E+000  0.9287588E+02  0.7818608E-02  0.1296033E+00
          3   -1    0    0  501    0  0.00000000000E+00  0.00000000000E+00  0.67014649360E+02  0.67014713891E+02  0.93000000000E-01 0. -1.
         -3   -1    0    0    0  501 -0.00000000000E+00 -0.00000000000E+00 -0.32179116688E+02  0.32179251077E+02  0.93000000000E-01 0.  1.
         23    2    1    2    0    0  0.00000000000E+00  0.00000000000E+00  0.34835532672E+02  0.99193964967E+02  0.92875876036E+02 0.  0.
        -13    1    3    3    0    0 -0.45252175239E+02 -0.10415695060E+02  0.16911328297E+02  0.49419128530E+02  0.10570000000E+00 0.  1.
         13    1    3    3    0    0  0.45252175239E+02  0.10415695060E+02  0.17924204375E+02  0.49774836437E+02  0.10570000000E+00 0. -1.
<mgrwt>
<rscale>  0 0.92875876E+02</rscale>
<asrwt>0</asrwt>
<pdfrwt beam="1">  1        3 0.10309961E-01 0.92875876E+02</pdfrwt>
<pdfrwt beam="2">  1       -3 0.49506486E-02 0.92875876E+02</pdfrwt>
<totfact> 0.33024051E+04</totfact>
</mgrwt>
</event>
<event>
 5    1  0.1401471E+000  0.9136032E+02  0.7818608E-02  0.1299591E+00
          3   -1    0    0  501    0  0.00000000000E+00  0.00000000000E+00  0.33012475094E+02  0.33012606090E+02  0.93000000000E-01 0. -1.
         -3   -1    0    0    0  501 -0.00000000000E+00 -0.00000000000E+00 -0.63208457996E+02  0.63208526413E+02  0.93000000000E-01 0.  1.
         23    2    1    2    0    0  0.00000000000E+00  0.00000000000E+00 -0.30195982902E+02  0.96221132503E+02  0.91360324850E+02 0.  0.
        -13    1    3    3    0    0 -0.60135951729E+01 -0.26553622866E+02 -0.53729334596E+02  0.60233801000E+02  0.10570000000E+00 0.  1.
         13    1    3    3    0    0  0.60135951729E+01  0.26553622866E+02  0.23533351695E+02  0.35987331503E+02  0.10570000000E+00 0. -1.
<mgrwt>
<rscale>  0 0.91360325E+02</rscale>
<asrwt>0</asrwt>
<pdfrwt beam="1">  1        3 0.50788577E-02 0.91360325E+02</pdfrwt>
<pdfrwt beam="2">  1       -3 0.97243935E-02 0.91360325E+02</pdfrwt>
<totfact> 0.34763654E+04</totfact>
</mgrwt>
</event>
<event>
 5    1  0.1401471E+000  0.9212790E+02  0.7818608E-02  0.1297779E+00
         -3   -1    0    0    0  501 -0.00000000000E+00  0.00000000000E+00  0.35581344989E+02  0.35581466527E+02  0.93000000000E-01 0.  1.
          3   -1    0    0  501    0  0.00000000000E+00 -0.00000000000E+00 -0.59634573560E+02  0.59634646077E+02  0.93000000000E-01 0. -1.
         23    2    1    2    0    0  0.00000000000E+00  0.00000000000E+00 -0.24053228571E+02  0.95216112604E+02  0.92127901825E+02 0.  0.
        -13    1    3    3    0    0  0.14550385670E+02 -0.40445864444E+02  0.50903993216E+01  0.43284004107E+02  0.10570000000E+00 0.  1.
         13    1    3    3    0    0 -0.14550385670E+02  0.40445864444E+02 -0.29143627893E+02  0.51932108498E+02  0.10570000000E+00 0. -1.
<mgrwt>
<rscale>  0 0.92127902E+02</rscale>
<asrwt>0</asrwt>
<pdfrwt beam="2">  1        3 0.91745647E-02 0.92127902E+02</pdfrwt>
<pdfrwt beam="1">  1       -3 0.54740680E-02 0.92127902E+02</pdfrwt>
<totfact> 0.34052018E+04</totfact>
</mgrwt>
</event>
<event>
 4    1  0.1401471E+000  0.3959509E+02  0.7818608E-02  0.1511212E+00
         -3   -1    0    0    0  501 -0.00000000000E+00  0.00000000000E+00  0.17170055557E+02  0.17170307418E+02  0.93000000000E-01 0.  1.
          3   -1    0    0  501    0  0.00000000000E+00 -0.00000000000E+00 -0.22826601373E+02  0.22826790822E+02  0.93000000000E-01 0. -1.
        -13    1    1    2    0    0  0.10733551186E+02 -0.98072162957E+01 -0.16401249776E+02  0.21918092509E+02  0.10570000000E+00 0. -1.
         13    1    1    2    0    0 -0.10733551186E+02  0.98072162957E+01  0.10744703960E+02  0.18079005731E+02  0.10570000000E+00 0.  1.
<mgrwt>
<rscale>  0 0.39595093E+02</rscale>
<asrwt>0</asrwt>
<pdfrwt beam="2">  1        3 0.35118188E-02 0.39595093E+02</pdfrwt>
<pdfrwt beam="1">  1       -3 0.26415810E-02 0.39595093E+02</pdfrwt>
<totfact> 0.34705025E+05</totfact>
</mgrwt>
</event>
<event>
 5    1  0.1401471E+000  0.9102841E+02  0.7818608E-02  0.1300380E+00
          3   -1    0    0  501    0  0.00000000000E+00  0.00000000000E+00  0.17657707081E+03  0.17657709531E+03  0.93000000000E-01 0. -1.
         -3   -1    0    0    0  501 -0.00000000000E+00 -0.00000000000E+00 -0.11731455418E+02  0.11731824037E+02  0.93000000000E-01 0.  1.
         23    2    1    2    0    0  0.00000000000E+00  0.00000000000E+00  0.16484561540E+03  0.18830891934E+03  0.91028414181E+02 0.  0.
        -13    1    3    3    0    0 -0.33041187619E+02 -0.25237351329E+02  0.44116526731E+02  0.60621143874E+02  0.10570000000E+00 0.  1.
         13    1    3    3    0    0  0.33041187619E+02  0.25237351329E+02  0.12072908867E+03  0.12768777547E+03  0.10570000000E+00 0. -1.
<mgrwt>
<rscale>  0 0.91028414E+02</rscale>
<asrwt>0</asrwt>
<pdfrwt beam="1">  1        3 0.27165730E-01 0.91028414E+02</pdfrwt>
<pdfrwt beam="2">  1       -3 0.18048698E-02 0.91028414E+02</pdfrwt>
<totfact> 0.29243062E+04</totfact>
</mgrwt>
</event>
<event>
 5    1  0.1401471E+000  0.9142007E+02  0.7818608E-02  0.1299449E+00
         -3   -1    0    0    0  501 -0.00000000000E+00  0.00000000000E+00  0.28047293435E+03  0.28047294977E+03  0.93000000000E-01 0.  1.
          3   -1    0    0  501    0  0.00000000000E+00 -0.00000000000E+00 -0.74492807756E+01  0.74498612788E+01  0.93000000000E-01 0. -1.
         23    2    1    2    0    0  0.00000000000E+00  0.00000000000E+00  0.27302365357E+03  0.28792281105E+03  0.91420072797E+02 0.  0.
        -13    1    3    3    0    0 -0.44781119133E+02  0.91503933174E+01  0.13473601137E+03  0.14227748332E+03  0.10570000000E+00 0. -1.
         13    1    3    3    0    0  0.44781119133E+02 -0.91503933174E+01  0.13828764220E+03  0.14564532772E+03  0.10570000000E+00 0.  1.
<mgrwt>
<rscale>  0 0.91420073E+02</rscale>
<asrwt>0</asrwt>
<pdfrwt beam="2">  1        3 0.11460891E-02 0.91420073E+02</pdfrwt>
<pdfrwt beam="1">  1       -3 0.43149727E-01 0.91420073E+02</pdfrwt>
<totfact> 0.24324303E+04</totfact>
</mgrwt>
</event>
<event>
 5    1  0.1401471E+000  0.9561623E+02  0.7818608E-02  0.1289794E+00
         -3   -1    0    0    0  501 -0.00000000000E+00  0.00000000000E+00  0.15491978893E+02  0.15492258035E+02  0.93000000000E-01 0.  1.
          3   -1    0    0  501    0  0.00000000000E+00 -0.00000000000E+00 -0.14753381830E+03  0.14753384761E+03  0.93000000000E-01 0. -1.
         23    2    1    2    0    0  0.00000000000E+00  0.00000000000E+00 -0.13204183941E+03  0.16302610564E+03  0.95616231718E+02 0.  0.
        -13    1    3    3    0    0  0.75824107677E+01  0.27865896391E+02 -0.13098144885E+03  0.13412737323E+03  0.10570000000E+00 0. -1.
         13    1    3    3    0    0 -0.75824107677E+01 -0.27865896391E+02 -0.10603905603E+01  0.28898732417E+02  0.10570000000E+00 0.  1.
<mgrwt>
<rscale>  0 0.95616232E+02</rscale>
<asrwt>0</asrwt>
<pdfrwt beam="2">  1        3 0.22697533E-01 0.95616232E+02</pdfrwt>
<pdfrwt beam="1">  1       -3 0.23834052E-02 0.95616232E+02</pdfrwt>
<totfact> 0.26829940E+04</totfact>
</mgrwt>
</event>
<event>
 5    1  0.1401471E+000  0.8896097E+02  0.7818608E-02  0.1305388E+00
         -3   -1    0    0    0  501 -0.00000000000E+00  0.00000000000E+00  0.38179236516E+02  0.38179349784E+02  0.93000000000E-01 0.  1.
          3   -1    0    0  501    0  0.00000000000E+00 -0.00000000000E+00 -0.51821486696E+02  0.51821570146E+02  0.93000000000E-01 0. -1.
         23    2    1    2    0    0  0.00000000000E+00  0.00000000000E+00 -0.13642250180E+02  0.90000919930E+02  0.88960972332E+02 0.  0.
        -13    1    3    3    0    0  0.19342187708E+01 -0.26313570650E+02  0.29407507918E+02  0.39508959705E+02  0.10570000000E+00 0.  1.
         13    1    3    3    0    0 -0.19342187708E+01  0.26313570650E+02 -0.43049758097E+02  0.50491960225E+02  0.10570000000E+00 0. -1.
<mgrwt>
<rscale>  0 0.88960972E+02</rscale>
<asrwt>0</asrwt>
<pdfrwt beam="2">  1        3 0.79725516E-02 0.88960972E+02</pdfrwt>
<pdfrwt beam="1">  1       -3 0.58737438E-02 0.88960972E+02</pdfrwt>
<totfact> 0.37878745E+04</totfact>
</mgrwt>
</event>
<event>
 5    1  0.1401471E+000  0.9111653E+02  0.7818608E-02  0.1300170E+00
         -3   -1    0    0    0  501 -0.00000000000E+00  0.00000000000E+00  0.13921369309E+03  0.13921372415E+03  0.93000000000E-01 0.  1.
          3   -1    0    0  501    0  0.00000000000E+00 -0.00000000000E+00 -0.14908956487E+02  0.14909246545E+02  0.93000000000E-01 0. -1.
         23    2    1    2    0    0  0.00000000000E+00  0.00000000000E+00  0.12430473660E+03  0.15412297070E+03  0.91116532829E+02 0.  0.
        -13    1    3    3    0    0 -0.23232859818E+02 -0.19540546811E+02  0.11961200508E+03  0.12340438273E+03  0.10570000000E+00 0.  1.
         13    1    3    3    0    0  0.23232859818E+02  0.19540546811E+02  0.46927315201E+01  0.30718587966E+02  0.10570000000E+00 0. -1.
<mgrwt>
<rscale>  0 0.91116533E+02</rscale>
<asrwt>0</asrwt>
<pdfrwt beam="2">  1        3 0.22937103E-02 0.91116533E+02</pdfrwt>
<pdfrwt beam="1">  1       -3 0.21417516E-01 0.91116533E+02</pdfrwt>
<totfact> 0.31113403E+04</totfact>
</mgrwt>
</event>
<event>
 5    1  0.1401471E+000  0.9198564E+02  0.7818608E-02  0.1298113E+00
         -3   -1    0    0    0  501 -0.00000000000E+00  0.00000000000E+00  0.86994177422E+02  0.86994227133E+02  0.93000000000E-01 0.  1.
          3   -1    0    0  501    0  0.00000000000E+00 -0.00000000000E+00 -0.24315727118E+02  0.24315904966E+02  0.93000000000E-01 0. -1.
         23    2    1    2    0    0  0.00000000000E+00  0.00000000000E+00  0.62678450304E+02  0.11131013210E+03  0.91985636788E+02 0.  0.
        -13    1    3    3    0    0  0.23969723013E+02  0.36557027756E+02  0.14040377862E+02  0.45914129445E+02  0.10570000000E+00 0.  1.
         13    1    3    3    0    0 -0.23969723013E+02 -0.36557027756E+02  0.48638072441E+02  0.65396002653E+02  0.10570000000E+00 0. -1.
<mgrwt>
<rscale>  0 0.91985637E+02</rscale>
<asrwt>0</asrwt>
<pdfrwt beam="2">  1        3 0.37408985E-02 0.91985637E+02</pdfrwt>
<pdfrwt beam="1">  1       -3 0.13383737E-01 0.91985637E+02</pdfrwt>
<totfact> 0.33048555E+04</totfact>
</mgrwt>
</event>
<event>
 5    1  0.1401471E+000  0.9356245E+02  0.7818608E-02  0.1294447E+00
          3   -1    0    0  501    0  0.00000000000E+00  0.00000000000E+00  0.17548290905E+03  0.17548293369E+03  0.93000000000E-01 0. -1.
         -3   -1    0    0    0  501 -0.00000000000E+00 -0.00000000000E+00 -0.12471005166E+02  0.12471351926E+02  0.93000000000E-01 0.  1.
         23    2    1    2    0    0  0.00000000000E+00  0.00000000000E+00  0.16301190388E+03  0.18795428562E+03  0.93562453338E+02 0.  0.
        -13    1    3    3    0    0  0.41021320482E+02  0.22410218270E+02  0.77744823791E+02  0.90715133334E+02  0.10570000000E+00 0. -1.
         13    1    3    3    0    0 -0.41021320482E+02 -0.22410218270E+02  0.85267080093E+02  0.97239152285E+02  0.10570000000E+00 0.  1.
<mgrwt>
<rscale>  0 0.93562453E+02</rscale>
<asrwt>0</asrwt>
<pdfrwt beam="1">  1        3 0.26997399E-01 0.93562453E+02</pdfrwt>
<pdfrwt beam="2">  1       -3 0.19186448E-02 0.93562453E+02</pdfrwt>
<totfact> 0.27165548E+04</totfact>
</mgrwt>
</event>
<event>
 5    1  0.1401471E+000  0.9144569E+02  0.7818608E-02  0.1299388E+00
          3   -1    0    0  501    0  0.00000000000E+00  0.00000000000E+00  0.94542304680E+02  0.94542350421E+02  0.93000000000E-01 0. -1.
         -3   -1    0    0    0  501 -0.00000000000E+00 -0.00000000000E+00 -0.22112474054E+02  0.22112669622E+02  0.93000000000E-01 0.  1.
         23    2    1    2    0    0  0.00000000000E+00  0.00000000000E+00  0.72429830626E+02  0.11665502004E+03  0.91445685173E+02 0.  0.
        -13    1    3    3    0    0  0.15458799433E+02 -0.41732394241E+02  0.22835520683E+02  0.50020389706E+02  0.10570000000E+00 0.  1.
         13    1    3    3    0    0 -0.15458799433E+02  0.41732394241E+02  0.49594309942E+02  0.66634630337E+02  0.10570000000E+00 0. -1.
<mgrwt>
<rscale>  0 0.91445685E+02</rscale>
<asrwt>0</asrwt>
<pdfrwt beam="1">  1        3 0.14544988E-01 0.91445685E+02</pdfrwt>
<pdfrwt beam="2">  1       -3 0.34019377E-02 0.91445685E+02</pdfrwt>
<totfact> 0.33209446E+04</totfact>
</mgrwt>
</event>
<event>
 5    1  0.1401471E+000  0.9169384E+02  0.7818608E-02  0.1298801E+00
          3   -1    0    0  501    0  0.00000000000E+00  0.00000000000E+00  0.14350709214E+02  0.14351010555E+02  0.93000000000E-01 0. -1.
         -3   -1    0    0    0  501 -0.00000000000E+00 -0.00000000000E+00 -0.14646756859E+03  0.14646759812E+03  0.93000000000E-01 0.  1.
         23    2    1    2    0    0  0.00000000000E+00  0.00000000000E+00 -0.13211685938E+03  0.16081860867E+03  0.91693840379E+02 0.  0.
        -13    1    3    3    0    0 -0.14560189429E+02 -0.41917049241E+02 -0.86276680117E+02  0.97019146759E+02  0.10570000000E+00 0.  1.
         13    1    3    3    0    0  0.14560189429E+02  0.41917049241E+02 -0.45840179261E+02  0.63799461913E+02  0.10570000000E+00 0. -1.
<mgrwt>
<rscale>  0 0.91693840E+02</rscale>
<asrwt>0</asrwt>
<pdfrwt beam="1">  1        3 0.22078270E-02 0.91693840E+02</pdfrwt>
<pdfrwt beam="2">  1       -3 0.22533496E-01 0.91693840E+02</pdfrwt>
<totfact> 0.30192346E+04</totfact>
</mgrwt>
</event>
<event>
 5    1  0.1401471E+000  0.9064331E+02  0.7818608E-02  0.1301301E+00
         -3   -1    0    0    0  501 -0.00000000000E+00  0.00000000000E+00  0.74061720719E+02  0.74061779110E+02  0.93000000000E-01 0.  1.
          3   -1    0    0  501    0  0.00000000000E+00 -0.00000000000E+00 -0.27734184367E+02  0.27734340293E+02  0.93000000000E-01 0. -1.
         23    2    1    2    0    0  0.00000000000E+00  0.00000000000E+00  0.46327536352E+02  0.10179611940E+03  0.90643308088E+02 0.  0.
        -13    1    3    3    0    0 -0.26287358051E+02  0.33511520660E+02  0.57659168369E+01  0.42980276636E+02  0.10570000000E+00 0. -1.
         13    1    3    3    0    0  0.26287358051E+02 -0.33511520660E+02  0.40561619515E+02  0.58815842767E+02  0.10570000000E+00 0.  1.
<mgrwt>
<rscale>  0 0.90643308E+02</rscale>
<asrwt>0</asrwt>
<pdfrwt beam="2">  1        3 0.42668142E-02 0.90643308E+02</pdfrwt>
<pdfrwt beam="1">  1       -3 0.11394127E-01 0.90643308E+02</pdfrwt>
<totfact> 0.35095403E+04</totfact>
</mgrwt>
</event>
<event>
 5    1  0.1401471E+000  0.9059701E+02  0.7818608E-02  0.1301412E+00
         -3   -1    0    0    0  501 -0.00000000000E+00  0.00000000000E+00  0.17904053319E+02  0.17904294854E+02  0.93000000000E-01 0. -1.
          3   -1    0    0  501    0  0.00000000000E+00 -0.00000000000E+00 -0.11460735469E+03  0.11460739242E+03  0.93000000000E-01 0.  1.
         23    2    1    2    0    0  0.00000000000E+00  0.00000000000E+00 -0.96703301368E+02  0.13251168727E+03  0.90597013023E+02 0.  0.
        -13    1    3    3    0    0  0.20989265792E+02  0.69595113117E+00 -0.10705676377E+03  0.10909718359E+03  0.10570000000E+00 0.  1.
         13    1    3    3    0    0 -0.20989265792E+02 -0.69595113117E+00  0.10353462402E+02  0.23414503682E+02  0.10570000000E+00 0. -1.
<mgrwt>
<rscale>  0 0.90597013E+02</rscale>
<asrwt>0</asrwt>
<pdfrwt beam="2">  1        3 0.17631922E-01 0.90597013E+02</pdfrwt>
<pdfrwt beam="1">  1       -3 0.27544913E-02 0.90597013E+02</pdfrwt>
<totfact> 0.32976320E+04</totfact>
</mgrwt>
</event>
<event>
 5    1  0.1401471E+000  0.7753803E+02  0.7818608E-02  0.1336187E+00
         -3   -1    0    0    0  501 -0.00000000000E+00  0.00000000000E+00  0.28397851868E+02  0.28398004150E+02  0.93000000000E-01 0.  1.
          3   -1    0    0  501    0  0.00000000000E+00 -0.00000000000E+00 -0.52927495892E+02  0.52927577598E+02  0.93000000000E-01 0. -1.
         23    2    1    2    0    0  0.00000000000E+00  0.00000000000E+00 -0.24529644024E+02  0.81325581748E+02  0.77538034607E+02 0.  0.
        -13    1    3    3    0    0 -0.63633251593E+01 -0.18953051840E+02  0.22573901953E+02  0.30154639825E+02  0.10570000000E+00 0.  1.
         13    1    3    3    0    0  0.63633251593E+01  0.18953051840E+02 -0.47103545977E+02  0.51170941923E+02  0.10570000000E+00 0. -1.
<mgrwt>
<rscale>  0 0.77538035E+02</rscale>
<asrwt>0</asrwt>
<pdfrwt beam="2">  1        3 0.81427096E-02 0.77538035E+02</pdfrwt>
<pdfrwt beam="1">  1       -3 0.43689183E-02 0.77538035E+02</pdfrwt>
<totfact> 0.55925903E+04</totfact>
</mgrwt>
</event>
<event>
 5    1  0.1401471E+000  0.9178286E+02  0.7818608E-02  0.1298591E+00
         -3   -1    0    0    0  501 -0.00000000000E+00  0.00000000000E+00  0.71043819461E+02  0.71043880332E+02  0.93000000000E-01 0.  1.
          3   -1    0    0  501    0  0.00000000000E+00 -0.00000000000E+00 -0.29643860005E+02  0.29644005886E+02  0.93000000000E-01 0. -1.
         23    2    1    2    0    0  0.00000000000E+00  0.00000000000E+00  0.41399959456E+02  0.10068788622E+03  0.91782862170E+02 0.  0.
        -13    1    3    3    0    0  0.80954421686E+01  0.37460731779E+02  0.48391268761E+02  0.61729803775E+02  0.10570000000E+00 0.  1.
         13    1    3    3    0    0 -0.80954421686E+01 -0.37460731779E+02 -0.69913093045E+01  0.38958082443E+02  0.10570000000E+00 0. -1.
<mgrwt>
<rscale>  0 0.91782862E+02</rscale>
<asrwt>0</asrwt>
<pdfrwt beam="2">  1        3 0.45606097E-02 0.91782862E+02</pdfrwt>
<pdfrwt beam="1">  1       -3 0.10929834E-01 0.91782862E+02</pdfrwt>
<totfact> 0.34001514E+04</totfact>
</mgrwt>
</event>
<event>
 5    1  0.1401471E+000  0.9193122E+02  0.7818608E-02  0.1298241E+00
          3   -1    0    0  501    0  0.00000000000E+00  0.00000000000E+00  0.90994547592E+02  0.90994595117E+02  0.93000000000E-01 0. -1.
         -3   -1    0    0    0  501 -0.00000000000E+00 -0.00000000000E+00 -0.23219235548E+02  0.23219421794E+02  0.93000000000E-01 0.  1.
         23    2    1    2    0    0  0.00000000000E+00  0.00000000000E+00  0.67775312044E+02  0.11421401691E+03  0.91931217419E+02 0.  0.
        -13    1    3    3    0    0 -0.30747898482E+02 -0.16815661493E+02 -0.30642047436E+01  0.35179543143E+02  0.10570000000E+00 0.  1.
         13    1    3    3    0    0  0.30747898482E+02  0.16815661493E+02  0.70839516788E+02  0.79034473768E+02  0.10570000000E+00 0. -1.
<mgrwt>
<rscale>  0 0.91931217E+02</rscale>
<asrwt>0</asrwt>
<pdfrwt beam="1">  1        3 0.13999179E-01 0.91931217E+02</pdfrwt>
<pdfrwt beam="2">  1       -3 0.35722080E-02 0.91931217E+02</pdfrwt>
<totfact> 0.32900270E+04</totfact>
</mgrwt>
</event>
<event>
 5    1  0.1401471E+000  0.9119199E+02  0.7818608E-02  0.1299991E+00
          3   -1    0    0  501    0  0.00000000000E+00  0.00000000000E+00  0.85865954835E+02  0.85866005199E+02  0.93000000000E-01 0. -1.
         -3   -1    0    0    0  501 -0.00000000000E+00 -0.00000000000E+00 -0.24211950639E+02  0.24212129248E+02  0.93000000000E-01 0.  1.
         23    2    1    2    0    0  0.00000000000E+00  0.00000000000E+00  0.61654004197E+02  0.11007813445E+03  0.91191992246E+02 0.  0.
        -13    1    3    3    0    0 -0.41527704750E+02 -0.16579261910E+02  0.20059974018E+02  0.49008529026E+02  0.10570000000E+00 0. -1.
         13    1    3    3    0    0  0.41527704750E+02  0.16579261910E+02  0.41594030178E+02  0.61069605420E+02  0.10570000000E+00 0.  1.
<mgrwt>
<rscale>  0 0.91191992E+02</rscale>
<asrwt>0</asrwt>
<pdfrwt beam="1">  1        3 0.13210164E-01 0.91191992E+02</pdfrwt>
<pdfrwt beam="2">  1       -3 0.37249332E-02 0.91191992E+02</pdfrwt>
<totfact> 0.33923809E+04</totfact>
</mgrwt>
</event>
<event>
 5    1  0.1401471E+000  0.9220471E+02  0.7818608E-02  0.1297599E+00
         -3   -1    0    0    0  501 -0.00000000000E+00  0.00000000000E+00  0.22840431520E+02  0.22840620855E+02  0.93000000000E-01 0.  1.
          3   -1    0    0  501    0  0.00000000000E+00 -0.00000000000E+00 -0.93054867972E+02  0.93054914445E+02  0.93000000000E-01 0. -1.
         23    2    1    2    0    0  0.00000000000E+00  0.00000000000E+00 -0.70214436452E+02  0.11589553530E+03  0.92204707126E+02 0.  0.
        -13    1    3    3    0    0  0.22410111371E+02 -0.72363820009E+01 -0.84924410340E+02  0.88129137975E+02  0.10570000000E+00 0. -1.
         13    1    3    3    0    0 -0.22410111371E+02  0.72363820009E+01  0.14709973888E+02  0.27766397325E+02  0.10570000000E+00 0.  1.
<mgrwt>
<rscale>  0 0.92204707E+02</rscale>
<asrwt>0</asrwt>
<pdfrwt beam="2">  1        3 0.14316151E-01 0.92204707E+02</pdfrwt>
<pdfrwt beam="1">  1       -3 0.35139307E-02 0.92204707E+02</pdfrwt>
<totfact> 0.32521343E+04</totfact>
</mgrwt>
</event>
<event>
 5    1  0.1401471E+000  0.9114105E+02  0.7818608E-02  0.1300112E+00
         -3   -1    0    0    0  501 -0.00000000000E+00  0.00000000000E+00  0.24576626683E+03  0.24576628443E+03  0.93000000000E-01 0.  1.
          3   -1    0    0  501    0  0.00000000000E+00 -0.00000000000E+00 -0.84495131306E+01  0.84500249197E+01  0.93000000000E-01 0. -1.
         23    2    1    2    0    0  0.00000000000E+00  0.00000000000E+00  0.23731675370E+03  0.25421630935E+03  0.91141046466E+02 0.  0.
        -13    1    3    3    0    0  0.30699918293E+02 -0.28140377450E+02  0.17026317100E+03  0.17528241326E+03  0.10570000000E+00 0.  1.
         13    1    3    3    0    0 -0.30699918293E+02  0.28140377450E+02  0.67053582699E+02  0.78933896087E+02  0.10570000000E+00 0. -1.
<mgrwt>
<rscale>  0 0.91141046E+02</rscale>
<asrwt>0</asrwt>
<pdfrwt beam="2">  1        3 0.12999658E-02 0.91141046E+02</pdfrwt>
<pdfrwt beam="1">  1       -3 0.37810236E-01 0.91141046E+02</pdfrwt>
<totfact> 0.25940498E+04</totfact>
</mgrwt>
</event>
<event>
 5    1  0.1401471E+000  0.9148272E+02  0.7818608E-02  0.1299300E+00
          3   -1    0    0  501    0  0.00000000000E+00  0.00000000000E+00  0.19461692385E+02  0.19461914589E+02  0.93000000000E-01 0. -1.
         -3   -1    0    0    0  501 -0.00000000000E+00 -0.00000000000E+00 -0.10750635046E+03  0.10750639069E+03  0.93000000000E-01 0.  1.
         23    2    1    2    0    0  0.00000000000E+00  0.00000000000E+00 -0.88044658079E+02  0.12696830528E+03  0.91482723664E+02 0.  0.
        -13    1    3    3    0    0  0.34679992283E+02 -0.29794353870E+02 -0.45912935117E+02  0.64795170891E+02  0.10570000000E+00 0.  1.
         13    1    3    3    0    0 -0.34679992283E+02  0.29794353870E+02 -0.42131722962E+02  0.62173134387E+02  0.10570000000E+00 0. -1.
<mgrwt>
<rscale>  0 0.91482724E+02</rscale>
<asrwt>0</asrwt>
<pdfrwt beam="1">  1        3 0.29941268E-02 0.91482724E+02</pdfrwt>
<pdfrwt beam="2">  1       -3 0.16539458E-01 0.91482724E+02</pdfrwt>
<totfact> 0.32480885E+04</totfact>
</mgrwt>
</event>
<event>
 5    1  0.1401471E+000  0.9115467E+02  0.7818608E-02  0.1300079E+00
         -3   -1    0    0    0  501 -0.00000000000E+00  0.00000000000E+00  0.15853289114E+03  0.15853291841E+03  0.93000000000E-01 0.  1.
          3   -1    0    0  501    0  0.00000000000E+00 -0.00000000000E+00 -0.13103038950E+02  0.13103368984E+02  0.93000000000E-01 0. -1.
         23    2    1    2    0    0  0.00000000000E+00  0.00000000000E+00  0.14542985219E+03  0.17163628740E+03  0.91154666612E+02 0.  0.
        -13    1    3    3    0    0 -0.11182531594E+02  0.34289610371E+02  0.12518220718E+03  0.13027441252E+03  0.10570000000E+00 0.  1.
         13    1    3    3    0    0  0.11182531594E+02 -0.34289610371E+02  0.20247645009E+02  0.41361874875E+02  0.10570000000E+00 0. -1.
<mgrwt>
<rscale>  0 0.91154667E+02</rscale>
<asrwt>0</asrwt>
<pdfrwt beam="2">  1        3 0.20158797E-02 0.91154667E+02</pdfrwt>
<pdfrwt beam="1">  1       -3 0.24389702E-01 0.91154667E+02</pdfrwt>
<totfact> 0.30053587E+04</totfact>
</mgrwt>
</event>
<event>
 5    1  0.1401471E+000  0.9063590E+02  0.7818608E-02  0.1301319E+00
         -3   -1    0    0    0  501 -0.00000000000E+00  0.00000000000E+00  0.13459493093E+03  0.13459496306E+03  0.93000000000E-01 0.  1.
          3   -1    0    0  501    0  0.00000000000E+00 -0.00000000000E+00 -0.15258323757E+02  0.15258607174E+02  0.93000000000E-01 0. -1.
         23    2    1    2    0    0  0.00000000000E+00  0.00000000000E+00  0.11933660717E+03  0.14985357023E+03  0.90635901828E+02 0.  0.
        -13    1    3    3    0    0  0.29047087728E+02  0.64318757446E+01  0.31485363865E+01  0.29916998260E+02  0.10570000000E+00 0. -1.
         13    1    3    3    0    0 -0.29047087728E+02 -0.64318757446E+01  0.11618807079E+03  0.11993657197E+03  0.10570000000E+00 0.  1.
<mgrwt>
<rscale>  0 0.90635902E+02</rscale>
<asrwt>0</asrwt>
<pdfrwt beam="2">  1        3 0.23474585E-02 0.90635902E+02</pdfrwt>
<pdfrwt beam="1">  1       -3 0.20706938E-01 0.90635902E+02</pdfrwt>
<totfact> 0.31825224E+04</totfact>
</mgrwt>
</event>
<event>
 5    1  0.1401471E+000  0.7164343E+02  0.7818608E-02  0.1354592E+00
         -3   -1    0    0    0  501 -0.00000000000E+00  0.00000000000E+00  0.66123293202E+02  0.66123358602E+02  0.93000000000E-01 0.  1.
          3   -1    0    0  501    0  0.00000000000E+00 -0.00000000000E+00 -0.19405914193E+02  0.19406137036E+02  0.93000000000E-01 0. -1.
         23    2    1    2    0    0  0.00000000000E+00  0.00000000000E+00  0.46717379008E+02  0.85529495639E+02  0.71643430423E+02 0.  0.
        -13    1    3    3    0    0 -0.26394154973E+02 -0.11535613052E+02 -0.20633355714E+01  0.28878890411E+02  0.10570000000E+00 0. -1.
         13    1    3    3    0    0  0.26394154973E+02  0.11535613052E+02  0.48780714580E+02  0.56650605227E+02  0.10570000000E+00 0.  1.
<mgrwt>
<rscale>  0 0.71643430E+02</rscale>
<asrwt>0</asrwt>
<pdfrwt beam="2">  1        3 0.29855474E-02 0.71643430E+02</pdfrwt>
<pdfrwt beam="1">  1       -3 0.10172837E-01 0.71643430E+02</pdfrwt>
<totfact> 0.68337604E+04</totfact>
</mgrwt>
</event>
<event>
 5    1  0.1401471E+000  0.9163928E+02  0.7818608E-02  0.1298930E+00
         -3   -1    0    0    0  501 -0.00000000000E+00  0.00000000000E+00  0.74202332202E+02  0.74202390482E+02  0.93000000000E-01 0.  1.
          3   -1    0    0  501    0  0.00000000000E+00 -0.00000000000E+00 -0.28293293847E+02  0.28293446692E+02  0.93000000000E-01 0. -1.
         23    2    1    2    0    0  0.00000000000E+00  0.00000000000E+00  0.45909038355E+02  0.10249583717E+03  0.91639275615E+02 0.  0.
        -13    1    3    3    0    0  0.38751757981E+02 -0.23111417506E+02  0.14035343945E+02  0.47252919676E+02  0.10570000000E+00 0.  1.
         13    1    3    3    0    0 -0.38751757981E+02  0.23111417506E+02  0.31873694410E+02  0.55242917497E+02  0.10570000000E+00 0. -1.
<mgrwt>
<rscale>  0 0.91639276E+02</rscale>
<asrwt>0</asrwt>
<pdfrwt beam="2">  1        3 0.43528308E-02 0.91639276E+02</pdfrwt>
<pdfrwt beam="1">  1       -3 0.11415759E-01 0.91639276E+02</pdfrwt>
<totfact> 0.34016072E+04</totfact>
</mgrwt>
</event>
<event>
 5    1  0.1401471E+000  0.8984612E+02  0.7818608E-02  0.1303225E+00
          3   -1    0    0  501    0  0.00000000000E+00  0.00000000000E+00  0.20217656057E+02  0.20217869953E+02  0.93000000000E-01 0. -1.
         -3   -1    0    0    0  501 -0.00000000000E+00 -0.00000000000E+00 -0.99817009434E+02  0.99817052758E+02  0.93000000000E-01 0.  1.
         23    2    1    2    0    0  0.00000000000E+00  0.00000000000E+00 -0.79599353377E+02  0.12003492271E+03  0.89846121854E+02 0.  0.
        -13    1    3    3    0    0 -0.32718814977E+02 -0.23222442469E+02 -0.66794513650E+02  0.77918681418E+02  0.10570000000E+00 0.  1.
         13    1    3    3    0    0  0.32718814977E+02  0.23222442469E+02 -0.12804839727E+02  0.42116241293E+02  0.10570000000E+00 0. -1.
<mgrwt>
<rscale>  0 0.89846122E+02</rscale>
<asrwt>0</asrwt>
<pdfrwt beam="1">  1        3 0.31104285E-02 0.89846122E+02</pdfrwt>
<pdfrwt beam="2">  1       -3 0.15356483E-01 0.89846122E+02</pdfrwt>
<totfact> 0.34596947E+04</totfact>
</mgrwt>
</event>
<event>
 5    1  0.1401471E+000  0.9167056E+02  0.7818608E-02  0.1298856E+00
         -3   -1    0    0    0  501 -0.00000000000E+00  0.00000000000E+00  0.27207319944E+02  0.27207478890E+02  0.93000000000E-01 0.  1.
          3   -1    0    0  501    0  0.00000000000E+00 -0.00000000000E+00 -0.77216785811E+02  0.77216841815E+02  0.93000000000E-01 0. -1.
         23    2    1    2    0    0  0.00000000000E+00  0.00000000000E+00 -0.50009465867E+02  0.10442432071E+03  0.91670562769E+02 0.  0.
        -13    1    3    3    0    0  0.27251167566E+02  0.31442160285E+02 -0.31042759960E+01  0.41723893383E+02  0.10570000000E+00 0.  1.
         13    1    3    3    0    0 -0.27251167566E+02 -0.31442160285E+02 -0.46905189870E+02  0.62700427322E+02  0.10570000000E+00 0. -1.
<mgrwt>
<rscale>  0 0.91670563E+02</rscale>
<asrwt>0</asrwt>
<pdfrwt beam="2">  1        3 0.11879522E-01 0.91670563E+02</pdfrwt>
<pdfrwt beam="1">  1       -3 0.41857581E-02 0.91670563E+02</pdfrwt>
<totfact> 0.33844393E+04</totfact>
</mgrwt>
</event>
<event>
 5    1  0.1401471E+000  0.9321640E+02  0.7818608E-02  0.1295244E+00
         -3   -1    0    0    0  501 -0.00000000000E+00  0.00000000000E+00  0.11987467184E+03  0.11987470791E+03  0.93000000000E-01 0.  1.
          3   -1    0    0  501    0  0.00000000000E+00 -0.00000000000E+00 -0.18121468832E+02  0.18121707470E+02  0.93000000000E-01 0. -1.
         23    2    1    2    0    0  0.00000000000E+00  0.00000000000E+00  0.10175320300E+03  0.13799641538E+03  0.93216395213E+02 0.  0.
        -13    1    3    3    0    0 -0.45277550924E+02  0.20957884870E+01  0.66948457167E+02  0.80848970535E+02  0.10570000000E+00 0.  1.
         13    1    3    3    0    0  0.45277550924E+02 -0.20957884870E+01  0.34804745836E+02  0.57147444845E+02  0.10570000000E+00 0. -1.
<mgrwt>
<rscale>  0 0.93216395E+02</rscale>
<asrwt>0</asrwt>
<pdfrwt beam="2">  1        3 0.27879395E-02 0.93216395E+02</pdfrwt>
<pdfrwt beam="1">  1       -3 0.18442278E-01 0.93216395E+02</pdfrwt>
<totfact> 0.30187915E+04</totfact>
</mgrwt>
</event>
<event>
 5    1  0.1401471E+000  0.9263346E+02  0.7818608E-02  0.1296597E+00
         -3   -1    0    0    0  501 -0.00000000000E+00  0.00000000000E+00  0.39955773733E+02  0.39955881965E+02  0.93000000000E-01 0.  1.
          3   -1    0    0  501    0  0.00000000000E+00 -0.00000000000E+00 -0.53690132107E+02  0.53690212652E+02  0.93000000000E-01 0. -1.
         23    2    1    2    0    0  0.00000000000E+00  0.00000000000E+00 -0.13734358374E+02  0.93646094618E+02  0.92633462837E+02 0.  0.
        -13    1    3    3    0    0 -0.44515287331E+02 -0.70940209439E+01  0.38930704383E+01  0.45244923575E+02  0.10570000000E+00 0.  1.
         13    1    3    3    0    0  0.44515287331E+02  0.70940209439E+01 -0.17627428812E+02  0.48401171043E+02  0.10570000000E+00 0. -1.
<mgrwt>
<rscale>  0 0.92633463E+02</rscale>
<asrwt>0</asrwt>
<pdfrwt beam="2">  1        3 0.82600349E-02 0.92633463E+02</pdfrwt>
<pdfrwt beam="1">  1       -3 0.61470566E-02 0.92633463E+02</pdfrwt>
<totfact> 0.33661094E+04</totfact>
</mgrwt>
</event>
<event>
 5    1  0.1401471E+000  0.8803446E+02  0.7818608E-02  0.1307683E+00
          3   -1    0    0  501    0  0.00000000000E+00  0.00000000000E+00  0.18096405090E+03  0.18096407479E+03  0.93000000000E-01 0. -1.
         -3   -1    0    0    0  501 -0.00000000000E+00 -0.00000000000E+00 -0.10706411221E+02  0.10706815130E+02  0.93000000000E-01 0.  1.
         23    2    1    2    0    0  0.00000000000E+00  0.00000000000E+00  0.17025763968E+03  0.19167088992E+03  0.88034460165E+02 0.  0.
        -13    1    3    3    0    0 -0.34721857888E+02 -0.26813365704E+02  0.77296441053E+02  0.88878090481E+02  0.10570000000E+00 0.  1.
         13    1    3    3    0    0  0.34721857888E+02  0.26813365704E+02  0.92961198622E+02  0.10279279944E+03  0.10570000000E+00 0. -1.
<mgrwt>
<rscale>  0 0.88034460E+02</rscale>
<asrwt>0</asrwt>
<pdfrwt beam="1">  1        3 0.27840657E-01 0.88034460E+02</pdfrwt>
<pdfrwt beam="2">  1       -3 0.16471730E-02 0.88034460E+02</pdfrwt>
<totfact> 0.31797864E+04</totfact>
</mgrwt>
</event>
<event>
 5    1  0.1401471E+000  0.9046513E+02  0.7818608E-02  0.1301729E+00
          3   -1    0    0  501    0  0.00000000000E+00  0.00000000000E+00  0.18384361711E+03  0.18384364063E+03  0.93000000000E-01 0. -1.
         -3   -1    0    0    0  501 -0.00000000000E+00 -0.00000000000E+00 -0.11128724252E+02  0.11129112835E+02  0.93000000000E-01 0.  1.
         23    2    1    2    0    0  0.00000000000E+00  0.00000000000E+00  0.17271489285E+03  0.19497275346E+03  0.90465133502E+02 0.  0.
        -13    1    3    3    0    0 -0.47119099434E+01 -0.30767471071E+02  0.15623534884E+02  0.34827365479E+02  0.10570000000E+00 0.  1.
         13    1    3    3    0    0  0.47119099434E+01  0.30767471071E+02  0.15709135797E+03  0.16014538798E+03  0.10570000000E+00 0. -1.
<mgrwt>
<rscale>  0 0.90465134E+02</rscale>
<asrwt>0</asrwt>
<pdfrwt beam="1">  1        3 0.28283666E-01 0.90465134E+02</pdfrwt>
<pdfrwt beam="2">  1       -3 0.17121430E-02 0.90465134E+02</pdfrwt>
<totfact> 0.29374372E+04</totfact>
</mgrwt>
</event>
<event>
 5    1  0.1401471E+000  0.1012009E+03  0.7818608E-02  0.1277791E+00
          3   -1    0    0  501    0  0.00000000000E+00  0.00000000000E+00  0.45141209638E+02  0.45141305438E+02  0.93000000000E-01 0. -1.
         -3   -1    0    0    0  501 -0.00000000000E+00 -0.00000000000E+00 -0.56719670846E+02  0.56719747089E+02  0.93000000000E-01 0.  1.
         23    2    1    2    0    0  0.00000000000E+00  0.00000000000E+00 -0.11578461208E+02  0.10186105253E+03  0.10120085601E+03 0.  0.
        -13    1    3    3    0    0  0.20113562570E+02  0.13841091606E+02  0.38819879752E+02  0.45859845754E+02  0.10570000000E+00 0. -1.
         13    1    3    3    0    0 -0.20113562570E+02 -0.13841091606E+02 -0.50398340960E+02  0.56001206773E+02  0.10570000000E+00 0.  1.
<mgrwt>
<rscale>  0 0.10120086E+03</rscale>
<asrwt>0</asrwt>
<pdfrwt beam="1">  1        3 0.69448147E-02 0.10120086E+03</pdfrwt>
<pdfrwt beam="2">  1       -3 0.87261165E-02 0.10120086E+03</pdfrwt>
<totfact> 0.25946940E+04</totfact>
</mgrwt>
</event>
<event>
 5    1  0.1401471E+000  0.1033958E+03  0.7818608E-02  0.1273313E+00
         -3   -1    0    0    0  501 -0.00000000000E+00  0.00000000000E+00  0.67559967924E+02  0.67560031934E+02  0.93000000000E-01 0.  1.
          3   -1    0    0  501    0  0.00000000000E+00 -0.00000000000E+00 -0.39559874677E+02  0.39559983992E+02  0.93000000000E-01 0. -1.
         23    2    1    2    0    0  0.00000000000E+00  0.00000000000E+00  0.28000093247E+02  0.10712001593E+03  0.10339580548E+03 0.  0.
        -13    1    3    3    0    0 -0.46650659486E+01 -0.20257134371E+02  0.63039407251E+02  0.66378402905E+02  0.10570000000E+00 0.  1.
         13    1    3    3    0    0  0.46650659486E+01  0.20257134371E+02 -0.35039314004E+02  0.40741613021E+02  0.10570000000E+00 0. -1.
<mgrwt>
<rscale>  0 0.10339581E+03</rscale>
<asrwt>0</asrwt>
<pdfrwt beam="2">  1        3 0.60861480E-02 0.10339581E+03</pdfrwt>
<pdfrwt beam="1">  1       -3 0.10393854E-01 0.10339581E+03</pdfrwt>
<totfact> 0.24189074E+04</totfact>
</mgrwt>
</event>
<event>
 5    1  0.1401471E+000  0.9144886E+02  0.7818608E-02  0.1299381E+00
         -3   -1    0    0    0  501 -0.00000000000E+00  0.00000000000E+00  0.71335610747E+01  0.71341672680E+01  0.93000000000E-01 0.  1.
          3   -1    0    0  501    0  0.00000000000E+00 -0.00000000000E+00 -0.29306962570E+03  0.29306964045E+03  0.93000000000E-01 0. -1.
         23    2    1    2    0    0  0.00000000000E+00  0.00000000000E+00 -0.28593606462E+03  0.30020380772E+03  0.91448855206E+02 0.  0.
        -13    1    3    3    0    0 -0.43024334738E+02  0.14991711288E+02 -0.13031034769E+03  0.13804579919E+03  0.10570000000E+00 0.  1.
         13    1    3    3    0    0  0.43024334738E+02 -0.14991711288E+02 -0.15562571693E+03  0.16215800853E+03  0.10570000000E+00 0. -1.
<mgrwt>
<rscale>  0 0.91448855E+02</rscale>
<asrwt>0</asrwt>
<pdfrwt beam="2">  1        3 0.45087673E-01 0.91448855E+02</pdfrwt>
<pdfrwt beam="1">  1       -3 0.10975189E-02 0.91448855E+02</pdfrwt>
<totfact> 0.23831739E+04</totfact>
</mgrwt>
</event>
<event>
 5    1  0.1401471E+000  0.9089962E+02  0.7818608E-02  0.1300688E+00
         -3   -1    0    0    0  501 -0.00000000000E+00  0.00000000000E+00  0.49326393780E+03  0.49326394657E+03  0.93000000000E-01 0.  1.
          3   -1    0    0  501    0  0.00000000000E+00 -0.00000000000E+00 -0.41872641926E+01  0.41882968399E+01  0.93000000000E-01 0. -1.
         23    2    1    2    0    0  0.00000000000E+00  0.00000000000E+00  0.48907667361E+03  0.49745224341E+03  0.90899624883E+02 0.  0.
        -13    1    3    3    0    0 -0.22969979768E+02 -0.39114211033E+02  0.22893169601E+03  0.23338224886E+03  0.10570000000E+00 0. -1.
         13    1    3    3    0    0  0.22969979768E+02  0.39114211033E+02  0.26014497760E+03  0.26406999454E+03  0.10570000000E+00 0.  1.
<mgrwt>
<rscale>  0 0.90899625E+02</rscale>
<asrwt>0</asrwt>
<pdfrwt beam="2">  1        3 0.64427458E-03 0.90899625E+02</pdfrwt>
<pdfrwt beam="1">  1       -3 0.75886843E-01 0.90899625E+02</pdfrwt>
<totfact> 0.18099592E+04</totfact>
</mgrwt>
</event>
<event>
 5    1  0.1401471E+000  0.1042091E+03  0.7818608E-02  0.1271686E+00
         -3   -1    0    0    0  501 -0.00000000000E+00  0.00000000000E+00  0.18672480199E+02  0.18672711795E+02  0.93000000000E-01 0.  1.
          3   -1    0    0  501    0  0.00000000000E+00 -0.00000000000E+00 -0.14539377688E+03  0.14539380663E+03  0.93000000000E-01 0. -1.
         23    2    1    2    0    0  0.00000000000E+00  0.00000000000E+00 -0.12672129668E+03  0.16406651842E+03  0.10420909477E+03 0.  0.
        -13    1    3    3    0    0  0.17323792483E+02 -0.48996292893E+02 -0.69277153560E+02  0.86603035057E+02  0.10570000000E+00 0.  1.
         13    1    3    3    0    0 -0.17323792483E+02  0.48996292893E+02 -0.57444143122E+02  0.77463483363E+02  0.10570000000E+00 0. -1.
<mgrwt>
<rscale>  0 0.10420909E+03</rscale>
<asrwt>0</asrwt>
<pdfrwt beam="2">  1        3 0.22368293E-01 0.10420909E+03</pdfrwt>
<pdfrwt beam="1">  1       -3 0.28727095E-02 0.10420909E+03</pdfrwt>
<totfact> 0.21160363E+04</totfact>
</mgrwt>
</event>
<event>
 5    1  0.1401471E+000  0.9718332E+02  0.7818608E-02  0.1286333E+00
          3   -1    0    0  501    0  0.00000000000E+00  0.00000000000E+00  0.18099586861E+02  0.18099825787E+02  0.93000000000E-01 0. -1.
         -3   -1    0    0    0  501 -0.00000000000E+00 -0.00000000000E+00 -0.13045210704E+03  0.13045214019E+03  0.93000000000E-01 0.  1.
         23    2    1    2    0    0  0.00000000000E+00  0.00000000000E+00 -0.11235252018E+03  0.14855196597E+03  0.97183320610E+02 0.  0.
        -13    1    3    3    0    0 -0.42268973569E+02 -0.58551358986E+00 -0.19550087717E+02  0.46574950939E+02  0.10570000000E+00 0. -1.
         13    1    3    3    0    0  0.42268973569E+02  0.58551358986E+00 -0.92802432460E+02  0.10197701504E+03  0.10570000000E+00 0.  1.
<mgrwt>
<rscale>  0 0.97183321E+02</rscale>
<asrwt>0</asrwt>
<pdfrwt beam="1">  1        3 0.27845728E-02 0.97183321E+02</pdfrwt>
<pdfrwt beam="2">  1       -3 0.20069575E-01 0.97183321E+02</pdfrwt>
<totfact> 0.26391760E+04</totfact>
</mgrwt>
</event>
<event>
 5    1  0.1401471E+000  0.9027967E+02  0.7818608E-02  0.1302176E+00
          3   -1    0    0  501    0  0.00000000000E+00  0.00000000000E+00  0.12634833526E+03  0.12634836949E+03  0.93000000000E-01 0.  1.
         -3   -1    0    0    0  501 -0.00000000000E+00 -0.00000000000E+00 -0.16126711269E+02  0.16126979424E+02  0.93000000000E-01 0. -1.
         23    2    1    2    0    0  0.00000000000E+00  0.00000000000E+00  0.11022162399E+03  0.14247534891E+03  0.90279669097E+02 0.  0.
        -13    1    3    3    0    0  0.26565730348E+02  0.10735709543E+01  0.11268002910E+03  0.11577430939E+03  0.10570000000E+00 0.  1.
         13    1    3    3    0    0 -0.26565730348E+02 -0.10735709543E+01 -0.24584051093E+01  0.26701039524E+02  0.10570000000E+00 0. -1.
<mgrwt>
<rscale>  0 0.90279669E+02</rscale>
<asrwt>0</asrwt>
<pdfrwt beam="1">  1        3 0.19438229E-01 0.90279669E+02</pdfrwt>
<pdfrwt beam="2">  1       -3 0.24810557E-02 0.90279669E+02</pdfrwt>
<totfact> 0.32635103E+04</totfact>
</mgrwt>
</event>
<event>
 5    1  0.1401471E+000  0.9234858E+02  0.7818608E-02  0.1297262E+00
         -3   -1    0    0    0  501 -0.00000000000E+00  0.00000000000E+00  0.37437878696E+03  0.37437879851E+03  0.93000000000E-01 0.  1.
          3   -1    0    0  501    0  0.00000000000E+00 -0.00000000000E+00 -0.56945493026E+01  0.56953086624E+01  0.93000000000E-01 0. -1.
         23    2    1    2    0    0  0.00000000000E+00  0.00000000000E+00  0.36868423766E+03  0.38007410717E+03  0.92348577936E+02 0.  0.
        -13    1    3    3    0    0  0.34232500103E+02  0.28260701110E+02  0.13203574853E+03  0.13929817426E+03  0.10570000000E+00 0. -1.
         13    1    3    3    0    0 -0.34232500103E+02 -0.28260701110E+02  0.23664848913E+03  0.24077593291E+03  0.10570000000E+00 0.  1.
<mgrwt>
<rscale>  0 0.92348578E+02</rscale>
<asrwt>0</asrwt>
<pdfrwt beam="2">  1        3 0.87614392E-03 0.92348578E+02</pdfrwt>
<pdfrwt beam="1">  1       -3 0.57596789E-01 0.92348578E+02</pdfrwt>
<totfact> 0.20503091E+04</totfact>
</mgrwt>
</event>
<event>
 5    1  0.1401471E+000  0.9358866E+02  0.7818608E-02  0.1294387E+00
          3   -1    0    0  501    0  0.00000000000E+00  0.00000000000E+00  0.15033625581E+03  0.15033628458E+03  0.93000000000E-01 0. -1.
         -3   -1    0    0    0  501 -0.00000000000E+00 -0.00000000000E+00 -0.14565233361E+02  0.14565530263E+02  0.93000000000E-01 0.  1.
         23    2    1    2    0    0  0.00000000000E+00  0.00000000000E+00  0.13577102245E+03  0.16490181484E+03  0.93588663845E+02 0.  0.
        -13    1    3    3    0    0 -0.35616034018E+02  0.28002349749E+02  0.88513897110E+02  0.99435178004E+02  0.10570000000E+00 0.  1.
         13    1    3    3    0    0  0.35616034018E+02 -0.28002349749E+02  0.47257125341E+02  0.65466636836E+02  0.10570000000E+00 0. -1.
<mgrwt>
<rscale>  0 0.93588664E+02</rscale>
<asrwt>0</asrwt>
<pdfrwt beam="1">  1        3 0.23128679E-01 0.93588664E+02</pdfrwt>
<pdfrwt beam="2">  1       -3 0.22408303E-02 0.93588664E+02</pdfrwt>
<totfact> 0.28339383E+04</totfact>
</mgrwt>
</event>
<event>
 5    1  0.1401471E+000  0.8907813E+02  0.7818608E-02  0.1305100E+00
         -3   -1    0    0    0  501 -0.00000000000E+00  0.00000000000E+00  0.16092181834E+02  0.16092450565E+02  0.93000000000E-01 0.  1.
          3   -1    0    0  501    0  0.00000000000E+00 -0.00000000000E+00 -0.12327147116E+03  0.12327150624E+03  0.93000000000E-01 0. -1.
         23    2    1    2    0    0  0.00000000000E+00  0.00000000000E+00 -0.10717928932E+03  0.13936395680E+03  0.89078125239E+02 0.  0.
        -13    1    3    3    0    0 -0.42728239401E+02  0.11088471732E+02 -0.62853400136E+02  0.76806365158E+02  0.10570000000E+00 0. -1.
         13    1    3    3    0    0  0.42728239401E+02 -0.11088471732E+02 -0.44325889187E+02  0.62557591645E+02  0.10570000000E+00 0.  1.
<mgrwt>
<rscale>  0 0.89078125E+02</rscale>
<asrwt>0</asrwt>
<pdfrwt beam="2">  1        3 0.18964864E-01 0.89078125E+02</pdfrwt>
<pdfrwt beam="1">  1       -3 0.24757437E-02 0.89078125E+02</pdfrwt>
<totfact> 0.34047534E+04</totfact>
</mgrwt>
</event>
<event>
 5    1  0.1401471E+000  0.9125015E+02  0.7818608E-02  0.1299852E+00
         -3   -1    0    0    0  501 -0.00000000000E+00  0.00000000000E+00  0.90497935322E+02  0.90497983108E+02  0.93000000000E-01 0.  1.
          3   -1    0    0  501    0  0.00000000000E+00 -0.00000000000E+00 -0.23002007927E+02  0.23002195932E+02  0.93000000000E-01 0. -1.
         23    2    1    2    0    0  0.00000000000E+00  0.00000000000E+00  0.67495927395E+02  0.11350017904E+03  0.91250153025E+02 0.  0.
        -13    1    3    3    0    0  0.24954408098E+01 -0.17625426528E+02  0.86000211424E+02  0.87823290889E+02  0.10570000000E+00 0.  1.
         13    1    3    3    0    0 -0.24954408098E+01  0.17625426528E+02 -0.18504284029E+02  0.25676888150E+02  0.10570000000E+00 0. -1.
<mgrwt>
<rscale>  0 0.91250153E+02</rscale>
<asrwt>0</asrwt>
<pdfrwt beam="2">  1        3 0.35387886E-02 0.91250153E+02</pdfrwt>
<pdfrwt beam="1">  1       -3 0.13922777E-01 0.91250153E+02</pdfrwt>
<totfact> 0.33624945E+04</totfact>
</mgrwt>
</event>
<event>
 5    1  0.1401471E+000  0.9223225E+02  0.7818608E-02  0.1297534E+00
         -3   -1    0    0    0  501 -0.00000000000E+00  0.00000000000E+00  0.28839228992E+02  0.28839378944E+02  0.93000000000E-01 0.  1.
          3   -1    0    0  501    0  0.00000000000E+00 -0.00000000000E+00 -0.73742826769E+02  0.73742885412E+02  0.93000000000E-01 0. -1.
         23    2    1    2    0    0  0.00000000000E+00  0.00000000000E+00 -0.44903597777E+02  0.10258226436E+03  0.92232249605E+02 0.  0.
        -13    1    3    3    0    0  0.27468696611E+02 -0.24438194918E+02 -0.53413230489E+02  0.64843959072E+02  0.10570000000E+00 0. -1.
         13    1    3    3    0    0 -0.27468696611E+02  0.24438194918E+02  0.85096327120E+01  0.37738305284E+02  0.10570000000E+00 0.  1.
<mgrwt>
<rscale>  0 0.92232250E+02</rscale>
<asrwt>0</asrwt>
<pdfrwt beam="2">  1        3 0.11345066E-01 0.92232250E+02</pdfrwt>
<pdfrwt beam="1">  1       -3 0.44368205E-02 0.92232250E+02</pdfrwt>
<totfact> 0.33415177E+04</totfact>
</mgrwt>
</event>
<event>
 5    1  0.1401471E+000  0.9414289E+02  0.7818608E-02  0.1293118E+00
          3   -1    0    0  501    0  0.00000000000E+00  0.00000000000E+00  0.24595254363E+02  0.24595430189E+02  0.93000000000E-01 0. -1.
         -3   -1    0    0    0  501 -0.00000000000E+00 -0.00000000000E+00 -0.90086811950E+02  0.90086859954E+02  0.93000000000E-01 0.  1.
         23    2    1    2    0    0  0.00000000000E+00  0.00000000000E+00 -0.65491557587E+02  0.11468229014E+03  0.94142889043E+02 0.  0.
        -13    1    3    3    0    0  0.27930635979E+02 -0.82398093535E+01 -0.77796675348E+02  0.83068337844E+02  0.10570000000E+00 0.  1.
         13    1    3    3    0    0 -0.27930635979E+02  0.82398093535E+01  0.12305117761E+02  0.31613952300E+02  0.10570000000E+00 0. -1.
<mgrwt>
<rscale>  0 0.94142889E+02</rscale>
<asrwt>0</asrwt>
<pdfrwt beam="1">  1        3 0.37839026E-02 0.94142889E+02</pdfrwt>
<pdfrwt beam="2">  1       -3 0.13859527E-01 0.94142889E+02</pdfrwt>
<totfact> 0.30806150E+04</totfact>
</mgrwt>
</event>
<event>
 5    1  0.1401471E+000  0.9959178E+02  0.7818608E-02  0.1281157E+00
         -3   -1    0    0    0  501 -0.00000000000E+00  0.00000000000E+00  0.40858977537E+02  0.40859083377E+02  0.93000000000E-01 0.  1.
          3   -1    0    0  501    0  0.00000000000E+00 -0.00000000000E+00 -0.60687315554E+02  0.60687386813E+02  0.93000000000E-01 0. -1.
         23    2    1    2    0    0  0.00000000000E+00  0.00000000000E+00 -0.19828338017E+02  0.10154647019E+03  0.99591779879E+02 0.  0.
        -13    1    3    3    0    0 -0.44448126785E+01  0.28812615826E+02  0.31247661150E+02  0.42735824437E+02  0.10570000000E+00 0.  1.
         13    1    3    3    0    0  0.44448126785E+01 -0.28812615826E+02 -0.51075999167E+02  0.58810645753E+02  0.10570000000E+00 0. -1.
<mgrwt>
<rscale>  0 0.99591780E+02</rscale>
<asrwt>0</asrwt>
<pdfrwt beam="2">  1        3 0.93365237E-02 0.99591780E+02</pdfrwt>
<pdfrwt beam="1">  1       -3 0.62860102E-02 0.99591780E+02</pdfrwt>
<totfact> 0.27135776E+04</totfact>
</mgrwt>
</event>
<event>
 5    1  0.1401471E+000  0.8431920E+02  0.7818608E-02  0.1317223E+00
         -3   -1    0    0    0  501 -0.00000000000E+00  0.00000000000E+00  0.62982559268E+01  0.62989425081E+01  0.93000000000E-01 0.  1.
          3   -1    0    0  501    0  0.00000000000E+00 -0.00000000000E+00 -0.28219406317E+03  0.28219407849E+03  0.93000000000E-01 0. -1.
         23    2    1    2    0    0  0.00000000000E+00  0.00000000000E+00 -0.27589580724E+03  0.28849302100E+03  0.84319195400E+02 0.  0.
        -13    1    3    3    0    0 -0.32644316314E+02 -0.22268690536E+02 -0.87677824327E+02  0.96171503144E+02  0.10570000000E+00 0.  1.
         13    1    3    3    0    0  0.32644316314E+02  0.22268690536E+02 -0.18821798291E+03  0.19232151786E+03  0.10570000000E+00 0. -1.
<mgrwt>
<rscale>  0 0.84319195E+02</rscale>
<asrwt>0</asrwt>
<pdfrwt beam="2">  1        3 0.43414515E-01 0.84319195E+02</pdfrwt>
<pdfrwt beam="1">  1       -3 0.96901666E-03 0.84319195E+02</pdfrwt>
<totfact> 0.30167929E+04</totfact>
</mgrwt>
</event>
<event>
 5    1  0.1401471E+000  0.9030227E+02  0.7818608E-02  0.1302121E+00
         -3   -1    0    0    0  501 -0.00000000000E+00  0.00000000000E+00  0.95396909256E+02  0.95396954587E+02  0.93000000000E-01 0.  1.
          3   -1    0    0  501    0  0.00000000000E+00 -0.00000000000E+00 -0.21369775965E+02  0.21369978329E+02  0.93000000000E-01 0. -1.
         23    2    1    2    0    0  0.00000000000E+00  0.00000000000E+00  0.74027133291E+02  0.11676693292E+03  0.90302271065E+02 0.  0.
        -13    1    3    3    0    0  0.15626901721E+02  0.45543042652E+01  0.91471087964E+02  0.92908088187E+02  0.10570000000E+00 0.  1.
         13    1    3    3    0    0 -0.15626901721E+02 -0.45543042652E+01 -0.17443954672E+02  0.23858844730E+02  0.10570000000E+00 0. -1.
<mgrwt>
<rscale>  0 0.90302271E+02</rscale>
<asrwt>0</asrwt>
<pdfrwt beam="2">  1        3 0.32876769E-02 0.90302271E+02</pdfrwt>
<pdfrwt beam="1">  1       -3 0.14676467E-01 0.90302271E+02</pdfrwt>
<totfact> 0.34357030E+04</totfact>
</mgrwt>
</event>
<event>
 5    1  0.1401471E+000  0.8053909E+02  0.7818608E-02  0.1327528E+00
          3   -1    0    0  501    0  0.00000000000E+00  0.00000000000E+00  0.17148647547E+02  0.17148899723E+02  0.93000000000E-01 0. -1.
         -3   -1    0    0    0  501 -0.00000000000E+00 -0.00000000000E+00 -0.94562545418E+02  0.94562591150E+02  0.93000000000E-01 0.  1.
         23    2    1    2    0    0  0.00000000000E+00  0.00000000000E+00 -0.77413897871E+02  0.11171149087E+03  0.80539093671E+02 0.  0.
        -13    1    3    3    0    0  0.18732389389E+02  0.28687400502E+02 -0.68057195489E+02  0.76194897402E+02  0.10570000000E+00 0. -1.
         13    1    3    3    0    0 -0.18732389389E+02 -0.28687400502E+02 -0.93567023822E+01  0.35516593470E+02  0.10570000000E+00 0.  1.
<mgrwt>
<rscale>  0 0.80539094E+02</rscale>
<asrwt>0</asrwt>
<pdfrwt beam="1">  1        3 0.26382764E-02 0.80539094E+02</pdfrwt>
<pdfrwt beam="2">  1       -3 0.14548106E-01 0.80539094E+02</pdfrwt>
<totfact> 0.47253863E+04</totfact>
</mgrwt>
</event>
<event>
 5    1  0.1401471E+000  0.9159733E+02  0.7818608E-02  0.1299029E+00
          3   -1    0    0  501    0  0.00000000000E+00  0.00000000000E+00  0.49062327303E+02  0.49062415446E+02  0.93000000000E-01 0. -1.
         -3   -1    0    0    0  501 -0.00000000000E+00 -0.00000000000E+00 -0.42751924309E+02  0.42752025463E+02  0.93000000000E-01 0.  1.
         23    2    1    2    0    0  0.00000000000E+00  0.00000000000E+00  0.63104029936E+01  0.91814440909E+02  0.91597327327E+02 0.  0.
        -13    1    3    3    0    0 -0.45008270352E+02 -0.37279112529E+01 -0.44697140767E+01  0.45383160300E+02  0.10570000000E+00 0.  1.
         13    1    3    3    0    0  0.45008270352E+02  0.37279112529E+01  0.10780117070E+02  0.46431280608E+02  0.10570000000E+00 0. -1.
<mgrwt>
<rscale>  0 0.91597327E+02</rscale>
<asrwt>0</asrwt>
<pdfrwt beam="1">  1        3 0.75480649E-02 0.91597327E+02</pdfrwt>
<pdfrwt beam="2">  1       -3 0.65772337E-02 0.91597327E+02</pdfrwt>
<totfact> 0.34849106E+04</totfact>
</mgrwt>
</event>
<event>
 5    1  0.1401471E+000  0.9241941E+02  0.7818608E-02  0.1297096E+00
         -3   -1    0    0    0  501 -0.00000000000E+00  0.00000000000E+00  0.17316547102E+03  0.17316549599E+03  0.93000000000E-01 0.  1.
          3   -1    0    0  501    0  0.00000000000E+00 -0.00000000000E+00 -0.12330990897E+02  0.12331341593E+02  0.93000000000E-01 0. -1.
         23    2    1    2    0    0  0.00000000000E+00  0.00000000000E+00  0.16083448012E+03  0.18549683758E+03  0.92419406825E+02 0.  0.
        -13    1    3    3    0    0  0.24129178597E+02  0.38987645058E+02  0.91959801219E+02  0.10275636204E+03  0.10570000000E+00 0.  1.
         13    1    3    3    0    0 -0.24129178597E+02 -0.38987645058E+02  0.68874678900E+02  0.82740475542E+02  0.10570000000E+00 0. -1.
<mgrwt>
<rscale>  0 0.92419407E+02</rscale>
<asrwt>0</asrwt>
<pdfrwt beam="2">  1        3 0.18971044E-02 0.92419407E+02</pdfrwt>
<pdfrwt beam="1">  1       -3 0.26640871E-01 0.92419407E+02</pdfrwt>
<totfact> 0.28212693E+04</totfact>
</mgrwt>
</event>
<event>
 5    1  0.1401471E+000  0.9236569E+02  0.7818608E-02  0.1297222E+00
          3   -1    0    0  501    0  0.00000000000E+00  0.00000000000E+00  0.34690681761E+02  0.34690806420E+02  0.93000000000E-01 0. -1.
         -3   -1    0    0    0  501 -0.00000000000E+00 -0.00000000000E+00 -0.61481802694E+02  0.61481873032E+02  0.93000000000E-01 0.  1.
         23    2    1    2    0    0  0.00000000000E+00  0.00000000000E+00 -0.26791120933E+02  0.96172679452E+02  0.92365686876E+02 0.  0.
        -13    1    3    3    0    0 -0.26907099071E+02  0.34925577889E+02  0.92091625189E+00  0.44098154503E+02  0.10570000000E+00 0. -1.
         13    1    3    3    0    0  0.26907099071E+02 -0.34925577889E+02 -0.27712037184E+02  0.52074524949E+02  0.10570000000E+00 0.  1.
<mgrwt>
<rscale>  0 0.92365687E+02</rscale>
<asrwt>0</asrwt>
<pdfrwt beam="1">  1        3 0.53370430E-02 0.92365687E+02</pdfrwt>
<pdfrwt beam="2">  1       -3 0.94587539E-02 0.92365687E+02</pdfrwt>
<totfact> 0.33744087E+04</totfact>
</mgrwt>
</event>
<event>
 5    1  0.1401471E+000  0.9161369E+02  0.7818608E-02  0.1298990E+00
          3   -1    0    0  501    0  0.00000000000E+00  0.00000000000E+00  0.88845920684E+02  0.88845969358E+02  0.93000000000E-01 0. -1.
         -3   -1    0    0    0  501 -0.00000000000E+00 -0.00000000000E+00 -0.23616775038E+02  0.23616958148E+02  0.93000000000E-01 0.  1.
         23    2    1    2    0    0  0.00000000000E+00  0.00000000000E+00  0.65229145646E+02  0.11246292751E+03  0.91613692326E+02 0.  0.
        -13    1    3    3    0    0 -0.69226248145E+01 -0.29479257872E+02 -0.95774466929E+01  0.31759849443E+02  0.10570000000E+00 0.  1.
         13    1    3    3    0    0  0.69226248145E+01  0.29479257872E+02  0.74806592339E+02  0.80703078063E+02  0.10570000000E+00 0. -1.
<mgrwt>
<rscale>  0 0.91613692E+02</rscale>
<asrwt>0</asrwt>
<pdfrwt beam="1">  1        3 0.13668621E-01 0.91613692E+02</pdfrwt>
<pdfrwt beam="2">  1       -3 0.36333679E-02 0.91613692E+02</pdfrwt>
<totfact> 0.33333273E+04</totfact>
</mgrwt>
</event>
<event>
 5    1  0.1401471E+000  0.9017950E+02  0.7818608E-02  0.1302418E+00
         -3   -1    0    0    0  501 -0.00000000000E+00  0.00000000000E+00  0.11849945686E+03  0.11849949336E+03  0.93000000000E-01 0.  1.
          3   -1    0    0  501    0  0.00000000000E+00 -0.00000000000E+00 -0.17156754317E+02  0.17157006374E+02  0.93000000000E-01 0. -1.
         23    2    1    2    0    0  0.00000000000E+00  0.00000000000E+00  0.10134270255E+03  0.13565649973E+03  0.90179501883E+02 0.  0.
        -13    1    3    3    0    0  0.17709029001E+02  0.31956509405E+02  0.90421346960E+02  0.97523634879E+02  0.10570000000E+00 0.  1.
         13    1    3    3    0    0 -0.17709029001E+02 -0.31956509405E+02  0.10921355586E+02  0.38132864851E+02  0.10570000000E+00 0. -1.
<mgrwt>
<rscale>  0 0.90179502E+02</rscale>
<asrwt>0</asrwt>
<pdfrwt beam="2">  1        3 0.26395229E-02 0.90179502E+02</pdfrwt>
<pdfrwt beam="1">  1       -3 0.18230708E-01 0.90179502E+02</pdfrwt>
<totfact> 0.33182388E+04</totfact>
</mgrwt>
</event>
<event>
 5    1  0.1401471E+000  0.9449688E+02  0.7818608E-02  0.1292313E+00
          3   -1    0    0  501    0  0.00000000000E+00  0.00000000000E+00  0.71767343128E+02  0.71767403385E+02  0.93000000000E-01 0. -1.
         -3   -1    0    0    0  501 -0.00000000000E+00 -0.00000000000E+00 -0.31106135405E+02  0.31106274429E+02  0.93000000000E-01 0.  1.
         23    2    1    2    0    0  0.00000000000E+00  0.00000000000E+00  0.40661207723E+02  0.10287367781E+03  0.94496877057E+02 0.  0.
        -13    1    3    3    0    0  0.24234624344E+02 -0.21863259989E+02  0.57521614713E+02  0.66136725698E+02  0.10570000000E+00 0. -1.
         13    1    3    3    0    0 -0.24234624344E+02  0.21863259989E+02 -0.16860406990E+02  0.36736952116E+02  0.10570000000E+00 0.  1.
<mgrwt>
<rscale>  0 0.94496877E+02</rscale>
<asrwt>0</asrwt>
<pdfrwt beam="1">  1        3 0.11041145E-01 0.94496877E+02</pdfrwt>
<pdfrwt beam="2">  1       -3 0.47855747E-02 0.94496877E+02</pdfrwt>
<totfact> 0.31252659E+04</totfact>
</mgrwt>
</event>
<event>
 5    1  0.1401471E+000  0.9101187E+02  0.7818608E-02  0.1300420E+00
         -3   -1    0    0    0  501 -0.00000000000E+00  0.00000000000E+00  0.23742960946E+02  0.23743143083E+02  0.93000000000E-01 0.  1.
          3   -1    0    0  501    0  0.00000000000E+00 -0.00000000000E+00 -0.87216464937E+02  0.87216514520E+02  0.93000000000E-01 0. -1.
         23    2    1    2    0    0  0.00000000000E+00  0.00000000000E+00 -0.63473503991E+02  0.11095965760E+03  0.91011866845E+02 0.  0.
        -13    1    3    3    0    0 -0.14806070347E+02  0.35406088304E+02 -0.61549777767E+02  0.72534110071E+02  0.10570000000E+00 0.  1.
         13    1    3    3    0    0  0.14806070347E+02 -0.35406088304E+02 -0.19237262245E+01  0.38425547533E+02  0.10570000000E+00 0. -1.
<mgrwt>
<rscale>  0 0.91011867E+02</rscale>
<asrwt>0</asrwt>
<pdfrwt beam="2">  1        3 0.13417935E-01 0.91011867E+02</pdfrwt>
<pdfrwt beam="1">  1       -3 0.36527811E-02 0.91011867E+02</pdfrwt>
<totfact> 0.34043771E+04</totfact>
</mgrwt>
</event>
<event>
 5    1  0.1401471E+000  0.9080101E+02  0.7818608E-02  0.1300923E+00
          3   -1    0    0  501    0  0.00000000000E+00  0.00000000000E+00  0.80919766709E+02  0.80919820151E+02  0.93000000000E-01 0. -1.
         -3   -1    0    0    0  501 -0.00000000000E+00 -0.00000000000E+00 -0.25472069774E+02  0.25472239547E+02  0.93000000000E-01 0.  1.
         23    2    1    2    0    0  0.00000000000E+00  0.00000000000E+00  0.55447696936E+02  0.10639205970E+03  0.90801009198E+02 0.  0.
        -13    1    3    3    0    0  0.30693826602E+02 -0.11183818609E+02  0.64665219743E+02  0.72448537646E+02  0.10570000000E+00 0. -1.
         13    1    3    3    0    0 -0.30693826602E+02  0.11183818609E+02 -0.92175228072E+01  0.33943522053E+02  0.10570000000E+00 0.  1.
<mgrwt>
<rscale>  0 0.90801009E+02</rscale>
<asrwt>0</asrwt>
<pdfrwt beam="1">  1        3 0.12449212E-01 0.90801009E+02</pdfrwt>
<pdfrwt beam="2">  1       -3 0.39187972E-02 0.90801009E+02</pdfrwt>
<totfact> 0.34589619E+04</totfact>
</mgrwt>
</event>
<event>
 5    1  0.1401471E+000  0.9158755E+02  0.7818608E-02  0.1299052E+00
         -3   -1    0    0    0  501 -0.00000000000E+00  0.00000000000E+00  0.20926519343E+03  0.20926521410E+03  0.93000000000E-01 0.  1.
          3   -1    0    0  501    0  0.00000000000E+00 -0.00000000000E+00 -0.10020873626E+02  0.10021305166E+02  0.93000000000E-01 0. -1.
         23    2    1    2    0    0  0.00000000000E+00  0.00000000000E+00  0.19924431981E+03  0.21928651926E+03  0.91587545856E+02 0.  0.
        -13    1    3    3    0    0 -0.11858387428E+02 -0.37280263059E+02  0.15661510730E+03  0.16142720457E+03  0.10570000000E+00 0.  1.
         13    1    3    3    0    0  0.11858387428E+02  0.37280263059E+02  0.42629212503E+02  0.57859314697E+02  0.10570000000E+00 0. -1.
<mgrwt>
<rscale>  0 0.91587546E+02</rscale>
<asrwt>0</asrwt>
<pdfrwt beam="2">  1        3 0.15417077E-02 0.91587546E+02</pdfrwt>
<pdfrwt beam="1">  1       -3 0.32194679E-01 0.91587546E+02</pdfrwt>
<totfact> 0.27196914E+04</totfact>
</mgrwt>
</event>
<event>
 5    1  0.1401471E+000  0.9239458E+02  0.7818608E-02  0.1297154E+00
         -3   -1    0    0    0  501 -0.00000000000E+00  0.00000000000E+00  0.43079775123E+02  0.43079875506E+02  0.93000000000E-01 0.  1.
          3   -1    0    0  501    0  0.00000000000E+00 -0.00000000000E+00 -0.49540207618E+02  0.49540294911E+02  0.93000000000E-01 0. -1.
         23    2    1    2    0    0  0.00000000000E+00  0.00000000000E+00 -0.64604324952E+01  0.92620170417E+02  0.92394581984E+02 0.  0.
        -13    1    3    3    0    0 -0.13759998184E+02 -0.39270680692E+02  0.16885032566E+02  0.44907008465E+02  0.10570000000E+00 0.  1.
         13    1    3    3    0    0  0.13759998184E+02  0.39270680692E+02 -0.23345465062E+02  0.47713161952E+02  0.10570000000E+00 0. -1.
<mgrwt>
<rscale>  0 0.92394582E+02</rscale>
<asrwt>0</asrwt>
<pdfrwt beam="2">  1        3 0.76215848E-02 0.92394582E+02</pdfrwt>
<pdfrwt beam="1">  1       -3 0.66276722E-02 0.92394582E+02</pdfrwt>
<totfact> 0.33974297E+04</totfact>
</mgrwt>
</event>
<event>
 5    1  0.1401471E+000  0.9478238E+02  0.7818608E-02  0.1291667E+00
         -3   -1    0    0    0  501 -0.00000000000E+00  0.00000000000E+00  0.45928641064E+02  0.45928735221E+02  0.93000000000E-01 0.  1.
          3   -1    0    0  501    0  0.00000000000E+00 -0.00000000000E+00 -0.48900124660E+02  0.48900213095E+02  0.93000000000E-01 0. -1.
         23    2    1    2    0    0  0.00000000000E+00  0.00000000000E+00 -0.29714835956E+01  0.94828948316E+02  0.94782380873E+02 0.  0.
        -13    1    3    3    0    0 -0.21788900652E+02  0.38330425181E+02 -0.18870586722E+02  0.47959231665E+02  0.10570000000E+00 0. -1.
         13    1    3    3    0    0  0.21788900652E+02 -0.38330425181E+02  0.15899103126E+02  0.46869716651E+02  0.10570000000E+00 0.  1.
<mgrwt>
<rscale>  0 0.94782381E+02</rscale>
<asrwt>0</asrwt>
<pdfrwt beam="2">  1        3 0.75231101E-02 0.94782381E+02</pdfrwt>
<pdfrwt beam="1">  1       -3 0.70659588E-02 0.94782381E+02</pdfrwt>
<totfact> 0.31532471E+04</totfact>
</mgrwt>
</event>
<event>
 5    1  0.1401471E+000  0.9160540E+02  0.7818608E-02  0.1299010E+00
          3   -1    0    0  501    0  0.00000000000E+00  0.00000000000E+00  0.61104741610E+01  0.61111818393E+01  0.93000000000E-01 0. -1.
         -3   -1    0    0    0  501 -0.00000000000E+00 -0.00000000000E+00 -0.34330583984E+03  0.34330585244E+03  0.93000000000E-01 0.  1.
         23    2    1    2    0    0  0.00000000000E+00  0.00000000000E+00 -0.33719536568E+03  0.34941703428E+03  0.91605399442E+02 0.  0.
        -13    1    3    3    0    0 -0.45662688388E+02  0.18895091933E+01 -0.15701255439E+03  0.16352860534E+03  0.10570000000E+00 0. -1.
         13    1    3    3    0    0  0.45662688388E+02 -0.18895091933E+01 -0.18018281129E+03  0.18588842893E+03  0.10570000000E+00 0.  1.
<mgrwt>
<rscale>  0 0.91605399E+02</rscale>
<asrwt>0</asrwt>
<pdfrwt beam="1">  1        3 0.94012862E-03 0.91605399E+02</pdfrwt>
<pdfrwt beam="2">  1       -3 0.52816324E-01 0.91605399E+02</pdfrwt>
<totfact> 0.21948116E+04</totfact>
</mgrwt>
</event>
<event>
 5    1  0.1401471E+000  0.9136786E+02  0.7818608E-02  0.1299573E+00
          3   -1    0    0  501    0  0.00000000000E+00  0.00000000000E+00  0.17572127368E+03  0.17572129829E+03  0.93000000000E-01 0. -1.
         -3   -1    0    0    0  501 -0.00000000000E+00 -0.00000000000E+00 -0.11876678809E+02  0.11877042920E+02  0.93000000000E-01 0.  1.
         23    2    1    2    0    0  0.00000000000E+00  0.00000000000E+00  0.16384459487E+03  0.18759834121E+03  0.91367862821E+02 0.  0.
        -13    1    3    3    0    0 -0.57951414839E+01 -0.36006066191E+02  0.25431125549E+02  0.44460924266E+02  0.10570000000E+00 0.  1.
         13    1    3    3    0    0  0.57951414839E+01  0.36006066191E+02  0.13841346932E+03  0.14313741695E+03  0.10570000000E+00 0. -1.
<mgrwt>
<rscale>  0 0.91367863E+02</rscale>
<asrwt>0</asrwt>
<pdfrwt beam="1">  1        3 0.27034072E-01 0.91367863E+02</pdfrwt>
<pdfrwt beam="2">  1       -3 0.18272112E-02 0.91367863E+02</pdfrwt>
<totfact> 0.28988111E+04</totfact>
</mgrwt>
</event>
<event>
 5    1  0.1401471E+000  0.8938206E+02  0.7818608E-02  0.1304355E+00
          3   -1    0    0  501    0  0.00000000000E+00  0.00000000000E+00  0.86923492744E+01  0.86928467666E+01  0.93000000000E-01 0. -1.
         -3   -1    0    0    0  501 -0.00000000000E+00 -0.00000000000E+00 -0.22976835197E+03  0.22976837080E+03  0.93000000000E-01 0.  1.
         23    2    1    2    0    0  0.00000000000E+00  0.00000000000E+00 -0.22107600270E+03  0.23846121756E+03  0.89382063701E+02 0.  0.
        -13    1    3    3    0    0 -0.18177756914E+02  0.32312362388E+02 -0.17711540867E+03  0.18095413444E+03  0.10570000000E+00 0.  1.
         13    1    3    3    0    0  0.18177756914E+02 -0.32312362388E+02 -0.43960594033E+02  0.57507083127E+02  0.10570000000E+00 0. -1.
<mgrwt>
<rscale>  0 0.89382064E+02</rscale>
<asrwt>0</asrwt>
<pdfrwt beam="1">  1        3 0.13373244E-02 0.89382064E+02</pdfrwt>
<pdfrwt beam="2">  1       -3 0.35349012E-01 0.89382064E+02</pdfrwt>
<totfact> 0.28081136E+04</totfact>
</mgrwt>
</event>
<event>
 5    1  0.1401471E+000  0.8211310E+02  0.7818608E-02  0.1323160E+00
         -3   -1    0    0    0  501 -0.00000000000E+00  0.00000000000E+00  0.13001591439E+03  0.13001594765E+03  0.93000000000E-01 0.  1.
          3   -1    0    0  501    0  0.00000000000E+00 -0.00000000000E+00 -0.12964674552E+02  0.12965008108E+02  0.93000000000E-01 0. -1.
         23    2    1    2    0    0  0.00000000000E+00  0.00000000000E+00  0.11705123984E+03  0.14298095576E+03  0.82113098603E+02 0.  0.
        -13    1    3    3    0    0 -0.23916026068E+02 -0.22887423533E+02  0.10081438376E+03  0.10611013902E+03  0.10570000000E+00 0.  1.
         13    1    3    3    0    0  0.23916026068E+02  0.22887423533E+02  0.16236856081E+02  0.36870816736E+02  0.10570000000E+00 0. -1.
<mgrwt>
<rscale>  0 0.82113099E+02</rscale>
<asrwt>0</asrwt>
<pdfrwt beam="2">  1        3 0.19945935E-02 0.82113099E+02</pdfrwt>
<pdfrwt beam="1">  1       -3 0.20002477E-01 0.82113099E+02</pdfrwt>
<totfact> 0.42069331E+04</totfact>
</mgrwt>
</event>
<event>
 5    1  0.1401471E+000  0.9130971E+02  0.7818608E-02  0.1299711E+00
         -3   -1    0    0    0  501 -0.00000000000E+00  0.00000000000E+00  0.81451875196E+02  0.81451928288E+02  0.93000000000E-01 0.  1.
          3   -1    0    0  501    0  0.00000000000E+00 -0.00000000000E+00 -0.25590005784E+02  0.25590174775E+02  0.93000000000E-01 0. -1.
         23    2    1    2    0    0  0.00000000000E+00  0.00000000000E+00  0.55861869412E+02  0.10704210306E+03  0.91309711280E+02 0.  0.
        -13    1    3    3    0    0 -0.40529511926E+02 -0.10725201936E+02  0.67423874143E+01  0.42463422543E+02  0.10570000000E+00 0. -1.
         13    1    3    3    0    0  0.40529511926E+02  0.10725201936E+02  0.49119481998E+02  0.64578680520E+02  0.10570000000E+00 0.  1.
<mgrwt>
<rscale>  0 0.91309711E+02</rscale>
<asrwt>0</asrwt>
<pdfrwt beam="2">  1        3 0.39369410E-02 0.91309711E+02</pdfrwt>
<pdfrwt beam="1">  1       -3 0.12531075E-01 0.91309711E+02</pdfrwt>
<totfact> 0.34023023E+04</totfact>
</mgrwt>
</event>
<event>
 5    1  0.1401471E+000  0.9112201E+02  0.7818608E-02  0.1300157E+00
         -3   -1    0    0    0  501 -0.00000000000E+00  0.00000000000E+00  0.19899069328E+03  0.19899071501E+03  0.93000000000E-01 0.  1.
          3   -1    0    0  501    0  0.00000000000E+00 -0.00000000000E+00 -0.10431440203E+02  0.10431854759E+02  0.93000000000E-01 0. -1.
         23    2    1    2    0    0  0.00000000000E+00  0.00000000000E+00  0.18855925308E+03  0.20942256977E+03  0.91122010561E+02 0.  0.
        -13    1    3    3    0    0 -0.32581174337E+02 -0.19758489431E+02  0.36875266934E+02  0.53025723095E+02  0.10570000000E+00 0. -1.
         13    1    3    3    0    0  0.32581174337E+02  0.19758489431E+02  0.15168398614E+03  0.15639684668E+03  0.10570000000E+00 0.  1.
<mgrwt>
<rscale>  0 0.91122011E+02</rscale>
<asrwt>0</asrwt>
<pdfrwt beam="2">  1        3 0.16048706E-02 0.91122011E+02</pdfrwt>
<pdfrwt beam="1">  1       -3 0.30613984E-01 0.91122011E+02</pdfrwt>
<totfact> 0.28062406E+04</totfact>
</mgrwt>
</event>
<event>
 5    1  0.1401471E+000  0.8931205E+02  0.7818608E-02  0.1304526E+00
          3   -1    0    0  501    0  0.00000000000E+00  0.00000000000E+00  0.34221096137E+02  0.34221222506E+02  0.93000000000E-01 0. -1.
         -3   -1    0    0    0  501 -0.00000000000E+00 -0.00000000000E+00 -0.58272574875E+02  0.58272649086E+02  0.93000000000E-01 0.  1.
         23    2    1    2    0    0  0.00000000000E+00  0.00000000000E+00 -0.24051478738E+02  0.92493871593E+02  0.89312052113E+02 0.  0.
        -13    1    3    3    0    0  0.32340572597E+02  0.25374912449E+02  0.60414261568E+01  0.41548872670E+02  0.10570000000E+00 0. -1.
         13    1    3    3    0    0 -0.32340572597E+02 -0.25374912449E+02 -0.30092904895E+02  0.50944998922E+02  0.10570000000E+00 0.  1.
<mgrwt>
<rscale>  0 0.89312052E+02</rscale>
<asrwt>0</asrwt>
<pdfrwt beam="1">  1        3 0.52647994E-02 0.89312052E+02</pdfrwt>
<pdfrwt beam="2">  1       -3 0.89650270E-02 0.89312052E+02</pdfrwt>
<totfact> 0.37273422E+04</totfact>
</mgrwt>
</event>
<event>
 5    1  0.1401471E+000  0.1014015E+03  0.7818608E-02  0.1277376E+00
         -3   -1    0    0    0  501 -0.00000000000E+00  0.00000000000E+00  0.23261121793E+02  0.23261307703E+02  0.93000000000E-01 0.  1.
          3   -1    0    0  501    0  0.00000000000E+00 -0.00000000000E+00 -0.11050837638E+03  0.11050841551E+03  0.93000000000E-01 0. -1.
         23    2    1    2    0    0  0.00000000000E+00  0.00000000000E+00 -0.87247254586E+02  0.13376972321E+03  0.10140145668E+03 0.  0.
        -13    1    3    3    0    0 -0.49309812479E+02  0.27600994101E+01 -0.58750125683E+02  0.76750662510E+02  0.10570000000E+00 0. -1.
         13    1    3    3    0    0  0.49309812479E+02 -0.27600994101E+01 -0.28497128902E+02  0.57019060704E+02  0.10570000000E+00 0.  1.
<mgrwt>
<rscale>  0 0.10140146E+03</rscale>
<asrwt>0</asrwt>
<pdfrwt beam="2">  1        3 0.17001306E-01 0.10140146E+03</pdfrwt>
<pdfrwt beam="1">  1       -3 0.35786515E-02 0.10140146E+03</pdfrwt>
<totfact> 0.24181408E+04</totfact>
</mgrwt>
</event>
<event>
 5    1  0.1401471E+000  0.8416420E+02  0.7818608E-02  0.1317633E+00
          3   -1    0    0  501    0  0.00000000000E+00  0.00000000000E+00  0.10760785258E+02  0.10761187126E+02  0.93000000000E-01 0. -1.
         -3   -1    0    0    0  501 -0.00000000000E+00 -0.00000000000E+00 -0.16456658514E+03  0.16456661142E+03  0.93000000000E-01 0.  1.
         23    2    1    2    0    0  0.00000000000E+00  0.00000000000E+00 -0.15380579988E+03  0.17532779855E+03  0.84164201803E+02 0.  0.
        -13    1    3    3    0    0 -0.95515833307E+01  0.35175766075E+02 -0.33090806408E+02  0.49229868010E+02  0.10570000000E+00 0. -1.
         13    1    3    3    0    0  0.95515833307E+01 -0.35175766075E+02 -0.12071499348E+03  0.12609793054E+03  0.10570000000E+00 0.  1.
<mgrwt>
<rscale>  0 0.84164202E+02</rscale>
<asrwt>0</asrwt>
<pdfrwt beam="1">  1        3 0.16555385E-02 0.84164202E+02</pdfrwt>
<pdfrwt beam="2">  1       -3 0.25317967E-01 0.84164202E+02</pdfrwt>
<totfact> 0.36979610E+04</totfact>
</mgrwt>
</event>
<event>
 5    1  0.1401471E+000  0.9254627E+02  0.7818608E-02  0.1296800E+00
          3   -1    0    0  501    0  0.00000000000E+00  0.00000000000E+00  0.83089525652E+02  0.83089577699E+02  0.93000000000E-01 0. -1.
         -3   -1    0    0    0  501 -0.00000000000E+00 -0.00000000000E+00 -0.25769684404E+02  0.25769852217E+02  0.93000000000E-01 0.  1.
         23    2    1    2    0    0  0.00000000000E+00  0.00000000000E+00  0.57319841248E+02  0.10885942992E+03  0.92546265623E+02 0.  0.
        -13    1    3    3    0    0  0.43390993393E+02 -0.14341112552E+02  0.37202740031E+02  0.58927929330E+02  0.10570000000E+00 0.  1.
         13    1    3    3    0    0 -0.43390993393E+02  0.14341112552E+02  0.20117101217E+02  0.49931500585E+02  0.10570000000E+00 0. -1.
<mgrwt>
<rscale>  0 0.92546266E+02</rscale>
<asrwt>0</asrwt>
<pdfrwt beam="1">  1        3 0.12783021E-01 0.92546266E+02</pdfrwt>
<pdfrwt beam="2">  1       -3 0.39645838E-02 0.92546266E+02</pdfrwt>
<totfact> 0.32671476E+04</totfact>
</mgrwt>
</event>
<event>
 5    1  0.1401471E+000  0.8631616E+02  0.7818608E-02  0.1312026E+00
         -3   -1    0    0    0  501 -0.00000000000E+00  0.00000000000E+00  0.14834143045E+03  0.14834145961E+03  0.93000000000E-01 0.  1.
          3   -1    0    0  501    0  0.00000000000E+00 -0.00000000000E+00 -0.12556099647E+02  0.12556444057E+02  0.93000000000E-01 0. -1.
         23    2    1    2    0    0  0.00000000000E+00  0.00000000000E+00  0.13578533081E+03  0.16089790366E+03  0.86316159211E+02 0.  0.
        -13    1    3    3    0    0  0.75544300191E+01 -0.39405207634E+02  0.97528698028E+02  0.10545946099E+03  0.10570000000E+00 0.  1.
         13    1    3    3    0    0 -0.75544300191E+01  0.39405207634E+02  0.38256632780E+02  0.55438442670E+02  0.10570000000E+00 0. -1.
<mgrwt>
<rscale>  0 0.86316159E+02</rscale>
<asrwt>0</asrwt>
<pdfrwt beam="2">  1        3 0.19317365E-02 0.86316159E+02</pdfrwt>
<pdfrwt beam="1">  1       -3 0.22821785E-01 0.86316159E+02</pdfrwt>
<totfact> 0.35527719E+04</totfact>
</mgrwt>
</event>
<event>
 5    1  0.1401471E+000  0.9054564E+02  0.7818608E-02  0.1301536E+00
          3   -1    0    0  501    0  0.00000000000E+00  0.00000000000E+00  0.12345093081E+03  0.12345096584E+03  0.93000000000E-01 0. -1.
         -3   -1    0    0    0  501 -0.00000000000E+00 -0.00000000000E+00 -0.16602609024E+02  0.16602869493E+02  0.93000000000E-01 0.  1.
         23    2    1    2    0    0  0.00000000000E+00  0.00000000000E+00  0.10684832179E+03  0.14005383534E+03  0.90545640001E+02 0.  0.
        -13    1    3    3    0    0  0.23421026244E+02  0.62935325292E+01 -0.57076977328E+01  0.24914694619E+02  0.10570000000E+00 0.  1.
         13    1    3    3    0    0 -0.23421026244E+02 -0.62935325292E+01  0.11255601952E+03  0.11513914072E+03  0.10570000000E+00 0. -1.
<mgrwt>
<rscale>  0 0.90545640E+02</rscale>
<asrwt>0</asrwt>
<pdfrwt beam="1">  1        3 0.18992474E-01 0.90545640E+02</pdfrwt>
<pdfrwt beam="2">  1       -3 0.25542703E-02 0.90545640E+02</pdfrwt>
<totfact> 0.32532726E+04</totfact>
</mgrwt>
</event>
<event>
 5    1  0.1401471E+000  0.8847199E+02  0.7818608E-02  0.1306595E+00
          3   -1    0    0  501    0  0.00000000000E+00  0.00000000000E+00  0.32166763289E+02  0.32166897729E+02  0.93000000000E-01 0. -1.
         -3   -1    0    0    0  501 -0.00000000000E+00 -0.00000000000E+00 -0.60833409699E+02  0.60833480787E+02  0.93000000000E-01 0.  1.
         23    2    1    2    0    0  0.00000000000E+00  0.00000000000E+00 -0.28666646410E+02  0.93000378516E+02  0.88471994369E+02 0.  0.
        -13    1    3    3    0    0  0.20109372233E+02 -0.31466828453E+02 -0.39259122165E+02  0.54183373742E+02  0.10570000000E+00 0.  1.
         13    1    3    3    0    0 -0.20109372233E+02  0.31466828453E+02  0.10592475755E+02  0.38817004773E+02  0.10570000000E+00 0. -1.
<mgrwt>
<rscale>  0 0.88471994E+02</rscale>
<asrwt>0</asrwt>
<pdfrwt beam="1">  1        3 0.49487486E-02 0.88471994E+02</pdfrwt>
<pdfrwt beam="2">  1       -3 0.93590019E-02 0.88471994E+02</pdfrwt>
<totfact> 0.38198425E+04</totfact>
</mgrwt>
</event>
<event>
 5    1  0.1401471E+000  0.9292354E+02  0.7818608E-02  0.1295922E+00
          3   -1    0    0  501    0  0.00000000000E+00  0.00000000000E+00  0.14582794279E+03  0.14582797244E+03  0.93000000000E-01 0. -1.
         -3   -1    0    0    0  501 -0.00000000000E+00 -0.00000000000E+00 -0.14802856952E+02  0.14803149088E+02  0.93000000000E-01 0.  1.
         23    2    1    2    0    0  0.00000000000E+00  0.00000000000E+00  0.13102508584E+03  0.16063112153E+03  0.92923538923E+02 0.  0.
        -13    1    3    3    0    0 -0.36215133436E+02 -0.19091613746E+01  0.11571760860E+03  0.12126729526E+03  0.10570000000E+00 0. -1.
         13    1    3    3    0    0  0.36215133436E+02  0.19091613746E+01  0.15307477236E+02  0.39363826271E+02  0.10570000000E+00 0.  1.
<mgrwt>
<rscale>  0 0.92923539E+02</rscale>
<asrwt>0</asrwt>
<pdfrwt beam="1">  1        3 0.22435093E-01 0.92923539E+02</pdfrwt>
<pdfrwt beam="2">  1       -3 0.22773873E-02 0.92923539E+02</pdfrwt>
<totfact> 0.29130169E+04</totfact>
</mgrwt>
</event>
<event>
 5    1  0.1401471E+000  0.9366724E+02  0.7818608E-02  0.1294206E+00
          3   -1    0    0  501    0  0.00000000000E+00  0.00000000000E+00  0.44126926477E+02  0.44127024479E+02  0.93000000000E-01 0. -1.
         -3   -1    0    0    0  501 -0.00000000000E+00 -0.00000000000E+00 -0.49706145729E+02  0.49706232730E+02  0.93000000000E-01 0.  1.
         23    2    1    2    0    0  0.00000000000E+00  0.00000000000E+00 -0.55792192518E+01  0.93833257209E+02  0.93667243319E+02 0.  0.
        -13    1    3    3    0    0 -0.34343115257E+02 -0.85150124263E+00 -0.34676865167E+02  0.48812608722E+02  0.10570000000E+00 0.  1.
         13    1    3    3    0    0  0.34343115257E+02  0.85150124263E+00  0.29097645915E+02  0.45020648487E+02  0.10570000000E+00 0. -1.
<mgrwt>
<rscale>  0 0.93667243E+02</rscale>
<asrwt>0</asrwt>
<pdfrwt beam="1">  1        3 0.67887721E-02 0.93667243E+02</pdfrwt>
<pdfrwt beam="2">  1       -3 0.76471136E-02 0.93667243E+02</pdfrwt>
<totfact> 0.32641168E+04</totfact>
</mgrwt>
</event>
<event>
 5    1  0.1401471E+000  0.9184341E+02  0.7818608E-02  0.1298448E+00
         -3   -1    0    0    0  501 -0.00000000000E+00  0.00000000000E+00  0.31068078681E+03  0.31068080073E+03  0.93000000000E-01 0.  1.
          3   -1    0    0  501    0  0.00000000000E+00 -0.00000000000E+00 -0.67873513398E+01  0.67879884509E+01  0.93000000000E-01 0. -1.
         23    2    1    2    0    0  0.00000000000E+00  0.00000000000E+00  0.30389343547E+03  0.31746878918E+03  0.91843410116E+02 0.  0.
        -13    1    3    3    0    0  0.31504761134E+02  0.27313643194E+02  0.21845491836E+03  0.22239862321E+03  0.10570000000E+00 0. -1.
         13    1    3    3    0    0 -0.31504761134E+02 -0.27313643194E+02  0.85438517108E+02  0.95070165966E+02  0.10570000000E+00 0.  1.
<mgrwt>
<rscale>  0 0.91843410E+02</rscale>
<asrwt>0</asrwt>
<pdfrwt beam="2">  1        3 0.10442581E-02 0.91843410E+02</pdfrwt>
<pdfrwt beam="1">  1       -3 0.47797088E-01 0.91843410E+02</pdfrwt>
<totfact> 0.22909041E+04</totfact>
</mgrwt>
</event>
<event>
 5    1  0.1401471E+000  0.1024448E+03  0.7818608E-02  0.1275237E+00
          3   -1    0    0  501    0  0.00000000000E+00  0.00000000000E+00  0.10991392397E+03  0.10991396331E+03  0.93000000000E-01 0. -1.
         -3   -1    0    0    0  501 -0.00000000000E+00 -0.00000000000E+00 -0.23870669268E+02  0.23870850431E+02  0.93000000000E-01 0.  1.
         23    2    1    2    0    0  0.00000000000E+00  0.00000000000E+00  0.86043254699E+02  0.13378481374E+03  0.10244478859E+03 0.  0.
        -13    1    3    3    0    0  0.29699363644E+02  0.37709708845E+02  0.19673446205E+02  0.51876102399E+02  0.10570000000E+00 0.  1.
         13    1    3    3    0    0 -0.29699363644E+02 -0.37709708845E+02  0.66369808495E+02  0.81908711344E+02  0.10570000000E+00 0. -1.
<mgrwt>
<rscale>  0 0.10244479E+03</rscale>
<asrwt>0</asrwt>
<pdfrwt beam="1">  1        3 0.16909851E-01 0.10244479E+03</pdfrwt>
<pdfrwt beam="2">  1       -3 0.36724276E-02 0.10244479E+03</pdfrwt>
<totfact> 0.23509676E+04</totfact>
</mgrwt>
</event>
<event>
 5    1  0.1401471E+000  0.9443118E+02  0.7818608E-02  0.1292462E+00
         -3   -1    0    0    0  501 -0.00000000000E+00  0.00000000000E+00  0.11374792257E+03  0.11374796059E+03  0.93000000000E-01 0.  1.
          3   -1    0    0  501    0  0.00000000000E+00 -0.00000000000E+00 -0.19598552088E+02  0.19598772741E+02  0.93000000000E-01 0. -1.
         23    2    1    2    0    0  0.00000000000E+00  0.00000000000E+00  0.94149370483E+02  0.13334673333E+03  0.94431177730E+02 0.  0.
        -13    1    3    3    0    0  0.73381071266E+01 -0.46435596180E+02  0.53260325589E+02  0.71040733830E+02  0.10570000000E+00 0.  1.
         13    1    3    3    0    0 -0.73381071266E+01  0.46435596180E+02  0.40889044894E+02  0.62305999500E+02  0.10570000000E+00 0. -1.
<mgrwt>
<rscale>  0 0.94431178E+02</rscale>
<asrwt>0</asrwt>
<pdfrwt beam="2">  1        3 0.30151818E-02 0.94431178E+02</pdfrwt>
<pdfrwt beam="1">  1       -3 0.17499700E-01 0.94431178E+02</pdfrwt>
<totfact> 0.29412634E+04</totfact>
</mgrwt>
</event>
<event>
 5    1  0.1401471E+000  0.9637157E+02  0.7818608E-02  0.1288117E+00
         -3   -1    0    0    0  501 -0.00000000000E+00  0.00000000000E+00  0.73940255590E+02  0.73940314076E+02  0.93000000000E-01 0.  1.
          3   -1    0    0  501    0  0.00000000000E+00 -0.00000000000E+00 -0.31401831019E+02  0.31401968733E+02  0.93000000000E-01 0. -1.
         23    2    1    2    0    0  0.00000000000E+00  0.00000000000E+00  0.42538424571E+02  0.10534228281E+03  0.96371567293E+02 0.  0.
        -13    1    3    3    0    0 -0.28833905456E+02  0.38166769371E+02  0.14917817958E+02  0.50106375374E+02  0.10570000000E+00 0.  1.
         13    1    3    3    0    0  0.28833905456E+02 -0.38166769371E+02  0.27620606613E+02  0.55235907435E+02  0.10570000000E+00 0. -1.
<mgrwt>
<rscale>  0 0.96371567E+02</rscale>
<asrwt>0</asrwt>
<pdfrwt beam="2">  1        3 0.48310660E-02 0.96371567E+02</pdfrwt>
<pdfrwt beam="1">  1       -3 0.11375439E-01 0.96371567E+02</pdfrwt>
<totfact> 0.29463229E+04</totfact>
</mgrwt>
</event>
<event>
 5    1  0.1401471E+000  0.9654862E+02  0.7818608E-02  0.1287726E+00
          3   -1    0    0  501    0  0.00000000000E+00  0.00000000000E+00  0.71334222171E+02  0.71334282794E+02  0.93000000000E-01 0. -1.
         -3   -1    0    0    0  501 -0.00000000000E+00 -0.00000000000E+00 -0.32668736490E+02  0.32668868864E+02  0.93000000000E-01 0.  1.
         23    2    1    2    0    0  0.00000000000E+00  0.00000000000E+00  0.38665485681E+02  0.10400315166E+03  0.96548618694E+02 0.  0.
        -13    1    3    3    0    0  0.10291459082E+02 -0.15231276704E+02 -0.28751049425E+02  0.34125356197E+02  0.10570000000E+00 0.  1.
         13    1    3    3    0    0 -0.10291459082E+02  0.15231276704E+02  0.67416535107E+02  0.69877795460E+02  0.10570000000E+00 0. -1.
<mgrwt>
<rscale>  0 0.96548619E+02</rscale>
<asrwt>0</asrwt>
<pdfrwt beam="1">  1        3 0.10974510E-01 0.96548619E+02</pdfrwt>
<pdfrwt beam="2">  1       -3 0.50259744E-02 0.96548619E+02</pdfrwt>
<totfact> 0.29396863E+04</totfact>
</mgrwt>
</event>
<event>
 5    1  0.1401471E+000  0.9174774E+02  0.7818608E-02  0.1298674E+00
         -3   -1    0    0    0  501 -0.00000000000E+00  0.00000000000E+00  0.24515840381E+02  0.24516016777E+02  0.93000000000E-01 0.  1.
          3   -1    0    0  501    0  0.00000000000E+00 -0.00000000000E+00 -0.85838357455E+02  0.85838407835E+02  0.93000000000E-01 0. -1.
         23    2    1    2    0    0  0.00000000000E+00  0.00000000000E+00 -0.61322517074E+02  0.11035442461E+03  0.91747740741E+02 0.  0.
        -13    1    3    3    0    0  0.41140994872E+02  0.12490167342E+02 -0.11423368615E+02  0.44486967330E+02  0.10570000000E+00 0.  1.
         13    1    3    3    0    0 -0.41140994872E+02 -0.12490167342E+02 -0.49899148459E+02  0.65867457281E+02  0.10570000000E+00 0. -1.
<mgrwt>
<rscale>  0 0.91747741E+02</rscale>
<asrwt>0</asrwt>
<pdfrwt beam="2">  1        3 0.13205918E-01 0.91747741E+02</pdfrwt>
<pdfrwt beam="1">  1       -3 0.37716852E-02 0.91747741E+02</pdfrwt>
<totfact> 0.33347688E+04</totfact>
</mgrwt>
</event>
<event>
 5    1  0.1401471E+000  0.9186670E+02  0.7818608E-02  0.1298393E+00
         -3   -1    0    0    0  501 -0.00000000000E+00  0.00000000000E+00  0.56232885980E+02  0.56232962883E+02  0.93000000000E-01 0. -1.
          3   -1    0    0  501    0  0.00000000000E+00 -0.00000000000E+00 -0.37520102150E+02  0.37520217408E+02  0.93000000000E-01 0.  1.
         23    2    1    2    0    0  0.00000000000E+00  0.00000000000E+00  0.18712783830E+02  0.93753180291E+02  0.91866699821E+02 0.  0.
        -13    1    3    3    0    0 -0.35256535972E+01 -0.14002659154E+02 -0.35143576284E+02  0.37994563074E+02  0.10570000000E+00 0.  1.
         13    1    3    3    0    0  0.35256535972E+01  0.14002659154E+02  0.53856360114E+02  0.55758617216E+02  0.10570000000E+00 0. -1.
<mgrwt>
<rscale>  0 0.91866700E+02</rscale>
<asrwt>0</asrwt>
<pdfrwt beam="2">  1        3 0.57723382E-02 0.91866700E+02</pdfrwt>
<pdfrwt beam="1">  1       -3 0.86512280E-02 0.91866700E+02</pdfrwt>
<totfact> 0.34426702E+04</totfact>
</mgrwt>
</event>
<event>
 5    1  0.1401471E+000  0.9052302E+02  0.7818608E-02  0.1301590E+00
         -3   -1    0    0    0  501 -0.00000000000E+00  0.00000000000E+00  0.69885522646E+02  0.69885584526E+02  0.93000000000E-01 0. -1.
          3   -1    0    0  501    0  0.00000000000E+00 -0.00000000000E+00 -0.29313565608E+02  0.29313713133E+02  0.93000000000E-01 0.  1.
         23    2    1    2    0    0  0.00000000000E+00  0.00000000000E+00  0.40571957038E+02  0.99199297659E+02  0.90523018941E+02 0.  0.
        -13    1    3    3    0    0 -0.16950836823E+02 -0.31427492922E+02  0.50764980999E+02  0.62065390104E+02  0.10570000000E+00 0. -1.
         13    1    3    3    0    0  0.16950836823E+02  0.31427492922E+02 -0.10193023961E+02  0.37133907556E+02  0.10570000000E+00 0.  1.
<mgrwt>
<rscale>  0 0.90523019E+02</rscale>
<asrwt>0</asrwt>
<pdfrwt beam="2">  1        3 0.45097954E-02 0.90523019E+02</pdfrwt>
<pdfrwt beam="1">  1       -3 0.10751635E-01 0.90523019E+02</pdfrwt>
<totfact> 0.35417956E+04</totfact>
</mgrwt>
</event>
<event>
 5    1  0.1401471E+000  0.9226017E+02  0.7818608E-02  0.1297469E+00
         -3   -1    0    0    0  501 -0.00000000000E+00  0.00000000000E+00  0.13119539116E+03  0.13119542412E+03  0.93000000000E-01 0.  1.
          3   -1    0    0  501    0  0.00000000000E+00 -0.00000000000E+00 -0.16219795710E+02  0.16220062327E+02  0.93000000000E-01 0. -1.
         23    2    1    2    0    0  0.00000000000E+00  0.00000000000E+00  0.11497559545E+03  0.14741548645E+03  0.92260165272E+02 0.  0.
        -13    1    3    3    0    0 -0.26537616391E+02 -0.14157675430E+02  0.16030458398E+01  0.30120853005E+02  0.10570000000E+00 0. -1.
         13    1    3    3    0    0  0.26537616391E+02  0.14157675430E+02  0.11337254961E+03  0.11729463344E+03  0.10570000000E+00 0.  1.
<mgrwt>
<rscale>  0 0.92260165E+02</rscale>
<asrwt>0</asrwt>
<pdfrwt beam="2">  1        3 0.24953762E-02 0.92260165E+02</pdfrwt>
<pdfrwt beam="1">  1       -3 0.20183930E-01 0.92260165E+02</pdfrwt>
<totfact> 0.30474035E+04</totfact>
</mgrwt>
</event>
<event>
 5    1  0.1401471E+000  0.9130815E+02  0.7818608E-02  0.1299714E+00
          3   -1    0    0  501    0  0.00000000000E+00  0.00000000000E+00  0.10644425589E+03  0.10644429651E+03  0.93000000000E-01 0. -1.
         -3   -1    0    0    0  501 -0.00000000000E+00 -0.00000000000E+00 -0.19580934554E+02  0.19581155405E+02  0.93000000000E-01 0.  1.
         23    2    1    2    0    0  0.00000000000E+00  0.00000000000E+00  0.86863321334E+02  0.12602545192E+03  0.91308148259E+02 0.  0.
        -13    1    3    3    0    0 -0.60415245586E+01  0.43753825226E+02  0.27491086194E+02  0.52025649766E+02  0.10570000000E+00 0. -1.
         13    1    3    3    0    0  0.60415245586E+01 -0.43753825226E+02  0.59372235139E+02  0.73999802154E+02  0.10570000000E+00 0.  1.
<mgrwt>
<rscale>  0 0.91308148E+02</rscale>
<asrwt>0</asrwt>
<pdfrwt beam="1">  1        3 0.16376059E-01 0.91308148E+02</pdfrwt>
<pdfrwt beam="2">  1       -3 0.30124716E-02 0.91308148E+02</pdfrwt>
<totfact> 0.32710939E+04</totfact>
</mgrwt>
</event>
<event>
 5    1  0.1401471E+000  0.8287850E+02  0.7818608E-02  0.1321076E+00
          3   -1    0    0  501    0  0.00000000000E+00  0.00000000000E+00  0.26230444157E+02  0.26230609022E+02  0.93000000000E-01 0. -1.
         -3   -1    0    0    0  501 -0.00000000000E+00 -0.00000000000E+00 -0.65465944176E+02  0.65466010233E+02  0.93000000000E-01 0.  1.
         23    2    1    2    0    0  0.00000000000E+00  0.00000000000E+00 -0.39235500019E+02  0.91696619256E+02  0.82878498546E+02 0.  0.
        -13    1    3    3    0    0 -0.27425753295E+01  0.16980612864E+02  0.22094154756E+02  0.28000460345E+02  0.10570000000E+00 0. -1.
         13    1    3    3    0    0  0.27425753295E+01 -0.16980612864E+02 -0.61329654775E+02  0.63696158911E+02  0.10570000000E+00 0.  1.
<mgrwt>
<rscale>  0 0.82878499E+02</rscale>
<asrwt>0</asrwt>
<pdfrwt beam="1">  1        3 0.40354707E-02 0.82878499E+02</pdfrwt>
<pdfrwt beam="2">  1       -3 0.10071701E-01 0.82878499E+02</pdfrwt>
<totfact> 0.45697410E+04</totfact>
</mgrwt>
</event>
<event>
 5    1  0.1401471E+000  0.9034467E+02  0.7818608E-02  0.1302019E+00
         -3   -1    0    0    0  501 -0.00000000000E+00  0.00000000000E+00  0.22188944165E+03  0.22188946114E+03  0.93000000000E-01 0.  1.
          3   -1    0    0  501    0  0.00000000000E+00 -0.00000000000E+00 -0.91959464425E+01  0.91964166921E+01  0.93000000000E-01 0. -1.
         23    2    1    2    0    0  0.00000000000E+00  0.00000000000E+00  0.21269349521E+03  0.23108587783E+03  0.90344673499E+02 0.  0.
        -13    1    3    3    0    0  0.70965284823E+01 -0.42433998984E+02  0.14155972811E+03  0.14795327905E+03  0.10570000000E+00 0.  1.
         13    1    3    3    0    0 -0.70965284823E+01  0.42433998984E+02  0.71133767095E+02  0.83132598780E+02  0.10570000000E+00 0. -1.
<mgrwt>
<rscale>  0 0.90344673E+02</rscale>
<asrwt>0</asrwt>
<pdfrwt beam="2">  1        3 0.14147989E-02 0.90344673E+02</pdfrwt>
<pdfrwt beam="1">  1       -3 0.34136870E-01 0.90344673E+02</pdfrwt>
<totfact> 0.27637321E+04</totfact>
</mgrwt>
</event>
<event>
 5    1  0.1401471E+000  0.9099287E+02  0.7818608E-02  0.1300465E+00
         -3   -1    0    0    0  501 -0.00000000000E+00  0.00000000000E+00  0.30125580843E+02  0.30125724391E+02  0.93000000000E-01 0.  1.
          3   -1    0    0  501    0  0.00000000000E+00 -0.00000000000E+00 -0.68709559070E+02  0.68709622009E+02  0.93000000000E-01 0. -1.
         23    2    1    2    0    0  0.00000000000E+00  0.00000000000E+00 -0.38583978228E+02  0.98835346400E+02  0.90992869623E+02 0.  0.
        -13    1    3    3    0    0 -0.23535949170E+02 -0.20850050497E+02  0.16424418141E+02  0.35474472411E+02  0.10570000000E+00 0.  1.
         13    1    3    3    0    0  0.23535949170E+02  0.20850050497E+02 -0.55008396369E+02  0.63360873989E+02  0.10570000000E+00 0. -1.
<mgrwt>
<rscale>  0 0.90992870E+02</rscale>
<asrwt>0</asrwt>
<pdfrwt beam="2">  1        3 0.10570717E-01 0.90992870E+02</pdfrwt>
<pdfrwt beam="1">  1       -3 0.46347206E-02 0.90992870E+02</pdfrwt>
<totfact> 0.34949376E+04</totfact>
</mgrwt>
</event>
<event>
 5    1  0.1401471E+000  0.9354357E+02  0.7818608E-02  0.1294490E+00
          3   -1    0    0  501    0  0.00000000000E+00  0.00000000000E+00  0.63001783970E+02  0.63001852611E+02  0.93000000000E-01 0. -1.
         -3   -1    0    0    0  501 -0.00000000000E+00 -0.00000000000E+00 -0.34722676675E+02  0.34722801219E+02  0.93000000000E-01 0.  1.
         23    2    1    2    0    0  0.00000000000E+00  0.00000000000E+00  0.28279107295E+02  0.97724653830E+02  0.93543573039E+02 0.  0.
        -13    1    3    3    0    0 -0.29367843693E+02  0.35871762413E+02  0.76712649926E+01  0.46990563530E+02  0.10570000000E+00 0.  1.
         13    1    3    3    0    0  0.29367843693E+02 -0.35871762413E+02  0.20607842302E+02  0.50734090300E+02  0.10570000000E+00 0. -1.
<mgrwt>
<rscale>  0 0.93543573E+02</rscale>
<asrwt>0</asrwt>
<pdfrwt beam="1">  1        3 0.96925970E-02 0.93543573E+02</pdfrwt>
<pdfrwt beam="2">  1       -3 0.53419651E-02 0.93543573E+02</pdfrwt>
<totfact> 0.32486029E+04</totfact>
</mgrwt>
</event>
<event>
 5    1  0.1401471E+000  0.8869257E+02  0.7818608E-02  0.1306049E+00
          3   -1    0    0  501    0  0.00000000000E+00  0.00000000000E+00  0.71563804729E+01  0.71569847333E+01  0.93000000000E-01 0. -1.
         -3   -1    0    0    0  501 -0.00000000000E+00 -0.00000000000E+00 -0.27479054753E+03  0.27479056327E+03  0.93000000000E-01 0.  1.
         23    2    1    2    0    0  0.00000000000E+00  0.00000000000E+00 -0.26763416706E+03  0.28194754800E+03  0.88692572673E+02 0.  0.
        -13    1    3    3    0    0  0.46215837266E+01  0.41963791060E+02 -0.17696902171E+03  0.18193505603E+03  0.10570000000E+00 0.  1.
         13    1    3    3    0    0 -0.46215837266E+01 -0.41963791060E+02 -0.90665145345E+02  0.10001249197E+03  0.10570000000E+00 0. -1.
<mgrwt>
<rscale>  0 0.88692573E+02</rscale>
<asrwt>0</asrwt>
<pdfrwt beam="1">  1        3 0.11010295E-02 0.88692573E+02</pdfrwt>
<pdfrwt beam="2">  1       -3 0.42275508E-01 0.88692573E+02</pdfrwt>
<totfact> 0.26640340E+04</totfact>
</mgrwt>
</event>
<event>
 5    1  0.1401471E+000  0.8392125E+02  0.7818608E-02  0.1318278E+00
          3   -1    0    0  501    0  0.00000000000E+00  0.00000000000E+00  0.17803371516E+03  0.17803373945E+03  0.93000000000E-01 0. -1.
         -3   -1    0    0    0  501 -0.00000000000E+00 -0.00000000000E+00 -0.98894216367E+01  0.98898589125E+01  0.93000000000E-01 0.  1.
         23    2    1    2    0    0  0.00000000000E+00  0.00000000000E+00  0.16814429352E+03  0.18792359836E+03  0.83921245088E+02 0.  0.
        -13    1    3    3    0    0 -0.27148340813E+02 -0.29051085703E+02  0.11408898393E+03  0.12081930895E+03  0.10570000000E+00 0. -1.
         13    1    3    3    0    0  0.27148340813E+02  0.29051085703E+02  0.54055309594E+02  0.67104289410E+02  0.10570000000E+00 0.  1.
<mgrwt>
<rscale>  0 0.83921245E+02</rscale>
<asrwt>0</asrwt>
<pdfrwt beam="1">  1        3 0.27389837E-01 0.83921245E+02</pdfrwt>
<pdfrwt beam="2">  1       -3 0.15214850E-02 0.83921245E+02</pdfrwt>
<totfact> 0.36396811E+04</totfact>
</mgrwt>
</event>
<event>
 5    1  0.1401471E+000  0.9061733E+02  0.7818608E-02  0.1301364E+00
         -3   -1    0    0    0  501 -0.00000000000E+00  0.00000000000E+00  0.42839214528E+03  0.42839215538E+03  0.93000000000E-01 0.  1.
          3   -1    0    0  501    0  0.00000000000E+00 -0.00000000000E+00 -0.47915856568E+01  0.47924880914E+01  0.93000000000E-01 0. -1.
         23    2    1    2    0    0  0.00000000000E+00  0.00000000000E+00  0.42360055963E+03  0.43318464347E+03  0.90617334003E+02 0.  0.
        -13    1    3    3    0    0 -0.24061181622E+02 -0.38391621855E+02  0.21139909199E+03  0.21620001007E+03  0.10570000000E+00 0.  1.
         13    1    3    3    0    0  0.24061181622E+02  0.38391621855E+02  0.21220146764E+03  0.21698463340E+03  0.10570000000E+00 0. -1.
<mgrwt>
<rscale>  0 0.90617334E+02</rscale>
<asrwt>0</asrwt>
<pdfrwt beam="2">  1        3 0.73723715E-03 0.90617334E+02</pdfrwt>
<pdfrwt beam="1">  1       -3 0.65906560E-01 0.90617334E+02</pdfrwt>
<totfact> 0.19958939E+04</totfact>
</mgrwt>
</event>
<event>
 5    1  0.1401471E+000  0.8923434E+02  0.7818608E-02  0.1304717E+00
          3   -1    0    0  501    0  0.00000000000E+00  0.00000000000E+00  0.13951844420E+02  0.13952154376E+02  0.93000000000E-01 0. -1.
         -3   -1    0    0    0  501 -0.00000000000E+00 -0.00000000000E+00 -0.14268115923E+03  0.14268118954E+03  0.93000000000E-01 0.  1.
         23    2    1    2    0    0  0.00000000000E+00  0.00000000000E+00 -0.12872931481E+03  0.15663334392E+03  0.89234342797E+02 0.  0.
        -13    1    3    3    0    0  0.19669738192E+02  0.39206111651E+02 -0.78696257521E+02  0.90095115914E+02  0.10570000000E+00 0.  1.
         13    1    3    3    0    0 -0.19669738192E+02 -0.39206111651E+02 -0.50033057291E+02  0.66538228003E+02  0.10570000000E+00 0. -1.
<mgrwt>
<rscale>  0 0.89234343E+02</rscale>
<asrwt>0</asrwt>
<pdfrwt beam="1">  1        3 0.21464639E-02 0.89234343E+02</pdfrwt>
<pdfrwt beam="2">  1       -3 0.21950973E-01 0.89234343E+02</pdfrwt>
<totfact> 0.32756958E+04</totfact>
</mgrwt>
</event>
<event>
 5    1  0.1401471E+000  0.8939848E+02  0.7818608E-02  0.1304315E+00
          3   -1    0    0  501    0  0.00000000000E+00  0.00000000000E+00  0.13549445961E+02  0.13549765122E+02  0.93000000000E-01 0. -1.
         -3   -1    0    0    0  501 -0.00000000000E+00 -0.00000000000E+00 -0.14745946167E+03  0.14745949099E+03  0.93000000000E-01 0.  1.
         23    2    1    2    0    0  0.00000000000E+00  0.00000000000E+00 -0.13391001571E+03  0.16100925612E+03  0.89398480125E+02 0.  0.
        -13    1    3    3    0    0 -0.42240084219E+02 -0.60812442509E+01 -0.90902913656E+02  0.10042189567E+03  0.10570000000E+00 0.  1.
         13    1    3    3    0    0  0.42240084219E+02  0.60812442509E+01 -0.43007102050E+02  0.60587360445E+02  0.10570000000E+00 0. -1.
<mgrwt>
<rscale>  0 0.89398480E+02</rscale>
<asrwt>0</asrwt>
<pdfrwt beam="1">  1        3 0.20845571E-02 0.89398480E+02</pdfrwt>
<pdfrwt beam="2">  1       -3 0.22686097E-01 0.89398480E+02</pdfrwt>
<totfact> 0.32320879E+04</totfact>
</mgrwt>
</event>
<event>
 5    1  0.1401471E+000  0.8916925E+02  0.7818608E-02  0.1304876E+00
          3   -1    0    0  501    0  0.00000000000E+00  0.00000000000E+00  0.19492515080E+02  0.19492736933E+02  0.93000000000E-01 0. -1.
         -3   -1    0    0    0  501 -0.00000000000E+00 -0.00000000000E+00 -0.10197620428E+03  0.10197624669E+03  0.93000000000E-01 0.  1.
         23    2    1    2    0    0  0.00000000000E+00  0.00000000000E+00 -0.82483689205E+02  0.12146898362E+03  0.89169249172E+02 0.  0.
        -13    1    3    3    0    0 -0.21152336505E+02  0.33136263299E+02 -0.12591457016E+02  0.41279404638E+02  0.10570000000E+00 0. -1.
         13    1    3    3    0    0  0.21152336505E+02 -0.33136263299E+02 -0.69892232189E+02  0.80189578986E+02  0.10570000000E+00 0.  1.
<mgrwt>
<rscale>  0 0.89169249E+02</rscale>
<asrwt>0</asrwt>
<pdfrwt beam="1">  1        3 0.29988689E-02 0.89169249E+02</pdfrwt>
<pdfrwt beam="2">  1       -3 0.15688667E-01 0.89169249E+02</pdfrwt>
<totfact> 0.35207985E+04</totfact>
</mgrwt>
</event>
<event>
 5    1  0.1401471E+000  0.1021445E+03  0.7818608E-02  0.1275850E+00
         -3   -1    0    0    0  501 -0.00000000000E+00  0.00000000000E+00  0.20423005744E+02  0.20423217489E+02  0.93000000000E-01 0.  1.
          3   -1    0    0  501    0  0.00000000000E+00 -0.00000000000E+00 -0.12771658484E+03  0.12771661870E+03  0.93000000000E-01 0. -1.
         23    2    1    2    0    0  0.00000000000E+00  0.00000000000E+00 -0.10729357910E+03  0.14813983619E+03  0.10214450035E+03 0.  0.
        -13    1    3    3    0    0 -0.31031186952E+02  0.29747965464E+02 -0.13652045051E+02  0.45102832721E+02  0.10570000000E+00 0.  1.
         13    1    3    3    0    0  0.31031186952E+02 -0.29747965464E+02 -0.93641534048E+02  0.10303700347E+03  0.10570000000E+00 0. -1.
<mgrwt>
<rscale>  0 0.10214450E+03</rscale>
<asrwt>0</asrwt>
<pdfrwt beam="2">  1        3 0.19648724E-01 0.10214450E+03</pdfrwt>
<pdfrwt beam="1">  1       -3 0.31420199E-02 0.10214450E+03</pdfrwt>
<totfact> 0.23045197E+04</totfact>
</mgrwt>
</event>
<event>
 5    1  0.1401471E+000  0.9077787E+02  0.7818608E-02  0.1300979E+00
         -3   -1    0    0    0  501 -0.00000000000E+00  0.00000000000E+00  0.94502797312E+02  0.94502843072E+02  0.93000000000E-01 0.  1.
          3   -1    0    0  501    0  0.00000000000E+00 -0.00000000000E+00 -0.21799790226E+02  0.21799988598E+02  0.93000000000E-01 0. -1.
         23    2    1    2    0    0  0.00000000000E+00  0.00000000000E+00  0.72703007086E+02  0.11630283167E+03  0.90777868532E+02 0.  0.
        -13    1    3    3    0    0 -0.44335900652E+02  0.64591456050E+01  0.45656749336E+02  0.63968293559E+02  0.10570000000E+00 0. -1.
         13    1    3    3    0    0  0.44335900652E+02 -0.64591456050E+01  0.27046257750E+02  0.52334538111E+02  0.10570000000E+00 0.  1.
<mgrwt>
<rscale>  0 0.90777869E+02</rscale>
<asrwt>0</asrwt>
<pdfrwt beam="2">  1        3 0.33538326E-02 0.90777869E+02</pdfrwt>
<pdfrwt beam="1">  1       -3 0.14538911E-01 0.90777869E+02</pdfrwt>
<totfact> 0.33904052E+04</totfact>
</mgrwt>
</event>
<event>
 5    1  0.1401471E+000  0.9195513E+02  0.7818608E-02  0.1298185E+00
          3   -1    0    0  501    0  0.00000000000E+00  0.00000000000E+00  0.12591242643E+03  0.12591246078E+03  0.93000000000E-01 0. -1.
         -3   -1    0    0    0  501 -0.00000000000E+00 -0.00000000000E+00 -0.16788775584E+02  0.16789033165E+02  0.93000000000E-01 0.  1.
         23    2    1    2    0    0  0.00000000000E+00  0.00000000000E+00  0.10912365085E+03  0.14270149394E+03  0.91955126007E+02 0.  0.
        -13    1    3    3    0    0  0.37442273620E+02 -0.66531402980E+01  0.94662834029E+02  0.10201593723E+03  0.10570000000E+00 0. -1.
         13    1    3    3    0    0 -0.37442273620E+02  0.66531402980E+01  0.14460816820E+02  0.40685556715E+02  0.10570000000E+00 0.  1.
<mgrwt>
<rscale>  0 0.91955126E+02</rscale>
<asrwt>0</asrwt>
<pdfrwt beam="1">  1        3 0.19371164E-01 0.91955126E+02</pdfrwt>
<pdfrwt beam="2">  1       -3 0.25829112E-02 0.91955126E+02</pdfrwt>
<totfact> 0.31034950E+04</totfact>
</mgrwt>
</event>
<event>
 5    1  0.1401471E+000  0.9085988E+02  0.7818608E-02  0.1300783E+00
          3   -1    0    0  501    0  0.00000000000E+00  0.00000000000E+00  0.13764470197E+03  0.13764473339E+03  0.93000000000E-01 0. -1.
         -3   -1    0    0    0  501 -0.00000000000E+00 -0.00000000000E+00 -0.14994076811E+02  0.14994365222E+02  0.93000000000E-01 0.  1.
         23    2    1    2    0    0  0.00000000000E+00  0.00000000000E+00  0.12265062516E+03  0.15263909861E+03  0.90859884288E+02 0.  0.
        -13    1    3    3    0    0 -0.81181528068E+01 -0.44076720825E+02  0.73807471054E+02  0.86349381466E+02  0.10570000000E+00 0. -1.
         13    1    3    3    0    0  0.81181528068E+01  0.44076720825E+02  0.48843154109E+02  0.66289717147E+02  0.10570000000E+00 0.  1.
<mgrwt>
<rscale>  0 0.90859884E+02</rscale>
<asrwt>0</asrwt>
<pdfrwt beam="1">  1        3 0.21176133E-01 0.90859884E+02</pdfrwt>
<pdfrwt beam="2">  1       -3 0.23068056E-02 0.90859884E+02</pdfrwt>
<totfact> 0.31441269E+04</totfact>
</mgrwt>
</event>
<event>
 5    1  0.1401471E+000  0.1017222E+03  0.7818608E-02  0.1276715E+00
         -3   -1    0    0    0  501 -0.00000000000E+00  0.00000000000E+00  0.69275442063E+02  0.69275504488E+02  0.93000000000E-01 0.  1.
          3   -1    0    0  501    0  0.00000000000E+00 -0.00000000000E+00 -0.37341435461E+02  0.37341551270E+02  0.93000000000E-01 0. -1.
         23    2    1    2    0    0  0.00000000000E+00  0.00000000000E+00  0.31934006602E+02  0.10661705576E+03  0.10172224831E+03 0.  0.
        -13    1    3    3    0    0  0.94867523088E+01  0.15946857829E+02  0.65601203805E+02  0.68174994368E+02  0.10570000000E+00 0.  1.
         13    1    3    3    0    0 -0.94867523088E+01 -0.15946857829E+02 -0.33667197202E+02  0.38442061390E+02  0.10570000000E+00 0. -1.
<mgrwt>
<rscale>  0 0.10172225E+03</rscale>
<asrwt>0</asrwt>
<pdfrwt beam="2">  1        3 0.57448500E-02 0.10172225E+03</pdfrwt>
<pdfrwt beam="1">  1       -3 0.10657774E-01 0.10172225E+03</pdfrwt>
<totfact> 0.25329093E+04</totfact>
</mgrwt>
</event>
<event>
 5    1  0.1401471E+000  0.9256284E+02  0.7818608E-02  0.1296761E+00
          3   -1    0    0  501    0  0.00000000000E+00  0.00000000000E+00  0.33188051111E+02  0.33188181414E+02  0.93000000000E-01 0. -1.
         -3   -1    0    0    0  501 -0.00000000000E+00 -0.00000000000E+00 -0.64540103690E+02  0.64540170695E+02  0.93000000000E-01 0.  1.
         23    2    1    2    0    0  0.00000000000E+00  0.00000000000E+00 -0.31352052579E+02  0.97728352109E+02  0.92562841384E+02 0.  0.
        -13    1    3    3    0    0 -0.23324371156E+01 -0.36912534151E+02 -0.45049119943E+02  0.58287304111E+02  0.10570000000E+00 0.  1.
         13    1    3    3    0    0  0.23324371156E+01  0.36912534151E+02  0.13697067364E+02  0.39441047998E+02  0.10570000000E+00 0. -1.
<mgrwt>
<rscale>  0 0.92562841E+02</rscale>
<asrwt>0</asrwt>
<pdfrwt beam="1">  1        3 0.51058692E-02 0.92562841E+02</pdfrwt>
<pdfrwt beam="2">  1       -3 0.99292619E-02 0.92562841E+02</pdfrwt>
<totfact> 0.33435949E+04</totfact>
</mgrwt>
</event>
<event>
 5    1  0.1401471E+000  0.8944982E+02  0.7818608E-02  0.1304190E+00
          3   -1    0    0  501    0  0.00000000000E+00  0.00000000000E+00  0.46288265818E+02  0.46288359244E+02  0.93000000000E-01 0. -1.
         -3   -1    0    0    0  501 -0.00000000000E+00 -0.00000000000E+00 -0.43214171651E+02  0.43214271722E+02  0.93000000000E-01 0.  1.
         23    2    1    2    0    0  0.00000000000E+00  0.00000000000E+00  0.30740941674E+01  0.89502630966E+02  0.89449823336E+02 0.  0.
        -13    1    3    3    0    0 -0.18380413035E+02 -0.19290762021E+02  0.37479465502E+02  0.45985808566E+02  0.10570000000E+00 0. -1.
         13    1    3    3    0    0  0.18380413035E+02  0.19290762021E+02 -0.34405371334E+02  0.43516822400E+02  0.10570000000E+00 0.  1.
<mgrwt>
<rscale>  0 0.89449823E+02</rscale>
<asrwt>0</asrwt>
<pdfrwt beam="1">  1        3 0.71212866E-02 0.89449823E+02</pdfrwt>
<pdfrwt beam="2">  1       -3 0.66483490E-02 0.89449823E+02</pdfrwt>
<totfact> 0.37360396E+04</totfact>
</mgrwt>
</event>
<event>
 5    1  0.1401471E+000  0.8122967E+02  0.7818608E-02  0.1325598E+00
         -3   -1    0    0    0  501 -0.00000000000E+00  0.00000000000E+00  0.31640723057E+02  0.31640859732E+02  0.93000000000E-01 0.  1.
          3   -1    0    0  501    0  0.00000000000E+00 -0.00000000000E+00 -0.52133945458E+02  0.52134028408E+02  0.93000000000E-01 0. -1.
         23    2    1    2    0    0  0.00000000000E+00  0.00000000000E+00 -0.20493222401E+02  0.83774888140E+02  0.81229672648E+02 0.  0.
        -13    1    3    3    0    0 -0.28554504584E+02  0.12076046566E+02 -0.37305375031E+02  0.48506626469E+02  0.10570000000E+00 0. -1.
         13    1    3    3    0    0  0.28554504584E+02 -0.12076046566E+02  0.16812152630E+02  0.35268261671E+02  0.10570000000E+00 0.  1.
<mgrwt>
<rscale>  0 0.81229673E+02</rscale>
<asrwt>0</asrwt>
<pdfrwt beam="2">  1        3 0.80206239E-02 0.81229673E+02</pdfrwt>
<pdfrwt beam="1">  1       -3 0.48678204E-02 0.81229673E+02</pdfrwt>
<totfact> 0.49093699E+04</totfact>
</mgrwt>
</event>
<event>
 5    1  0.1401471E+000  0.9062232E+02  0.7818608E-02  0.1301352E+00
          3   -1    0    0  501    0  0.00000000000E+00  0.00000000000E+00  0.26956480886E+03  0.26956482490E+03  0.93000000000E-01 0. -1.
         -3   -1    0    0    0  501 -0.00000000000E+00 -0.00000000000E+00 -0.76160553500E+01  0.76166231424E+01  0.93000000000E-01 0.  1.
         23    2    1    2    0    0  0.00000000000E+00  0.00000000000E+00  0.26194875351E+03  0.27718144804E+03  0.90622324373E+02 0.  0.
        -13    1    3    3    0    0  0.37326242441E+02 -0.10974094475E+02  0.20201207980E+03  0.20572450190E+03  0.10570000000E+00 0. -1.
         13    1    3    3    0    0 -0.37326242441E+02  0.10974094475E+02  0.59936673704E+02  0.71456946139E+02  0.10570000000E+00 0.  1.
<mgrwt>
<rscale>  0 0.90622324E+02</rscale>
<asrwt>0</asrwt>
<pdfrwt beam="1">  1        3 0.41471554E-01 0.90622324E+02</pdfrwt>
<pdfrwt beam="2">  1       -3 0.11717457E-02 0.90622324E+02</pdfrwt>
<totfact> 0.25353428E+04</totfact>
</mgrwt>
</event>
<event>
 5    1  0.1401471E+000  0.8570686E+02  0.7818608E-02  0.1313594E+00
         -3   -1    0    0    0  501 -0.00000000000E+00  0.00000000000E+00  0.28812038794E+02  0.28812188887E+02  0.93000000000E-01 0.  1.
          3   -1    0    0  501    0  0.00000000000E+00 -0.00000000000E+00 -0.63737473981E+02  0.63737541829E+02  0.93000000000E-01 0. -1.
         23    2    1    2    0    0  0.00000000000E+00  0.00000000000E+00 -0.34925435187E+02  0.92549730717E+02  0.85706864561E+02 0.  0.
        -13    1    3    3    0    0 -0.32790357963E+02  0.23412007199E+02 -0.33225273708E+02  0.52223171503E+02  0.10570000000E+00 0. -1.
         13    1    3    3    0    0  0.32790357963E+02 -0.23412007199E+02 -0.17001614789E+01  0.40326559213E+02  0.10570000000E+00 0.  1.
<mgrwt>
<rscale>  0 0.85706865E+02</rscale>
<asrwt>0</asrwt>
<pdfrwt beam="2">  1        3 0.98057820E-02 0.85706865E+02</pdfrwt>
<pdfrwt beam="1">  1       -3 0.44326381E-02 0.85706865E+02</pdfrwt>
<totfact> 0.41664680E+04</totfact>
</mgrwt>
</event>
<event>
 5    1  0.1401471E+000  0.8730656E+02  0.7818608E-02  0.1309509E+00
         -3   -1    0    0    0  501 -0.00000000000E+00  0.00000000000E+00  0.14256052807E+02  0.14256356148E+02  0.93000000000E-01 0.  1.
          3   -1    0    0  501    0  0.00000000000E+00 -0.00000000000E+00 -0.13366841307E+03  0.13366844542E+03  0.93000000000E-01 0. -1.
         23    2    1    2    0    0  0.00000000000E+00  0.00000000000E+00 -0.11941236026E+03  0.14792480157E+03  0.87306558380E+02 0.  0.
        -13    1    3    3    0    0  0.27853958793E+02 -0.24016183908E+02 -0.99548797228E+02  0.10612537073E+03  0.10570000000E+00 0. -1.
         13    1    3    3    0    0 -0.27853958793E+02  0.24016183908E+02 -0.19863563035E+02  0.41799430844E+02  0.10570000000E+00 0.  1.
<mgrwt>
<rscale>  0 0.87306558E+02</rscale>
<asrwt>0</asrwt>
<pdfrwt beam="2">  1        3 0.20564396E-01 0.87306558E+02</pdfrwt>
<pdfrwt beam="1">  1       -3 0.21932648E-02 0.87306558E+02</pdfrwt>
<totfact> 0.35336649E+04</totfact>
</mgrwt>
</event>
<event>
 5    1  0.1401471E+000  0.9350573E+02  0.7818608E-02  0.1294577E+00
         -3   -1    0    0    0  501 -0.00000000000E+00  0.00000000000E+00  0.36908907742E+02  0.36909024909E+02  0.93000000000E-01 0.  1.
          3   -1    0    0  501    0  0.00000000000E+00 -0.00000000000E+00 -0.59222054888E+02  0.59222127910E+02  0.93000000000E-01 0. -1.
         23    2    1    2    0    0  0.00000000000E+00  0.00000000000E+00 -0.22313147146E+02  0.96131152819E+02  0.93505732481E+02 0.  0.
        -13    1    3    3    0    0 -0.16094946917E+02  0.39293235217E+02 -0.31271555091E+02  0.52734495166E+02  0.10570000000E+00 0. -1.
         13    1    3    3    0    0  0.16094946917E+02 -0.39293235217E+02  0.89584079449E+01  0.43396657653E+02  0.10570000000E+00 0.  1.
<mgrwt>
<rscale>  0 0.93505732E+02</rscale>
<asrwt>0</asrwt>
<pdfrwt beam="2">  1        3 0.91111000E-02 0.93505732E+02</pdfrwt>
<pdfrwt beam="1">  1       -3 0.56783081E-02 0.93505732E+02</pdfrwt>
<totfact> 0.32633992E+04</totfact>
</mgrwt>
</event>
<event>
 5    1  0.1401471E+000  0.9116291E+02  0.7818608E-02  0.1300060E+00
         -3   -1    0    0    0  501 -0.00000000000E+00  0.00000000000E+00  0.72906331164E+02  0.72906390480E+02  0.93000000000E-01 0.  1.
          3   -1    0    0  501    0  0.00000000000E+00 -0.00000000000E+00 -0.28497636617E+02  0.28497788366E+02  0.93000000000E-01 0. -1.
         23    2    1    2    0    0  0.00000000000E+00  0.00000000000E+00  0.44408694547E+02  0.10140417885E+03  0.91162905482E+02 0.  0.
        -13    1    3    3    0    0  0.48881529151E+01  0.25305078051E+02 -0.19614571059E+02  0.32388016061E+02  0.10570000000E+00 0. -1.
         13    1    3    3    0    0 -0.48881529151E+01 -0.25305078051E+02  0.64023265606E+02  0.69016162784E+02  0.10570000000E+00 0.  1.
<mgrwt>
<rscale>  0 0.91162905E+02</rscale>
<asrwt>0</asrwt>
<pdfrwt beam="2">  1        3 0.43842680E-02 0.91162905E+02</pdfrwt>
<pdfrwt beam="1">  1       -3 0.11216375E-01 0.91162905E+02</pdfrwt>
<totfact> 0.34583128E+04</totfact>
</mgrwt>
</event>
<event>
 5    1  0.1401471E+000  0.8635300E+02  0.7818608E-02  0.1311932E+00
          3   -1    0    0  501    0  0.00000000000E+00  0.00000000000E+00  0.23557754337E+02  0.23557937907E+02  0.93000000000E-01 0. -1.
         -3   -1    0    0    0  501 -0.00000000000E+00 -0.00000000000E+00 -0.79133087818E+02  0.79133142467E+02  0.93000000000E-01 0.  1.
         23    2    1    2    0    0  0.00000000000E+00  0.00000000000E+00 -0.55575333481E+02  0.10269108037E+03  0.86352998192E+02 0.  0.
        -13    1    3    3    0    0 -0.16955511579E+02 -0.39659896381E+02 -0.30106501496E+02  0.52600469187E+02  0.10570000000E+00 0.  1.
         13    1    3    3    0    0  0.16955511579E+02  0.39659896381E+02 -0.25468831985E+02  0.50090611187E+02  0.10570000000E+00 0. -1.
<mgrwt>
<rscale>  0 0.86352998E+02</rscale>
<asrwt>0</asrwt>
<pdfrwt beam="1">  1        3 0.36242883E-02 0.86352998E+02</pdfrwt>
<pdfrwt beam="2">  1       -3 0.12174339E-01 0.86352998E+02</pdfrwt>
<totfact> 0.39941629E+04</totfact>
</mgrwt>
</event>
<event>
 5    1  0.1401471E+000  0.9096962E+02  0.7818608E-02  0.1300520E+00
          3   -1    0    0  501    0  0.00000000000E+00  0.00000000000E+00  0.10779026573E+03  0.10779030585E+03  0.93000000000E-01 0. -1.
         -3   -1    0    0    0  501 -0.00000000000E+00 -0.00000000000E+00 -0.19193302600E+02  0.19193527912E+02  0.93000000000E-01 0.  1.
         23    2    1    2    0    0  0.00000000000E+00  0.00000000000E+00  0.88596963131E+02  0.12698383376E+03  0.90969622188E+02 0.  0.
        -13    1    3    3    0    0  0.41907594000E+02 -0.16319206000E+02  0.34800875428E+02  0.56865411476E+02  0.10570000000E+00 0.  1.
         13    1    3    3    0    0 -0.41907594000E+02  0.16319206000E+02  0.53796087703E+02  0.70118422286E+02  0.10570000000E+00 0. -1.
<mgrwt>
<rscale>  0 0.90969622E+02</rscale>
<asrwt>0</asrwt>
<pdfrwt beam="1">  1        3 0.16583138E-01 0.90969622E+02</pdfrwt>
<pdfrwt beam="2">  1       -3 0.29528362E-02 0.90969622E+02</pdfrwt>
<totfact> 0.32978479E+04</totfact>
</mgrwt>
</event>
<event>
 5    1  0.1401471E+000  0.9448499E+02  0.7818608E-02  0.1292340E+00
         -3   -1    0    0    0  501 -0.00000000000E+00  0.00000000000E+00  0.43377483420E+02  0.43377583114E+02  0.93000000000E-01 0.  1.
          3   -1    0    0  501    0  0.00000000000E+00 -0.00000000000E+00 -0.51451686694E+02  0.51451770743E+02  0.93000000000E-01 0. -1.
         23    2    1    2    0    0  0.00000000000E+00  0.00000000000E+00 -0.80742032738E+01  0.94829353858E+02  0.94484991372E+02 0.  0.
        -13    1    3    3    0    0  0.37975949017E+02  0.48712259983E+01 -0.31813602299E+02  0.49779694758E+02  0.10570000000E+00 0. -1.
         13    1    3    3    0    0 -0.37975949017E+02 -0.48712259983E+01  0.23739399025E+02  0.45049659100E+02  0.10570000000E+00 0.  1.
<mgrwt>
<rscale>  0 0.94484991E+02</rscale>
<asrwt>0</asrwt>
<pdfrwt beam="2">  1        3 0.79156583E-02 0.94484991E+02</pdfrwt>
<pdfrwt beam="1">  1       -3 0.66734731E-02 0.94484991E+02</pdfrwt>
<totfact> 0.31805230E+04</totfact>
</mgrwt>
</event>
<event>
 5    1  0.1401471E+000  0.8958064E+02  0.7818608E-02  0.1303870E+00
          3   -1    0    0  501    0  0.00000000000E+00  0.00000000000E+00  0.67386943033E+02  0.67387007207E+02  0.93000000000E-01 0.  1.
         -3   -1    0    0    0  501 -0.00000000000E+00 -0.00000000000E+00 -0.29770788980E+02  0.29770934240E+02  0.93000000000E-01 0. -1.
         23    2    1    2    0    0  0.00000000000E+00  0.00000000000E+00  0.37616154053E+02  0.97157941447E+02  0.89580637084E+02 0.  0.
        -13    1    3    3    0    0 -0.43544592526E+02  0.36175860434E+01  0.81292789276E+01  0.44444513896E+02  0.10570000000E+00 0.  1.
         13    1    3    3    0    0  0.43544592526E+02 -0.36175860434E+01  0.29486875125E+02  0.52713427551E+02  0.10570000000E+00 0. -1.
<mgrwt>
<rscale>  0 0.89580637E+02</rscale>
<asrwt>0</asrwt>
<pdfrwt beam="1">  1        3 0.10367238E-01 0.89580637E+02</pdfrwt>
<pdfrwt beam="2">  1       -3 0.45801375E-02 0.89580637E+02</pdfrwt>
<totfact> 0.36597136E+04</totfact>
</mgrwt>
</event>
<event>
 5    1  0.1401471E+000  0.8959468E+02  0.7818608E-02  0.1303836E+00
          3   -1    0    0  501    0  0.00000000000E+00  0.00000000000E+00  0.19774769001E+02  0.19774987688E+02  0.93000000000E-01 0. -1.
         -3   -1    0    0    0  501 -0.00000000000E+00 -0.00000000000E+00 -0.10148214472E+03  0.10148218733E+03  0.93000000000E-01 0.  1.
         23    2    1    2    0    0  0.00000000000E+00  0.00000000000E+00 -0.81707375717E+02  0.12125717502E+03  0.89594683141E+02 0.  0.
        -13    1    3    3    0    0 -0.24187593063E+02  0.30949016070E+01  0.10005461624E+02  0.26357892726E+02  0.10570000000E+00 0. -1.
         13    1    3    3    0    0  0.24187593063E+02 -0.30949016070E+01 -0.91712837341E+02  0.94899282293E+02  0.10570000000E+00 0.  1.
<mgrwt>
<rscale>  0 0.89594683E+02</rscale>
<asrwt>0</asrwt>
<pdfrwt beam="1">  1        3 0.30422923E-02 0.89594683E+02</pdfrwt>
<pdfrwt beam="2">  1       -3 0.15612657E-01 0.89594683E+02</pdfrwt>
<totfact> 0.34772737E+04</totfact>
</mgrwt>
</event>
<event>
 5    1  0.1401471E+000  0.9074064E+02  0.7818608E-02  0.1301068E+00
         -3   -1    0    0    0  501 -0.00000000000E+00  0.00000000000E+00  0.37174308135E+02  0.37174424466E+02  0.93000000000E-01 0.  1.
          3   -1    0    0  501    0  0.00000000000E+00 -0.00000000000E+00 -0.55373107087E+02  0.55373185184E+02  0.93000000000E-01 0. -1.
         23    2    1    2    0    0  0.00000000000E+00  0.00000000000E+00 -0.18198798951E+02  0.92547609650E+02  0.90740640116E+02 0.  0.
        -13    1    3    3    0    0  0.40940271751E+02 -0.13048880954E+02  0.57534146030E+01  0.43353109430E+02  0.10570000000E+00 0.  1.
         13    1    3    3    0    0 -0.40940271751E+02  0.13048880954E+02 -0.23952213554E+02  0.49194500219E+02  0.10570000000E+00 0. -1.
<mgrwt>
<rscale>  0 0.90740640E+02</rscale>
<asrwt>0</asrwt>
<pdfrwt beam="2">  1        3 0.85189545E-02 0.90740640E+02</pdfrwt>
<pdfrwt beam="1">  1       -3 0.57191393E-02 0.90740640E+02</pdfrwt>
<totfact> 0.35696462E+04</totfact>
</mgrwt>
</event>
<event>
 5    1  0.1401471E+000  0.9272576E+02  0.7818608E-02  0.1296382E+00
          3   -1    0    0  501    0  0.00000000000E+00  0.00000000000E+00  0.38845608694E+03  0.38845609807E+03  0.93000000000E-01 0. -1.
         -3   -1    0    0    0  501 -0.00000000000E+00 -0.00000000000E+00 -0.55330843711E+01  0.55338658872E+01  0.93000000000E-01 0.  1.
         23    2    1    2    0    0  0.00000000000E+00  0.00000000000E+00  0.38292300257E+03  0.39398996396E+03  0.92725755886E+02 0.  0.
        -13    1    3    3    0    0 -0.44674791223E+02  0.66823430531E+00  0.24405656862E+03  0.24811268280E+03  0.10570000000E+00 0. -1.
         13    1    3    3    0    0  0.44674791223E+02 -0.66823430531E+00  0.13886643395E+03  0.14587728116E+03  0.10570000000E+00 0.  1.
<mgrwt>
<rscale>  0 0.92725756E+02</rscale>
<asrwt>0</asrwt>
<pdfrwt beam="1">  1        3 0.59762544E-01 0.92725756E+02</pdfrwt>
<pdfrwt beam="2">  1       -3 0.85130461E-03 0.92725756E+02</pdfrwt>
<totfact> 0.19879119E+04</totfact>
</mgrwt>
</event>
<event>
 5    1  0.1401471E+000  0.9482970E+02  0.7818608E-02  0.1291560E+00
         -3   -1    0    0    0  501 -0.00000000000E+00  0.00000000000E+00  0.20146389661E+02  0.20146604313E+02  0.93000000000E-01 0.  1.
          3   -1    0    0  501    0  0.00000000000E+00 -0.00000000000E+00 -0.11159078293E+03  0.11159082168E+03  0.93000000000E-01 0. -1.
         23    2    1    2    0    0  0.00000000000E+00  0.00000000000E+00 -0.91444393266E+02  0.13173742599E+03  0.94829701821E+02 0.  0.
        -13    1    3    3    0    0  0.75774470180E+01 -0.16000589776E+02  0.15382400776E+02  0.23453485937E+02  0.10570000000E+00 0.  1.
         13    1    3    3    0    0 -0.75774470180E+01  0.16000589776E+02 -0.10682679404E+03  0.10828394006E+03  0.10570000000E+00 0. -1.
<mgrwt>
<rscale>  0 0.94829702E+02</rscale>
<asrwt>0</asrwt>
<pdfrwt beam="2">  1        3 0.17167832E-01 0.94829702E+02</pdfrwt>
<pdfrwt beam="1">  1       -3 0.30994641E-02 0.94829702E+02</pdfrwt>
<totfact> 0.29168995E+04</totfact>
</mgrwt>
</event>
<event>
 5    1  0.1401471E+000  0.9089738E+02  0.7818608E-02  0.1300693E+00
         -3   -1    0    0    0  501 -0.00000000000E+00  0.00000000000E+00  0.27271321140E+03  0.27271322725E+03  0.93000000000E-01 0.  1.
          3   -1    0    0  501    0  0.00000000000E+00 -0.00000000000E+00 -0.75738940420E+01  0.75744649949E+01  0.93000000000E-01 0. -1.
         23    2    1    2    0    0  0.00000000000E+00  0.00000000000E+00  0.26513931736E+03  0.28028769225E+03  0.90897375204E+02 0.  0.
        -13    1    3    3    0    0 -0.91045022323E+01  0.38732589118E+02  0.20030047614E+03  0.20421409681E+03  0.10570000000E+00 0.  1.
         13    1    3    3    0    0  0.91045022323E+01 -0.38732589118E+02  0.64838841213E+02  0.76073595439E+02  0.10570000000E+00 0. -1.
<mgrwt>
<rscale>  0 0.90897375E+02</rscale>
<asrwt>0</asrwt>
<pdfrwt beam="2">  1        3 0.11652597E-02 0.90897375E+02</pdfrwt>
<pdfrwt beam="1">  1       -3 0.41955919E-01 0.90897375E+02</pdfrwt>
<totfact> 0.25013473E+04</totfact>
</mgrwt>
</event>
<event>
 5    1  0.1401471E+000  0.9152690E+02  0.7818608E-02  0.1299196E+00
          3   -1    0    0  501    0  0.00000000000E+00  0.00000000000E+00  0.27832153636E+02  0.27832309014E+02  0.93000000000E-01 0. -1.
         -3   -1    0    0    0  501 -0.00000000000E+00 -0.00000000000E+00 -0.75246866767E+02  0.75246924238E+02  0.93000000000E-01 0.  1.
         23    2    1    2    0    0  0.00000000000E+00  0.00000000000E+00 -0.47414713131E+02  0.10307923325E+03  0.91526899360E+02 0.  0.
        -13    1    3    3    0    0 -0.23410030159E+02  0.24963515275E+02 -0.57924287447E+02  0.67278829179E+02  0.10570000000E+00 0.  1.
         13    1    3    3    0    0  0.23410030159E+02 -0.24963515275E+02  0.10509574316E+02  0.35800404072E+02  0.10570000000E+00 0. -1.
<mgrwt>
<rscale>  0 0.91526899E+02</rscale>
<asrwt>0</asrwt>
<pdfrwt beam="1">  1        3 0.42818862E-02 0.91526899E+02</pdfrwt>
<pdfrwt beam="2">  1       -3 0.11576457E-01 0.91526899E+02</pdfrwt>
<totfact> 0.34087919E+04</totfact>
</mgrwt>
</event>
<event>
 5    1  0.1401471E+000  0.9198470E+02  0.7818608E-02  0.1298115E+00
          3   -1    0    0  501    0  0.00000000000E+00  0.00000000000E+00  0.38795438073E+02  0.38795549542E+02  0.93000000000E-01 0. -1.
         -3   -1    0    0    0  501 -0.00000000000E+00 -0.00000000000E+00 -0.54524131441E+02  0.54524210754E+02  0.93000000000E-01 0.  1.
         23    2    1    2    0    0  0.00000000000E+00  0.00000000000E+00 -0.15728693368E+02  0.93319760296E+02  0.91984704525E+02 0.  0.
        -13    1    3    3    0    0 -0.35823744170E+02 -0.94336405209E+01 -0.35517082492E+02  0.51320644395E+02  0.10570000000E+00 0.  1.
         13    1    3    3    0    0  0.35823744170E+02  0.94336405209E+01  0.19788389124E+02  0.41999115901E+02  0.10570000000E+00 0. -1.
<mgrwt>
<rscale>  0 0.91984705E+02</rscale>
<asrwt>0</asrwt>
<pdfrwt beam="1">  1        3 0.59685436E-02 0.91984705E+02</pdfrwt>
<pdfrwt beam="2">  1       -3 0.83883426E-02 0.91984705E+02</pdfrwt>
<totfact> 0.34338378E+04</totfact>
</mgrwt>
</event>
<event>
 5    1  0.1401471E+000  0.8213158E+02  0.7818608E-02  0.1323109E+00
          3   -1    0    0  501    0  0.00000000000E+00  0.00000000000E+00  0.30601162667E+02  0.30601303985E+02  0.93000000000E-01 0. -1.
         -3   -1    0    0    0  501 -0.00000000000E+00 -0.00000000000E+00 -0.55108677722E+02  0.55108756194E+02  0.93000000000E-01 0.  1.
         23    2    1    2    0    0  0.00000000000E+00  0.00000000000E+00 -0.24507515055E+02  0.85710060179E+02  0.82131578104E+02 0.  0.
        -13    1    3    3    0    0  0.18847994576E+02 -0.34349435057E+02 -0.25088281363E+02  0.46524871010E+02  0.10570000000E+00 0.  1.
         13    1    3    3    0    0 -0.18847994576E+02  0.34349435057E+02  0.58076630848E+00  0.39185189169E+02  0.10570000000E+00 0. -1.
<mgrwt>
<rscale>  0 0.82131578E+02</rscale>
<asrwt>0</asrwt>
<pdfrwt beam="1">  1        3 0.47078881E-02 0.82131578E+02</pdfrwt>
<pdfrwt beam="2">  1       -3 0.84782750E-02 0.82131578E+02</pdfrwt>
<totfact> 0.47452160E+04</totfact>
</mgrwt>
</event>
<event>
 5    1  0.1401471E+000  0.8142324E+02  0.7818608E-02  0.1325060E+00
          3   -1    0    0  501    0  0.00000000000E+00  0.00000000000E+00  0.33180269795E+03  0.33180271099E+03  0.93000000000E-01 0. -1.
         -3   -1    0    0    0  501 -0.00000000000E+00 -0.00000000000E+00 -0.49947994393E+01  0.49956651648E+01  0.93000000000E-01 0.  1.
         23    2    1    2    0    0  0.00000000000E+00  0.00000000000E+00  0.32680789851E+03  0.33679837615E+03  0.81423237759E+02 0.  0.
        -13    1    3    3    0    0 -0.24637266979E+02 -0.31835076662E+02  0.18855025211E+03  0.19279957410E+03  0.10570000000E+00 0.  1.
         13    1    3    3    0    0  0.24637266979E+02  0.31835076662E+02  0.13825764640E+03  0.14399880205E+03  0.10570000000E+00 0. -1.
<mgrwt>
<rscale>  0 0.81423238E+02</rscale>
<asrwt>0</asrwt>
<pdfrwt beam="1">  1        3 0.51046645E-01 0.81423238E+02</pdfrwt>
<pdfrwt beam="2">  1       -3 0.76849815E-03 0.81423238E+02</pdfrwt>
<totfact> 0.30636518E+04</totfact>
</mgrwt>
</event>
<event>
 5    1  0.1401471E+000  0.9247589E+02  0.7818608E-02  0.1296964E+00
          3   -1    0    0  501    0  0.00000000000E+00  0.00000000000E+00  0.20654124350E+02  0.20654333726E+02  0.93000000000E-01 0. -1.
         -3   -1    0    0    0  501 -0.00000000000E+00 -0.00000000000E+00 -0.10351114146E+03  0.10351118324E+03  0.93000000000E-01 0.  1.
         23    2    1    2    0    0  0.00000000000E+00  0.00000000000E+00 -0.82857017113E+02  0.12416551697E+03  0.92475890475E+02 0.  0.
        -13    1    3    3    0    0  0.30649619542E+02 -0.32970206031E+02 -0.27250499294E+02  0.52621616737E+02  0.10570000000E+00 0. -1.
         13    1    3    3    0    0 -0.30649619542E+02  0.32970206031E+02 -0.55606517819E+02  0.71543900231E+02  0.10570000000E+00 0.  1.
<mgrwt>
<rscale>  0 0.92475890E+02</rscale>
<asrwt>0</asrwt>
<pdfrwt beam="1">  1        3 0.31775770E-02 0.92475890E+02</pdfrwt>
<pdfrwt beam="2">  1       -3 0.15924810E-01 0.92475890E+02</pdfrwt>
<totfact> 0.31720403E+04</totfact>
</mgrwt>
</event>
<event>
 5    1  0.1401471E+000  0.8241569E+02  0.7818608E-02  0.1322333E+00
         -3   -1    0    0    0  501 -0.00000000000E+00  0.00000000000E+00  0.13259254882E+03  0.13259258144E+03  0.93000000000E-01 0.  1.
          3   -1    0    0  501    0  0.00000000000E+00 -0.00000000000E+00 -0.12806597754E+02  0.12806935427E+02  0.93000000000E-01 0. -1.
         23    2    1    2    0    0  0.00000000000E+00  0.00000000000E+00  0.11978595107E+03  0.14539951686E+03  0.82415686801E+02 0.  0.
        -13    1    3    3    0    0  0.31721049414E+02 -0.25431366542E+02  0.48045627307E+02  0.62939438002E+02  0.10570000000E+00 0.  1.
         13    1    3    3    0    0 -0.31721049414E+02  0.25431366542E+02  0.71740323761E+02  0.82460078862E+02  0.10570000000E+00 0. -1.
<mgrwt>
<rscale>  0 0.82415687E+02</rscale>
<asrwt>0</asrwt>
<pdfrwt beam="2">  1        3 0.19702743E-02 0.82415687E+02</pdfrwt>
<pdfrwt beam="1">  1       -3 0.20398882E-01 0.82415687E+02</pdfrwt>
<totfact> 0.41456608E+04</totfact>
</mgrwt>
</event>
<event>
 5    1  0.1401471E+000  0.1042890E+03  0.7818608E-02  0.1271527E+00
          3   -1    0    0  501    0  0.00000000000E+00  0.00000000000E+00  0.24164718794E+02  0.24164897753E+02  0.93000000000E-01 0. -1.
         -3   -1    0    0    0  501 -0.00000000000E+00 -0.00000000000E+00 -0.11252079018E+03  0.11252082862E+03  0.93000000000E-01 0.  1.
         23    2    1    2    0    0  0.00000000000E+00  0.00000000000E+00 -0.88356071389E+02  0.13668572637E+03  0.10428898524E+03 0.  0.
        -13    1    3    3    0    0 -0.28515751711E+02 -0.41799245385E+02 -0.60689648894E+02  0.79016262034E+02  0.10570000000E+00 0.  1.
         13    1    3    3    0    0  0.28515751711E+02  0.41799245385E+02 -0.27666422495E+02  0.57669464335E+02  0.10570000000E+00 0. -1.
<mgrwt>
<rscale>  0 0.10428899E+03</rscale>
<asrwt>0</asrwt>
<pdfrwt beam="1">  1        3 0.37176658E-02 0.10428899E+03</pdfrwt>
<pdfrwt beam="2">  1       -3 0.17310907E-01 0.10428899E+03</pdfrwt>
<totfact> 0.22256209E+04</totfact>
</mgrwt>
</event>
<event>
 5    1  0.1401471E+000  0.9135014E+02  0.7818608E-02  0.1299615E+00
         -3   -1    0    0    0  501 -0.00000000000E+00  0.00000000000E+00  0.25747568813E+02  0.25747736770E+02  0.93000000000E-01 0.  1.
          3   -1    0    0  501    0  0.00000000000E+00 -0.00000000000E+00 -0.81025139356E+02  0.81025192729E+02  0.93000000000E-01 0. -1.
         23    2    1    2    0    0  0.00000000000E+00  0.00000000000E+00 -0.55277570543E+02  0.10677292950E+03  0.91350143233E+02 0.  0.
        -13    1    3    3    0    0  0.73239748555E+01 -0.42134634426E+02 -0.88924991688E+01  0.43681297369E+02  0.10570000000E+00 0. -1.
         13    1    3    3    0    0 -0.73239748555E+01  0.42134634426E+02 -0.46385071374E+02  0.63091632130E+02  0.10570000000E+00 0.  1.
<mgrwt>
<rscale>  0 0.91350143E+02</rscale>
<asrwt>0</asrwt>
<pdfrwt beam="2">  1        3 0.12465423E-01 0.91350143E+02</pdfrwt>
<pdfrwt beam="1">  1       -3 0.39611815E-02 0.91350143E+02</pdfrwt>
<totfact> 0.33999698E+04</totfact>
</mgrwt>
</event>
<event>
 5    1  0.1401471E+000  0.8842438E+02  0.7818608E-02  0.1306713E+00
          3   -1    0    0  501    0  0.00000000000E+00  0.00000000000E+00  0.52056946547E+02  0.52057029619E+02  0.93000000000E-01 0. -1.
         -3   -1    0    0    0  501 -0.00000000000E+00 -0.00000000000E+00 -0.37549432700E+02  0.37549547868E+02  0.93000000000E-01 0.  1.
         23    2    1    2    0    0  0.00000000000E+00  0.00000000000E+00  0.14507513847E+02  0.89606577487E+02  0.88424378827E+02 0.  0.
        -13    1    3    3    0    0  0.21030515211E+02  0.13360290997E+02 -0.29757500027E+02  0.38811079937E+02  0.10570000000E+00 0.  1.
         13    1    3    3    0    0 -0.21030515211E+02 -0.13360290997E+02  0.44265013873E+02  0.50795497549E+02  0.10570000000E+00 0. -1.
<mgrwt>
<rscale>  0 0.88424379E+02</rscale>
<asrwt>0</asrwt>
<pdfrwt beam="1">  1        3 0.80087762E-02 0.88424379E+02</pdfrwt>
<pdfrwt beam="2">  1       -3 0.57768511E-02 0.88424379E+02</pdfrwt>
<totfact> 0.38538582E+04</totfact>
</mgrwt>
</event>
<event>
 5    1  0.1401471E+000  0.9179646E+02  0.7818608E-02  0.1298559E+00
         -3   -1    0    0    0  501 -0.00000000000E+00  0.00000000000E+00  0.96135942771E+01  0.96140440984E+01  0.93000000000E-01 0.  1.
          3   -1    0    0  501    0  0.00000000000E+00 -0.00000000000E+00 -0.21912656069E+03  0.21912658043E+03  0.93000000000E-01 0. -1.
         23    2    1    2    0    0  0.00000000000E+00  0.00000000000E+00 -0.20951296642E+03  0.22874062453E+03  0.91796460784E+02 0.  0.
        -13    1    3    3    0    0  0.19055069127E+02 -0.37845971593E+02 -0.60796925314E+02  0.74105941228E+02  0.10570000000E+00 0.  1.
         13    1    3    3    0    0 -0.19055069127E+02  0.37845971593E+02 -0.14871604110E+03  0.15463468330E+03  0.10570000000E+00 0. -1.
<mgrwt>
<rscale>  0 0.91796461E+02</rscale>
<asrwt>0</asrwt>
<pdfrwt beam="2">  1        3 0.33711811E-01 0.91796461E+02</pdfrwt>
<pdfrwt beam="1">  1       -3 0.14790508E-02 0.91796461E+02</pdfrwt>
<totfact> 0.26587507E+04</totfact>
</mgrwt>
</event>
<event>
 5    1  0.1401471E+000  0.9152521E+02  0.7818608E-02  0.1299200E+00
          3   -1    0    0  501    0  0.00000000000E+00  0.00000000000E+00  0.43641800017E+02  0.43641899107E+02  0.93000000000E-01 0. -1.
         -3   -1    0    0    0  501 -0.00000000000E+00 -0.00000000000E+00 -0.47986271639E+02  0.47986361758E+02  0.93000000000E-01 0.  1.
         23    2    1    2    0    0  0.00000000000E+00  0.00000000000E+00 -0.43444716220E+01  0.91628260865E+02  0.91525208306E+02 0.  0.
        -13    1    3    3    0    0  0.28413763525E+02 -0.35313345508E+02 -0.84904778304E+01  0.46113704198E+02  0.10570000000E+00 0.  1.
         13    1    3    3    0    0 -0.28413763525E+02  0.35313345508E+02  0.41460062084E+01  0.45514556667E+02  0.10570000000E+00 0. -1.
<mgrwt>
<rscale>  0 0.91525208E+02</rscale>
<asrwt>0</asrwt>
<pdfrwt beam="1">  1        3 0.67141376E-02 0.91525208E+02</pdfrwt>
<pdfrwt beam="2">  1       -3 0.73825179E-02 0.91525208E+02</pdfrwt>
<totfact> 0.34938375E+04</totfact>
</mgrwt>
</event>
<event>
 5    1  0.1401471E+000  0.9378174E+02  0.7818608E-02  0.1293944E+00
          3   -1    0    0  501    0  0.00000000000E+00  0.00000000000E+00  0.90002663818E+02  0.90002711866E+02  0.93000000000E-01 0. -1.
         -3   -1    0    0    0  501 -0.00000000000E+00 -0.00000000000E+00 -0.24429727880E+02  0.24429904897E+02  0.93000000000E-01 0.  1.
         23    2    1    2    0    0  0.00000000000E+00  0.00000000000E+00  0.65572935938E+02  0.11443261676E+03  0.93781735172E+02 0.  0.
        -13    1    3    3    0    0  0.15710047476E+02  0.20747374759E+02 -0.14808949154E+02  0.29942867241E+02  0.10570000000E+00 0.  1.
         13    1    3    3    0    0 -0.15710047476E+02 -0.20747374759E+02  0.80381885091E+02  0.84489749523E+02  0.10570000000E+00 0. -1.
<mgrwt>
<rscale>  0 0.93781735E+02</rscale>
<asrwt>0</asrwt>
<pdfrwt beam="1">  1        3 0.13846581E-01 0.93781735E+02</pdfrwt>
<pdfrwt beam="2">  1       -3 0.37584370E-02 0.93781735E+02</pdfrwt>
<totfact> 0.31145801E+04</totfact>
</mgrwt>
</event>
<event>
 5    1  0.1401471E+000  0.9248254E+02  0.7818608E-02  0.1296949E+00
         -3   -1    0    0    0  501 -0.00000000000E+00  0.00000000000E+00  0.76607340938E+02  0.76607397388E+02  0.93000000000E-01 0.  1.
          3   -1    0    0  501    0  0.00000000000E+00 -0.00000000000E+00 -0.27911738998E+02  0.27911893932E+02  0.93000000000E-01 0. -1.
         23    2    1    2    0    0  0.00000000000E+00  0.00000000000E+00  0.48695601940E+02  0.10451929132E+03  0.92482542189E+02 0.  0.
        -13    1    3    3    0    0 -0.13828973378E+02 -0.20054887526E+02  0.68767286575E+02  0.72954711251E+02  0.10570000000E+00 0.  1.
         13    1    3    3    0    0  0.13828973378E+02  0.20054887526E+02 -0.20071684635E+02  0.31564580069E+02  0.10570000000E+00 0. -1.
<mgrwt>
<rscale>  0 0.92482542E+02</rscale>
<asrwt>0</asrwt>
<pdfrwt beam="2">  1        3 0.42941300E-02 0.92482542E+02</pdfrwt>
<pdfrwt beam="1">  1       -3 0.11785761E-01 0.92482542E+02</pdfrwt>
<totfact> 0.33034684E+04</totfact>
</mgrwt>
</event>
<event>
 5    1  0.1401471E+000  0.9439737E+02  0.7818608E-02  0.1292539E+00
         -3   -1    0    0    0  501 -0.00000000000E+00  0.00000000000E+00  0.79447194487E+01  0.79452637539E+01  0.93000000000E-01 0.  1.
          3   -1    0    0  501    0  0.00000000000E+00 -0.00000000000E+00 -0.28039192287E+03  0.28039193829E+03  0.93000000000E-01 0. -1.
         23    2    1    2    0    0  0.00000000000E+00  0.00000000000E+00 -0.27244720342E+03  0.28833720205E+03  0.94397369837E+02 0.  0.
        -13    1    3    3    0    0  0.38369683293E+02  0.45217334528E+01 -0.53411817542E+02  0.65920498292E+02  0.10570000000E+00 0.  1.
         13    1    3    3    0    0 -0.38369683293E+02 -0.45217334528E+01 -0.21903538588E+03  0.22241670376E+03  0.10570000000E+00 0. -1.
<mgrwt>
<rscale>  0 0.94397370E+02</rscale>
<asrwt>0</asrwt>
<pdfrwt beam="2">  1        3 0.43137254E-01 0.94397370E+02</pdfrwt>
<pdfrwt beam="1">  1       -3 0.12223078E-02 0.94397370E+02</pdfrwt>
<totfact> 0.22303259E+04</totfact>
</mgrwt>
</event>
<event>
 5    1  0.1401471E+000  0.9045363E+02  0.7818608E-02  0.1301757E+00
          3   -1    0    0  501    0  0.00000000000E+00  0.00000000000E+00  0.39987695663E+02  0.39987803809E+02  0.93000000000E-01 0. -1.
         -3   -1    0    0    0  501 -0.00000000000E+00 -0.00000000000E+00 -0.51152134741E+02  0.51152219283E+02  0.93000000000E-01 0.  1.
         23    2    1    2    0    0  0.00000000000E+00  0.00000000000E+00 -0.11164439078E+02  0.91140023092E+02  0.90453629608E+02 0.  0.
        -13    1    3    3    0    0 -0.37890818374E+02  0.83185935559E+01 -0.29008171644E+02  0.48439635738E+02  0.10570000000E+00 0.  1.
         13    1    3    3    0    0  0.37890818374E+02 -0.83185935559E+01  0.17843732566E+02  0.42700387354E+02  0.10570000000E+00 0. -1.
<mgrwt>
<rscale>  0 0.90453630E+02</rscale>
<asrwt>0</asrwt>
<pdfrwt beam="1">  1        3 0.61519680E-02 0.90453630E+02</pdfrwt>
<pdfrwt beam="2">  1       -3 0.78695741E-02 0.90453630E+02</pdfrwt>
<totfact> 0.36116256E+04</totfact>
</mgrwt>
</event>
<event>
 5    1  0.1401471E+000  0.9127574E+02  0.7818608E-02  0.1299791E+00
         -3   -1    0    0    0  501 -0.00000000000E+00  0.00000000000E+00  0.85647373467E+02  0.85647423958E+02  0.93000000000E-01 0.  1.
          3   -1    0    0  501    0  0.00000000000E+00 -0.00000000000E+00 -0.24318345524E+02  0.24318523352E+02  0.93000000000E-01 0. -1.
         23    2    1    2    0    0  0.00000000000E+00  0.00000000000E+00  0.61329027942E+02  0.10996594731E+03  0.91275735547E+02 0.  0.
        -13    1    3    3    0    0 -0.21233872894E+02  0.12179975024E+02 -0.15739717108E+02  0.29102903924E+02  0.10570000000E+00 0. -1.
         13    1    3    3    0    0  0.21233872894E+02 -0.12179975024E+02  0.77068745051E+02  0.80863043387E+02  0.10570000000E+00 0.  1.
<mgrwt>
<rscale>  0 0.91275736E+02</rscale>
<asrwt>0</asrwt>
<pdfrwt beam="2">  1        3 0.37413015E-02 0.91275736E+02</pdfrwt>
<pdfrwt beam="1">  1       -3 0.13176536E-01 0.91275736E+02</pdfrwt>
<totfact> 0.33848768E+04</totfact>
</mgrwt>
</event>
<event>
 5    1  0.1401471E+000  0.9588912E+02  0.7818608E-02  0.1289186E+00
          3   -1    0    0  501    0  0.00000000000E+00  0.00000000000E+00  0.12976889066E+03  0.12976892399E+03  0.93000000000E-01 0. -1.
         -3   -1    0    0    0  501 -0.00000000000E+00 -0.00000000000E+00 -0.17713492391E+02  0.17713736525E+02  0.93000000000E-01 0.  1.
         23    2    1    2    0    0  0.00000000000E+00  0.00000000000E+00  0.11205539827E+03  0.14748266051E+03  0.95889117578E+02 0.  0.
        -13    1    3    3    0    0  0.27134852288E+02  0.37007469248E+02  0.77384873943E+02  0.89968232596E+02  0.10570000000E+00 0. -1.
         13    1    3    3    0    0 -0.27134852288E+02 -0.37007469248E+02  0.34670524330E+02  0.57514427917E+02  0.10570000000E+00 0.  1.
<mgrwt>
<rscale>  0 0.95889118E+02</rscale>
<asrwt>0</asrwt>
<pdfrwt beam="1">  1        3 0.19964465E-01 0.95889118E+02</pdfrwt>
<pdfrwt beam="2">  1       -3 0.27251741E-02 0.95889118E+02</pdfrwt>
<totfact> 0.27431567E+04</totfact>
</mgrwt>
</event>
<event>
 5    1  0.1401471E+000  0.9248620E+02  0.7818608E-02  0.1296940E+00
          3   -1    0    0  501    0  0.00000000000E+00  0.00000000000E+00  0.19622493421E+03  0.19622495625E+03  0.93000000000E-01 0. -1.
         -3   -1    0    0    0  501 -0.00000000000E+00 -0.00000000000E+00 -0.10897599605E+02  0.10897996429E+02  0.93000000000E-01 0.  1.
         23    2    1    2    0    0  0.00000000000E+00  0.00000000000E+00  0.18532733460E+03  0.20712295268E+03  0.92486196668E+02 0.  0.
        -13    1    3    3    0    0  0.20971933745E+02  0.34609557420E+02  0.14277895684E+03  0.14840311708E+03  0.10570000000E+00 0. -1.
         13    1    3    3    0    0 -0.20971933745E+02 -0.34609557420E+02  0.42548377762E+02  0.58719835597E+02  0.10570000000E+00 0.  1.
<mgrwt>
<rscale>  0 0.92486197E+02</rscale>
<asrwt>0</asrwt>
<pdfrwt beam="1">  1        3 0.30188484E-01 0.92486197E+02</pdfrwt>
<pdfrwt beam="2">  1       -3 0.16765860E-02 0.92486197E+02</pdfrwt>
<totfact> 0.27070804E+04</totfact>
</mgrwt>
</event>
<event>
 4    1  0.1401471E+000  0.1311733E+03  0.7818608E-02  0.1225725E+00
          3   -1    0    0  501    0  0.00000000000E+00  0.00000000000E+00  0.78216173603E+01  0.78221702315E+01  0.93000000000E-01 0. -1.
         -3   -1    0    0    0  501 -0.00000000000E+00 -0.00000000000E+00 -0.54994412242E+03  0.54994413029E+03  0.93000000000E-01 0.  1.
        -13    1    1    2    0    0  0.10442008982E+02 -0.64731259819E+02 -0.27768442222E+03  0.28532055844E+03  0.10570000000E+00 0.  1.
         13    1    1    2    0    0 -0.10442008982E+02  0.64731259819E+02 -0.26443808284E+03  0.27244574208E+03  0.10570000000E+00 0. -1.
<mgrwt>
<rscale>  0 0.13117330E+03</rscale>
<asrwt>0</asrwt>
<pdfrwt beam="1">  1        3 0.12033693E-02 0.13117330E+03</pdfrwt>
<pdfrwt beam="2">  1       -3 0.84606801E-01 0.13117330E+03</pdfrwt>
<totfact> 0.61581366E+03</totfact>
</mgrwt>
</event>
<event>
 5    1  0.1401471E+000  0.9249830E+02  0.7818608E-02  0.1296912E+00
          3   -1    0    0  501    0  0.00000000000E+00  0.00000000000E+00  0.51548593376E+02  0.51548677267E+02  0.93000000000E-01 0. -1.
         -3   -1    0    0    0  501 -0.00000000000E+00 -0.00000000000E+00 -0.41494344091E+02  0.41494448310E+02  0.93000000000E-01 0.  1.
         23    2    1    2    0    0  0.00000000000E+00  0.00000000000E+00  0.10054249285E+02  0.93043125577E+02  0.92498298841E+02 0.  0.
        -13    1    3    3    0    0 -0.44816637826E+02 -0.10402400762E+02  0.28430394711E+00  0.46009053119E+02  0.10570000000E+00 0.  1.
         13    1    3    3    0    0  0.44816637826E+02  0.10402400762E+02  0.97699453374E+01  0.47034072459E+02  0.10570000000E+00 0. -1.
<mgrwt>
<rscale>  0 0.92498299E+02</rscale>
<asrwt>0</asrwt>
<pdfrwt beam="1">  1        3 0.79305673E-02 0.92498299E+02</pdfrwt>
<pdfrwt beam="2">  1       -3 0.63837597E-02 0.92498299E+02</pdfrwt>
<totfact> 0.33839486E+04</totfact>
</mgrwt>
</event>
<event>
 5    1  0.1401471E+000  0.9608150E+02  0.7818608E-02  0.1288759E+00
         -3   -1    0    0    0  501 -0.00000000000E+00  0.00000000000E+00  0.35569635387E+02  0.35569756965E+02  0.93000000000E-01 0.  1.
          3   -1    0    0  501    0  0.00000000000E+00 -0.00000000000E+00 -0.64884115035E+02  0.64884181684E+02  0.93000000000E-01 0. -1.
         23    2    1    2    0    0  0.00000000000E+00  0.00000000000E+00 -0.29314479648E+02  0.10045393865E+03  0.96081502243E+02 0.  0.
        -13    1    3    3    0    0  0.71310925593E+01 -0.38681985362E+02  0.14179711357E+02  0.41811766996E+02  0.10570000000E+00 0.  1.
         13    1    3    3    0    0 -0.71310925593E+01  0.38681985362E+02 -0.43494191005E+02  0.58642171654E+02  0.10570000000E+00 0. -1.
<mgrwt>
<rscale>  0 0.96081502E+02</rscale>
<asrwt>0</asrwt>
<pdfrwt beam="2">  1        3 0.99821860E-02 0.96081502E+02</pdfrwt>
<pdfrwt beam="1">  1       -3 0.54722661E-02 0.96081502E+02</pdfrwt>
<totfact> 0.30014889E+04</totfact>
</mgrwt>
</event>
<event>
 5    1  0.1401471E+000  0.8978872E+02  0.7818608E-02  0.1303364E+00
          3   -1    0    0  501    0  0.00000000000E+00  0.00000000000E+00  0.12873130794E+03  0.12873134153E+03  0.93000000000E-01 0. -1.
         -3   -1    0    0    0  501 -0.00000000000E+00 -0.00000000000E+00 -0.15656495041E+02  0.15656771250E+02  0.93000000000E-01 0.  1.
         23    2    1    2    0    0  0.00000000000E+00  0.00000000000E+00  0.11307481290E+03  0.14438811278E+03  0.89788717558E+02 0.  0.
        -13    1    3    3    0    0 -0.26779692788E+02  0.34940019165E+02  0.70697289499E+02  0.83283100327E+02  0.10570000000E+00 0.  1.
         13    1    3    3    0    0  0.26779692788E+02 -0.34940019165E+02  0.42377523397E+02  0.61105012453E+02  0.10570000000E+00 0. -1.
<mgrwt>
<rscale>  0 0.89788718E+02</rscale>
<asrwt>0</asrwt>
<pdfrwt beam="1">  1        3 0.19804841E-01 0.89788718E+02</pdfrwt>
<pdfrwt beam="2">  1       -3 0.24087153E-02 0.89788718E+02</pdfrwt>
<totfact> 0.32994186E+04</totfact>
</mgrwt>
</event>
<event>
 5    1  0.1401471E+000  0.8761330E+02  0.7818608E-02  0.1308737E+00
          3   -1    0    0  501    0  0.00000000000E+00  0.00000000000E+00  0.20928346848E+03  0.20928348914E+03  0.93000000000E-01 0. -1.
         -3   -1    0    0    0  501 -0.00000000000E+00 -0.00000000000E+00 -0.91692334720E+01  0.91697050914E+01  0.93000000000E-01 0.  1.
         23    2    1    2    0    0  0.00000000000E+00  0.00000000000E+00  0.20011423501E+03  0.21845319424E+03  0.87613303890E+02 0.  0.
        -13    1    3    3    0    0 -0.73719348993E+01  0.43159749296E+02  0.10349599167E+03  0.11237678073E+03  0.10570000000E+00 0. -1.
         13    1    3    3    0    0  0.73719348993E+01 -0.43159749296E+02  0.96618243339E+02  0.10607641350E+03  0.10570000000E+00 0.  1.
<mgrwt>
<rscale>  0 0.87613304E+02</rscale>
<asrwt>0</asrwt>
<pdfrwt beam="1">  1        3 0.32197491E-01 0.87613304E+02</pdfrwt>
<pdfrwt beam="2">  1       -3 0.14106893E-02 0.87613304E+02</pdfrwt>
<totfact> 0.30687220E+04</totfact>
</mgrwt>
</event>
<event>
 4    1  0.1401471E+000  0.2650448E+02  0.7818608E-02  0.1640288E+00
         -3   -1    0    0    0  501 -0.00000000000E+00  0.00000000000E+00  0.28900452998E+02  0.28900602632E+02  0.93000000000E-01 0. -1.
          3   -1    0    0  501    0  0.00000000000E+00 -0.00000000000E+00 -0.60762657596E+01  0.60769774215E+01  0.93000000000E-01 0.  1.
        -13    1    1    2    0    0 -0.98304476843E+01  0.86599839287E+01  0.14044097023E+02  0.19206271293E+02  0.10570000000E+00 0.  1.
         13    1    1    2    0    0  0.98304476843E+01 -0.86599839287E+01  0.87800902157E+01  0.15771308760E+02  0.10570000000E+00 0. -1.
<mgrwt>
<rscale>  0 0.26504482E+02</rscale>
<asrwt>0</asrwt>
<pdfrwt beam="2">  1        3 0.93487636E-03 0.26504482E+02</pdfrwt>
<pdfrwt beam="1">  1       -3 0.44462898E-02 0.26504482E+02</pdfrwt>
<totfact> 0.90952828E+05</totfact>
</mgrwt>
</event>
<event>
 5    1  0.1401471E+000  0.8723349E+02  0.7818608E-02  0.1309693E+00
         -3   -1    0    0    0  501 -0.00000000000E+00  0.00000000000E+00  0.83706621898E+02  0.83706673561E+02  0.93000000000E-01 0.  1.
          3   -1    0    0  501    0  0.00000000000E+00 -0.00000000000E+00 -0.22727087822E+02  0.22727278100E+02  0.93000000000E-01 0. -1.
         23    2    1    2    0    0  0.00000000000E+00  0.00000000000E+00  0.60979534076E+02  0.10643395166E+03  0.87233494083E+02 0.  0.
        -13    1    3    3    0    0 -0.28270489638E+00  0.43406889452E+02  0.35690828924E+02  0.56196836350E+02  0.10570000000E+00 0.  1.
         13    1    3    3    0    0  0.28270489638E+00 -0.43406889452E+02  0.25288705153E+02  0.50237115311E+02  0.10570000000E+00 0. -1.
<mgrwt>
<rscale>  0 0.87233494E+02</rscale>
<asrwt>0</asrwt>
<pdfrwt beam="2">  1        3 0.34964936E-02 0.87233494E+02</pdfrwt>
<pdfrwt beam="1">  1       -3 0.12877961E-01 0.87233494E+02</pdfrwt>
<totfact> 0.38553372E+04</totfact>
</mgrwt>
</event>
<event>
 5    1  0.1401471E+000  0.8723361E+02  0.7818608E-02  0.1309693E+00
         -3   -1    0    0    0  501 -0.00000000000E+00  0.00000000000E+00  0.27238352391E+02  0.27238511156E+02  0.93000000000E-01 0.  1.
          3   -1    0    0  501    0  0.00000000000E+00 -0.00000000000E+00 -0.69843241745E+02  0.69843303662E+02  0.93000000000E-01 0. -1.
         23    2    1    2    0    0  0.00000000000E+00  0.00000000000E+00 -0.42604889354E+02  0.97081814818E+02  0.87233606893E+02 0.  0.
        -13    1    3    3    0    0  0.11903132011E+02 -0.34269963121E+02 -0.48249654161E+02  0.60366838770E+02  0.10570000000E+00 0. -1.
         13    1    3    3    0    0 -0.11903132011E+02  0.34269963121E+02  0.56447648076E+01  0.36714976048E+02  0.10570000000E+00 0.  1.
<mgrwt>
<rscale>  0 0.87233607E+02</rscale>
<asrwt>0</asrwt>
<pdfrwt beam="2">  1        3 0.10745131E-01 0.87233607E+02</pdfrwt>
<pdfrwt beam="1">  1       -3 0.41905328E-02 0.87233607E+02</pdfrwt>
<totfact> 0.39332372E+04</totfact>
</mgrwt>
</event>
<event>
 5    1  0.1401471E+000  0.9309592E+02  0.7818608E-02  0.1295523E+00
         -3   -1    0    0    0  501 -0.00000000000E+00  0.00000000000E+00  0.14879836123E+02  0.14880126749E+02  0.93000000000E-01 0.  1.
          3   -1    0    0  501    0  0.00000000000E+00 -0.00000000000E+00 -0.14561229008E+03  0.14561231978E+03  0.93000000000E-01 0. -1.
         23    2    1    2    0    0  0.00000000000E+00  0.00000000000E+00 -0.13073245395E+03  0.16049244652E+03  0.93095922975E+02 0.  0.
        -13    1    3    3    0    0 -0.12023715229E+02 -0.44956442550E+02 -0.63599629914E+02  0.78807204952E+02  0.10570000000E+00 0.  1.
         13    1    3    3    0    0  0.12023715229E+02  0.44956442550E+02 -0.67132824040E+02  0.81685241573E+02  0.10570000000E+00 0. -1.
<mgrwt>
<rscale>  0 0.93095923E+02</rscale>
<asrwt>0</asrwt>
<pdfrwt beam="2">  1        3 0.22401914E-01 0.93095923E+02</pdfrwt>
<pdfrwt beam="1">  1       -3 0.22892303E-02 0.93095923E+02</pdfrwt>
<totfact> 0.28991606E+04</totfact>
</mgrwt>
</event>
<event>
 5    1  0.1401471E+000  0.9130879E+02  0.7818608E-02  0.1299713E+00
          3   -1    0    0  501    0  0.00000000000E+00  0.00000000000E+00  0.66858070007E+01  0.66864537874E+01  0.93000000000E-01 0. -1.
         -3   -1    0    0    0  501 -0.00000000000E+00 -0.00000000000E+00 -0.31173780647E+03  0.31173782034E+03  0.93000000000E-01 0.  1.
         23    2    1    2    0    0  0.00000000000E+00  0.00000000000E+00 -0.30505199946E+03  0.31842427413E+03  0.91308794618E+02 0.  0.
        -13    1    3    3    0    0 -0.21034885846E+02  0.35139540482E+02 -0.82166573649E+02  0.91807465522E+02  0.10570000000E+00 0. -1.
         13    1    3    3    0    0  0.21034885846E+02 -0.35139540482E+02 -0.22288542582E+03  0.22661680860E+03  0.10570000000E+00 0.  1.
<mgrwt>
<rscale>  0 0.91308795E+02</rscale>
<asrwt>0</asrwt>
<pdfrwt beam="1">  1        3 0.10286368E-02 0.91308795E+02</pdfrwt>
<pdfrwt beam="2">  1       -3 0.47959702E-01 0.91308795E+02</pdfrwt>
<totfact> 0.23236076E+04</totfact>
</mgrwt>
</event>
<event>
 5    1  0.1401471E+000  0.8928832E+02  0.7818608E-02  0.1304584E+00
         -3   -1    0    0    0  501 -0.00000000000E+00  0.00000000000E+00  0.11546974135E+02  0.11547348642E+02  0.93000000000E-01 0.  1.
          3   -1    0    0  501    0  0.00000000000E+00 -0.00000000000E+00 -0.17260488896E+03  0.17260491401E+03  0.93000000000E-01 0. -1.
         23    2    1    2    0    0  0.00000000000E+00  0.00000000000E+00 -0.16105791482E+03  0.18415226265E+03  0.89288319021E+02 0.  0.
        -13    1    3    3    0    0  0.12878817420E+02 -0.30444826445E+02 -0.18643970734E+02  0.37952077843E+02  0.10570000000E+00 0.  1.
         13    1    3    3    0    0 -0.12878817420E+02  0.30444826445E+02 -0.14241394409E+03  0.14620018481E+03  0.10570000000E+00 0. -1.
<mgrwt>
<rscale>  0 0.89288319E+02</rscale>
<asrwt>0</asrwt>
<pdfrwt beam="2">  1        3 0.26554627E-01 0.89288319E+02</pdfrwt>
<pdfrwt beam="1">  1       -3 0.17764884E-02 0.89288319E+02</pdfrwt>
<totfact> 0.31040523E+04</totfact>
</mgrwt>
</event>
<event>
 5    1  0.1401471E+000  0.9107622E+02  0.7818608E-02  0.1300266E+00
          3   -1    0    0  501    0  0.00000000000E+00  0.00000000000E+00  0.75654627427E+02  0.75654684588E+02  0.93000000000E-01 0. -1.
         -3   -1    0    0    0  501 -0.00000000000E+00 -0.00000000000E+00 -0.27410196835E+02  0.27410354604E+02  0.93000000000E-01 0.  1.
         23    2    1    2    0    0  0.00000000000E+00  0.00000000000E+00  0.48244430592E+02  0.10306503919E+03  0.91076216547E+02 0.  0.
        -13    1    3    3    0    0  0.13105677379E+02  0.41897090814E+02  0.10421337470E+02  0.45119180461E+02  0.10570000000E+00 0. -1.
         13    1    3    3    0    0 -0.13105677379E+02 -0.41897090814E+02  0.37823093122E+02  0.57945858731E+02  0.10570000000E+00 0.  1.
<mgrwt>
<rscale>  0 0.91076217E+02</rscale>
<asrwt>0</asrwt>
<pdfrwt beam="1">  1        3 0.11639190E-01 0.91076217E+02</pdfrwt>
<pdfrwt beam="2">  1       -3 0.42169699E-02 0.91076217E+02</pdfrwt>
<totfact> 0.34549301E+04</totfact>
</mgrwt>
</event>
<event>
 5    1  0.1401471E+000  0.9024804E+02  0.7818608E-02  0.1302252E+00
         -3   -1    0    0    0  501 -0.00000000000E+00  0.00000000000E+00  0.10249000530E+03  0.10249004750E+03  0.93000000000E-01 0.  1.
          3   -1    0    0  501    0  0.00000000000E+00 -0.00000000000E+00 -0.19866925531E+02  0.19867143203E+02  0.93000000000E-01 0. -1.
         23    2    1    2    0    0  0.00000000000E+00  0.00000000000E+00  0.82623079773E+02  0.12235719070E+03  0.90248040450E+02 0.  0.
        -13    1    3    3    0    0 -0.58525095869E+01 -0.37704699240E+02  0.73970827416E+02  0.83232149403E+02  0.10570000000E+00 0.  1.
         13    1    3    3    0    0  0.58525095869E+01  0.37704699240E+02  0.86522523570E+01  0.39125041298E+02  0.10570000000E+00 0. -1.
<mgrwt>
<rscale>  0 0.90248040E+02</rscale>
<asrwt>0</asrwt>
<pdfrwt beam="2">  1        3 0.30564702E-02 0.90248040E+02</pdfrwt>
<pdfrwt beam="1">  1       -3 0.15767713E-01 0.90248040E+02</pdfrwt>
<totfact> 0.34018674E+04</totfact>
</mgrwt>
</event>
<event>
 5    1  0.1401471E+000  0.9389260E+02  0.7818608E-02  0.1293690E+00
         -3   -1    0    0    0  501 -0.00000000000E+00  0.00000000000E+00  0.24619733697E+03  0.24619735453E+03  0.93000000000E-01 0.  1.
          3   -1    0    0  501    0  0.00000000000E+00 -0.00000000000E+00 -0.89517258227E+01  0.89522089008E+01  0.93000000000E-01 0. -1.
         23    2    1    2    0    0  0.00000000000E+00  0.00000000000E+00  0.23724561114E+03  0.25514956343E+03  0.93892596688E+02 0.  0.
        -13    1    3    3    0    0 -0.22502916367E+02  0.25799531862E+02  0.31327255534E+02  0.46404797178E+02  0.10570000000E+00 0. -1.
         13    1    3    3    0    0  0.22502916367E+02 -0.25799531862E+02  0.20591835561E+03  0.20874476625E+03  0.10570000000E+00 0.  1.
<mgrwt>
<rscale>  0 0.93892597E+02</rscale>
<asrwt>0</asrwt>
<pdfrwt beam="2">  1        3 0.13772271E-02 0.93892597E+02</pdfrwt>
<pdfrwt beam="1">  1       -3 0.37876552E-01 0.93892597E+02</pdfrwt>
<totfact> 0.23902790E+04</totfact>
</mgrwt>
</event>
<event>
 5    1  0.1401471E+000  0.9199733E+02  0.7818608E-02  0.1298086E+00
         -3   -1    0    0    0  501 -0.00000000000E+00  0.00000000000E+00  0.11031473754E+02  0.11031865762E+02  0.93000000000E-01 0.  1.
          3   -1    0    0  501    0  0.00000000000E+00 -0.00000000000E+00 -0.19179985753E+03  0.19179988008E+03  0.93000000000E-01 0. -1.
         23    2    1    2    0    0  0.00000000000E+00  0.00000000000E+00 -0.18076838378E+03  0.20283174584E+03  0.91997329023E+02 0.  0.
        -13    1    3    3    0    0  0.33329121607E+02  0.13832415314E+02 -0.27492563075E+02  0.45365386116E+02  0.10570000000E+00 0.  1.
         13    1    3    3    0    0 -0.33329121607E+02 -0.13832415314E+02 -0.15327582070E+03  0.15746635973E+03  0.10570000000E+00 0. -1.
<mgrwt>
<rscale>  0 0.91997329E+02</rscale>
<asrwt>0</asrwt>
<pdfrwt beam="2">  1        3 0.29507700E-01 0.91997329E+02</pdfrwt>
<pdfrwt beam="1">  1       -3 0.16971818E-02 0.91997329E+02</pdfrwt>
<totfact> 0.27674526E+04</totfact>
</mgrwt>
</event>
<event>
 5    1  0.1401471E+000  0.8858814E+02  0.7818608E-02  0.1306307E+00
         -3   -1    0    0    0  501 -0.00000000000E+00  0.00000000000E+00  0.14532856455E+03  0.14532859430E+03  0.93000000000E-01 0.  1.
          3   -1    0    0  501    0  0.00000000000E+00 -0.00000000000E+00 -0.13500009813E+02  0.13500330142E+02  0.93000000000E-01 0. -1.
         23    2    1    2    0    0  0.00000000000E+00  0.00000000000E+00  0.13182855473E+03  0.15882892445E+03  0.88588144789E+02 0.  0.
        -13    1    3    3    0    0  0.27573896007E+02 -0.24749972891E+02  0.22399329762E+02  0.43296905725E+02  0.10570000000E+00 0. -1.
         13    1    3    3    0    0 -0.27573896007E+02  0.24749972891E+02  0.10942922497E+03  0.11553201872E+03  0.10570000000E+00 0.  1.
<mgrwt>
<rscale>  0 0.88588145E+02</rscale>
<asrwt>0</asrwt>
<pdfrwt beam="2">  1        3 0.20769516E-02 0.88588145E+02</pdfrwt>
<pdfrwt beam="1">  1       -3 0.22358267E-01 0.88588145E+02</pdfrwt>
<totfact> 0.33263149E+04</totfact>
</mgrwt>
</event>
<event>
 5    1  0.1401471E+000  0.8438597E+02  0.7818608E-02  0.1317046E+00
          3   -1    0    0  501    0  0.00000000000E+00  0.00000000000E+00  0.35524176049E+02  0.35524297783E+02  0.93000000000E-01 0. -1.
         -3   -1    0    0    0  501 -0.00000000000E+00 -0.00000000000E+00 -0.50113448149E+02  0.50113534443E+02  0.93000000000E-01 0.  1.
         23    2    1    2    0    0  0.00000000000E+00  0.00000000000E+00 -0.14589272100E+02  0.85637832226E+02  0.84385967127E+02 0.  0.
        -13    1    3    3    0    0  0.28851570479E+02  0.23704317163E+02 -0.27231144186E+02  0.46215302200E+02  0.10570000000E+00 0.  1.
         13    1    3    3    0    0 -0.28851570479E+02 -0.23704317163E+02  0.12641872086E+02  0.39422530026E+02  0.10570000000E+00 0. -1.
<mgrwt>
<rscale>  0 0.84385967E+02</rscale>
<asrwt>0</asrwt>
<pdfrwt beam="1">  1        3 0.54652739E-02 0.84385967E+02</pdfrwt>
<pdfrwt beam="2">  1       -3 0.77097773E-02 0.84385967E+02</pdfrwt>
<totfact> 0.44119368E+04</totfact>
</mgrwt>
</event>
<event>
 5    1  0.1401471E+000  0.9277281E+02  0.7818608E-02  0.1296273E+00
          3   -1    0    0  501    0  0.00000000000E+00  0.00000000000E+00  0.43927151594E+02  0.43927250041E+02  0.93000000000E-01 0. -1.
         -3   -1    0    0    0  501 -0.00000000000E+00 -0.00000000000E+00 -0.48983143208E+02  0.48983231493E+02  0.93000000000E-01 0.  1.
         23    2    1    2    0    0  0.00000000000E+00  0.00000000000E+00 -0.50559916140E+01  0.92910481534E+02  0.92772811360E+02 0.  0.
        -13    1    3    3    0    0  0.34688086598E+02  0.27343639231E+02 -0.16717631023E+02  0.47227410661E+02  0.10570000000E+00 0.  1.
         13    1    3    3    0    0 -0.34688086598E+02 -0.27343639231E+02  0.11661639409E+02  0.45683070873E+02  0.10570000000E+00 0. -1.
<mgrwt>
<rscale>  0 0.92772811E+02</rscale>
<asrwt>0</asrwt>
<pdfrwt beam="1">  1        3 0.67580377E-02 0.92772811E+02</pdfrwt>
<pdfrwt beam="2">  1       -3 0.75358826E-02 0.92772811E+02</pdfrwt>
<totfact> 0.33576018E+04</totfact>
</mgrwt>
</event>
<event>
 5    1  0.1401471E+000  0.9112777E+02  0.7818608E-02  0.1300143E+00
         -3   -1    0    0    0  501 -0.00000000000E+00  0.00000000000E+00  0.20361391659E+03  0.20361393783E+03  0.93000000000E-01 0.  1.
          3   -1    0    0  501    0  0.00000000000E+00 -0.00000000000E+00 -0.10195864712E+02  0.10196288845E+02  0.93000000000E-01 0. -1.
         23    2    1    2    0    0  0.00000000000E+00  0.00000000000E+00  0.19341805188E+03  0.21381022668E+03  0.91127768754E+02 0.  0.
        -13    1    3    3    0    0 -0.13700357575E+02  0.37750631791E+02  0.14720813992E+03  0.15258786855E+03  0.10570000000E+00 0.  1.
         13    1    3    3    0    0  0.13700357575E+02 -0.37750631791E+02  0.46209911962E+02  0.61222358125E+02  0.10570000000E+00 0. -1.
<mgrwt>
<rscale>  0 0.91127769E+02</rscale>
<asrwt>0</asrwt>
<pdfrwt beam="2">  1        3 0.15686287E-02 0.91127769E+02</pdfrwt>
<pdfrwt beam="1">  1       -3 0.31325255E-01 0.91127769E+02</pdfrwt>
<totfact> 0.27838388E+04</totfact>
</mgrwt>
</event>
<event>
 5    1  0.1401471E+000  0.8819035E+02  0.7818608E-02  0.1307294E+00
         -3   -1    0    0    0  501 -0.00000000000E+00  0.00000000000E+00  0.99000002271E+01  0.99004370356E+01  0.93000000000E-01 0.  1.
          3   -1    0    0  501    0  0.00000000000E+00 -0.00000000000E+00 -0.19639770291E+03  0.19639772493E+03  0.93000000000E-01 0. -1.
         23    2    1    2    0    0  0.00000000000E+00  0.00000000000E+00 -0.18649770268E+03  0.20629816197E+03  0.88190353917E+02 0.  0.
        -13    1    3    3    0    0 -0.30694471543E+02 -0.91690432717E+01 -0.16413011510E+03  0.16722717420E+03  0.10570000000E+00 0. -1.
         13    1    3    3    0    0  0.30694471543E+02  0.91690432717E+01 -0.22367587588E+02  0.39070987764E+02  0.10570000000E+00 0.  1.
<mgrwt>
<rscale>  0 0.88190354E+02</rscale>
<asrwt>0</asrwt>
<pdfrwt beam="2">  1        3 0.30215064E-01 0.88190354E+02</pdfrwt>
<pdfrwt beam="1">  1       -3 0.15231124E-02 0.88190354E+02</pdfrwt>
<totfact> 0.30814810E+04</totfact>
</mgrwt>
</event>
<event>
 5    1  0.1401471E+000  0.9137953E+02  0.7818608E-02  0.1299545E+00
          3   -1    0    0  501    0  0.00000000000E+00  0.00000000000E+00  0.23566892048E+03  0.23566893883E+03  0.93000000000E-01 0. -1.
         -3   -1    0    0    0  501 -0.00000000000E+00 -0.00000000000E+00 -0.88577340297E+01  0.88582222337E+01  0.93000000000E-01 0.  1.
         23    2    1    2    0    0  0.00000000000E+00  0.00000000000E+00  0.22681118645E+03  0.24452716106E+03  0.91379528335E+02 0.  0.
        -13    1    3    3    0    0  0.38076283100E+02 -0.20880590847E+02  0.15141361308E+03  0.15751792218E+03  0.10570000000E+00 0. -1.
         13    1    3    3    0    0 -0.38076283100E+02  0.20880590847E+02  0.75397573368E+02  0.87009238884E+02  0.10570000000E+00 0.  1.
<mgrwt>
<rscale>  0 0.91379528E+02</rscale>
<asrwt>0</asrwt>
<pdfrwt beam="1">  1        3 0.36256795E-01 0.91379528E+02</pdfrwt>
<pdfrwt beam="2">  1       -3 0.13627673E-02 0.91379528E+02</pdfrwt>
<totfact> 0.26191624E+04</totfact>
</mgrwt>
</event>
<event>
 5    1  0.1401471E+000  0.9125008E+02  0.7818608E-02  0.1299852E+00
          3   -1    0    0  501    0  0.00000000000E+00  0.00000000000E+00  0.27326512742E+02  0.27326670994E+02  0.93000000000E-01 0. -1.
         -3   -1    0    0    0  501 -0.00000000000E+00 -0.00000000000E+00 -0.76176318256E+02  0.76176375026E+02  0.93000000000E-01 0.  1.
         23    2    1    2    0    0  0.00000000000E+00  0.00000000000E+00 -0.48849805514E+02  0.10350304602E+03  0.91250079653E+02 0.  0.
        -13    1    3    3    0    0  0.21560668936E+02  0.30549946992E+01 -0.69901393750E+02  0.73214830863E+02  0.10570000000E+00 0.  1.
         13    1    3    3    0    0 -0.21560668936E+02 -0.30549946992E+01  0.21051588236E+02  0.30288215156E+02  0.10570000000E+00 0. -1.
<mgrwt>
<rscale>  0 0.91250080E+02</rscale>
<asrwt>0</asrwt>
<pdfrwt beam="1">  1        3 0.42040954E-02 0.91250080E+02</pdfrwt>
<pdfrwt beam="2">  1       -3 0.11719450E-01 0.91250080E+02</pdfrwt>
<totfact> 0.34339721E+04</totfact>
</mgrwt>
</event>
<event>
 5    1  0.1401471E+000  0.9195434E+02  0.7818608E-02  0.1298187E+00
         -3   -1    0    0    0  501 -0.00000000000E+00  0.00000000000E+00  0.11877231249E+03  0.11877234890E+03  0.93000000000E-01 0.  1.
          3   -1    0    0  501    0  0.00000000000E+00 -0.00000000000E+00 -0.17797761629E+02  0.17798004608E+02  0.93000000000E-01 0. -1.
         23    2    1    2    0    0  0.00000000000E+00  0.00000000000E+00  0.10097455086E+03  0.13657035351E+03  0.91954344843E+02 0.  0.
        -13    1    3    3    0    0 -0.14554115298E+02  0.16108001829E+02 -0.97062783854E+01  0.23780517396E+02  0.10570000000E+00 0. -1.
         13    1    3    3    0    0  0.14554115298E+02 -0.16108001829E+02  0.11068082925E+03  0.11278983611E+03  0.10570000000E+00 0.  1.
<mgrwt>
<rscale>  0 0.91954345E+02</rscale>
<asrwt>0</asrwt>
<pdfrwt beam="2">  1        3 0.27381387E-02 0.91954345E+02</pdfrwt>
<pdfrwt beam="1">  1       -3 0.18272685E-01 0.91954345E+02</pdfrwt>
<totfact> 0.31417229E+04</totfact>
</mgrwt>
</event>
<event>
 5    1  0.1401471E+000  0.9021185E+02  0.7818608E-02  0.1302339E+00
          3   -1    0    0  501    0  0.00000000000E+00  0.00000000000E+00  0.13592998086E+02  0.13593316224E+02  0.93000000000E-01 0. -1.
         -3   -1    0    0    0  501 -0.00000000000E+00 -0.00000000000E+00 -0.14967384872E+03  0.14967387761E+03  0.93000000000E-01 0.  1.
         23    2    1    2    0    0  0.00000000000E+00  0.00000000000E+00 -0.13608085063E+03  0.16326719383E+03  0.90211854396E+02 0.  0.
        -13    1    3    3    0    0  0.13024468424E+02  0.39346510313E+02 -0.35830268619E+02  0.54786896000E+02  0.10570000000E+00 0. -1.
         13    1    3    3    0    0 -0.13024468424E+02 -0.39346510313E+02 -0.10025058201E+03  0.10848029783E+03  0.10570000000E+00 0.  1.
<mgrwt>
<rscale>  0 0.90211854E+02</rscale>
<asrwt>0</asrwt>
<pdfrwt beam="1">  1        3 0.20912573E-02 0.90211854E+02</pdfrwt>
<pdfrwt beam="2">  1       -3 0.23026772E-01 0.90211854E+02</pdfrwt>
<totfact> 0.31404709E+04</totfact>
</mgrwt>
</event>
<event>
 5    1  0.1401471E+000  0.1129105E+03  0.7818608E-02  0.1255273E+00
         -3   -1    0    0    0  501 -0.00000000000E+00  0.00000000000E+00  0.15082457114E+03  0.15082459981E+03  0.93000000000E-01 0.  1.
          3   -1    0    0  501    0  0.00000000000E+00 -0.00000000000E+00 -0.21131677173E+02  0.21131881818E+02  0.93000000000E-01 0. -1.
         23    2    1    2    0    0  0.00000000000E+00  0.00000000000E+00  0.12969289396E+03  0.17195648163E+03  0.11291051691E+03 0.  0.
        -13    1    3    3    0    0 -0.25087050822E+02  0.49048777489E+02  0.83625186208E+02  0.10014152801E+03  0.10570000000E+00 0.  1.
         13    1    3    3    0    0  0.25087050822E+02 -0.49048777489E+02  0.46067707756E+02  0.71814953614E+02  0.10570000000E+00 0. -1.
<mgrwt>
<rscale>  0 0.11291052E+03</rscale>
<asrwt>0</asrwt>
<pdfrwt beam="2">  1        3 0.32510451E-02 0.11291052E+03</pdfrwt>
<pdfrwt beam="1">  1       -3 0.23203799E-01 0.11291052E+03</pdfrwt>
<totfact> 0.16708619E+04</totfact>
</mgrwt>
</event>
<event>
 5    1  0.1401471E+000  0.9242455E+02  0.7818608E-02  0.1297084E+00
         -3   -1    0    0    0  501 -0.00000000000E+00  0.00000000000E+00  0.16240913390E+02  0.16241179660E+02  0.93000000000E-01 0.  1.
          3   -1    0    0  501    0  0.00000000000E+00 -0.00000000000E+00 -0.13149213227E+03  0.13149216516E+03  0.93000000000E-01 0. -1.
         23    2    1    2    0    0  0.00000000000E+00  0.00000000000E+00 -0.11525121888E+03  0.14773334482E+03  0.92424551487E+02 0.  0.
        -13    1    3    3    0    0  0.40945299074E+02 -0.20822896368E+02 -0.49561464160E+02  0.67575590501E+02  0.10570000000E+00 0.  1.
         13    1    3    3    0    0 -0.40945299074E+02  0.20822896368E+02 -0.65689754723E+02  0.80157754319E+02  0.10570000000E+00 0. -1.
<mgrwt>
<rscale>  0 0.92424551E+02</rscale>
<asrwt>0</asrwt>
<pdfrwt beam="2">  1        3 0.20229581E-01 0.92424551E+02</pdfrwt>
<pdfrwt beam="1">  1       -3 0.24986252E-02 0.92424551E+02</pdfrwt>
<totfact> 0.30307021E+04</totfact>
</mgrwt>
</event>
<event>
 5    1  0.1401471E+000  0.9112958E+02  0.7818608E-02  0.1300139E+00
          3   -1    0    0  501    0  0.00000000000E+00  0.00000000000E+00  0.17468973518E+03  0.17468975994E+03  0.93000000000E-01 0. -1.
         -3   -1    0    0    0  501 -0.00000000000E+00 -0.00000000000E+00 -0.11884579497E+02  0.11884943366E+02  0.93000000000E-01 0.  1.
         23    2    1    2    0    0  0.00000000000E+00  0.00000000000E+00  0.16280515568E+03  0.18657470330E+03  0.91129584631E+02 0.  0.
        -13    1    3    3    0    0 -0.22256610707E+00 -0.41327216189E+02  0.42119433855E+02  0.59008865557E+02  0.10570000000E+00 0.  1.
         13    1    3    3    0    0  0.22256610707E+00  0.41327216189E+02  0.12068572183E+03  0.12756583774E+03  0.10570000000E+00 0. -1.
<mgrwt>
<rscale>  0 0.91129585E+02</rscale>
<asrwt>0</asrwt>
<pdfrwt beam="1">  1        3 0.26875372E-01 0.91129585E+02</pdfrwt>
<pdfrwt beam="2">  1       -3 0.18284269E-02 0.91129585E+02</pdfrwt>
<totfact> 0.29248729E+04</totfact>
</mgrwt>
</event>
<event>
 5    1  0.1401471E+000  0.9035581E+02  0.7818608E-02  0.1301992E+00
          3   -1    0    0  501    0  0.00000000000E+00  0.00000000000E+00  0.16998057743E+03  0.16998060287E+03  0.93000000000E-01 0. -1.
         -3   -1    0    0    0  501 -0.00000000000E+00 -0.00000000000E+00 -0.12007301337E+02  0.12007661487E+02  0.93000000000E-01 0.  1.
         23    2    1    2    0    0  0.00000000000E+00  0.00000000000E+00  0.15797327610E+03  0.18198826436E+03  0.90355810022E+02 0.  0.
        -13    1    3    3    0    0  0.11453207044E+02  0.39911669773E+02  0.11484235562E+03  0.12211836533E+03  0.10570000000E+00 0. -1.
         13    1    3    3    0    0 -0.11453207044E+02 -0.39911669773E+02  0.43130920479E+02  0.59869899028E+02  0.10570000000E+00 0.  1.
<mgrwt>
<rscale>  0 0.90355810E+02</rscale>
<asrwt>0</asrwt>
<pdfrwt beam="1">  1        3 0.26150886E-01 0.90355810E+02</pdfrwt>
<pdfrwt beam="2">  1       -3 0.18473069E-02 0.90355810E+02</pdfrwt>
<totfact> 0.30184287E+04</totfact>
</mgrwt>
</event>
<event>
 5    1  0.1401471E+000  0.8902069E+02  0.7818608E-02  0.1305241E+00
         -3   -1    0    0    0  501 -0.00000000000E+00  0.00000000000E+00  0.47534760721E+02  0.47534851697E+02  0.93000000000E-01 0.  1.
          3   -1    0    0  501    0  0.00000000000E+00 -0.00000000000E+00 -0.41678180259E+02  0.41678284018E+02  0.93000000000E-01 0. -1.
         23    2    1    2    0    0  0.00000000000E+00  0.00000000000E+00  0.58565804624E+01  0.89213135715E+02  0.89020694500E+02 0.  0.
        -13    1    3    3    0    0 -0.14556625494E+02  0.41630569668E+02  0.89546217188E+01  0.45002178828E+02  0.10570000000E+00 0.  1.
         13    1    3    3    0    0  0.14556625494E+02 -0.41630569668E+02 -0.30980412563E+01  0.44210956886E+02  0.10570000000E+00 0. -1.
<mgrwt>
<rscale>  0 0.89020695E+02</rscale>
<asrwt>0</asrwt>
<pdfrwt beam="2">  1        3 0.64120427E-02 0.89020695E+02</pdfrwt>
<pdfrwt beam="1">  1       -3 0.73130552E-02 0.89020695E+02</pdfrwt>
<totfact> 0.37875582E+04</totfact>
</mgrwt>
</event>
<event>
 5    1  0.1401471E+000  0.8944933E+02  0.7818608E-02  0.1304191E+00
         -3   -1    0    0    0  501 -0.00000000000E+00  0.00000000000E+00  0.66832130641E+02  0.66832195347E+02  0.93000000000E-01 0.  1.
          3   -1    0    0  501    0  0.00000000000E+00 -0.00000000000E+00 -0.29929999912E+02  0.29930144399E+02  0.93000000000E-01 0. -1.
         23    2    1    2    0    0  0.00000000000E+00  0.00000000000E+00  0.36902130728E+02  0.96762339746E+02  0.89449332814E+02 0.  0.
        -13    1    3    3    0    0 -0.27214294954E+02 -0.21721661392E+02 -0.11912112158E+02  0.36801603389E+02  0.10570000000E+00 0. -1.
         13    1    3    3    0    0  0.27214294954E+02  0.21721661392E+02  0.48814242886E+02  0.59960736357E+02  0.10570000000E+00 0.  1.
<mgrwt>
<rscale>  0 0.89449333E+02</rscale>
<asrwt>0</asrwt>
<pdfrwt beam="2">  1        3 0.46046315E-02 0.89449333E+02</pdfrwt>
<pdfrwt beam="1">  1       -3 0.10281882E-01 0.89449333E+02</pdfrwt>
<totfact> 0.36775788E+04</totfact>
</mgrwt>
</event>
<event>
 5    1  0.1401471E+000  0.9250319E+02  0.7818608E-02  0.1296901E+00
         -3   -1    0    0    0  501 -0.00000000000E+00  0.00000000000E+00  0.61496727960E+02  0.61496798281E+02  0.93000000000E-01 0.  1.
          3   -1    0    0  501    0  0.00000000000E+00 -0.00000000000E+00 -0.34785603243E+02  0.34785727561E+02  0.93000000000E-01 0. -1.
         23    2    1    2    0    0  0.00000000000E+00  0.00000000000E+00  0.26711124717E+02  0.96282525843E+02  0.92503192372E+02 0.  0.
        -13    1    3    3    0    0 -0.27479265527E+02 -0.15375497793E+02  0.48617139286E+02  0.57923685752E+02  0.10570000000E+00 0.  1.
         13    1    3    3    0    0  0.27479265527E+02  0.15375497793E+02 -0.21906014569E+02  0.38358840090E+02  0.10570000000E+00 0. -1.
<mgrwt>
<rscale>  0 0.92503192E+02</rscale>
<asrwt>0</asrwt>
<pdfrwt beam="2">  1        3 0.53516463E-02 0.92503192E+02</pdfrwt>
<pdfrwt beam="1">  1       -3 0.94610500E-02 0.92503192E+02</pdfrwt>
<totfact> 0.33599302E+04</totfact>
</mgrwt>
</event>
<event>
 5    1  0.1401471E+000  0.9277848E+02  0.7818608E-02  0.1296259E+00
          3   -1    0    0  501    0  0.00000000000E+00  0.00000000000E+00  0.92291325468E+01  0.92296011055E+01  0.93000000000E-01 0. -1.
         -3   -1    0    0    0  501 -0.00000000000E+00 -0.00000000000E+00 -0.23316411434E+03  0.23316413289E+03  0.93000000000E-01 0.  1.
         23    2    1    2    0    0  0.00000000000E+00  0.00000000000E+00 -0.22393498179E+03  0.24239373399E+03  0.92778479229E+02 0.  0.
        -13    1    3    3    0    0  0.34383444411E+02 -0.29594365362E+02 -0.86650440444E+02  0.97807758958E+02  0.10570000000E+00 0.  1.
         13    1    3    3    0    0 -0.34383444411E+02  0.29594365362E+02 -0.13728454135E+03  0.14458597503E+03  0.10570000000E+00 0. -1.
<mgrwt>
<rscale>  0 0.92778479E+02</rscale>
<asrwt>0</asrwt>
<pdfrwt beam="1">  1        3 0.14199042E-02 0.92778479E+02</pdfrwt>
<pdfrwt beam="2">  1       -3 0.35871435E-01 0.92778479E+02</pdfrwt>
<totfact> 0.25228108E+04</totfact>
</mgrwt>
</event>
<event>
 5    1  0.1401471E+000  0.9082429E+02  0.7818608E-02  0.1300868E+00
         -3   -1    0    0    0  501 -0.00000000000E+00  0.00000000000E+00  0.31164243349E+02  0.31164382114E+02  0.93000000000E-01 0.  1.
          3   -1    0    0  501    0  0.00000000000E+00 -0.00000000000E+00 -0.66173690109E+02  0.66173755460E+02  0.93000000000E-01 0. -1.
         23    2    1    2    0    0  0.00000000000E+00  0.00000000000E+00 -0.35009446760E+02  0.97338137574E+02  0.90824290054E+02 0.  0.
        -13    1    3    3    0    0 -0.45131496704E+02 -0.43188040200E+01 -0.14720793591E+02  0.47667777369E+02  0.10570000000E+00 0.  1.
         13    1    3    3    0    0  0.45131496704E+02  0.43188040200E+01 -0.20288653169E+02  0.49670360204E+02  0.10570000000E+00 0. -1.
<mgrwt>
<rscale>  0 0.90824290E+02</rscale>
<asrwt>0</asrwt>
<pdfrwt beam="2">  1        3 0.10180583E-01 0.90824290E+02</pdfrwt>
<pdfrwt beam="1">  1       -3 0.47945147E-02 0.90824290E+02</pdfrwt>
<totfact> 0.35239100E+04</totfact>
</mgrwt>
</event>
<event>
 5    1  0.1401471E+000  0.9475400E+02  0.7818608E-02  0.1291731E+00
         -3   -1    0    0    0  501 -0.00000000000E+00  0.00000000000E+00  0.12622467865E+02  0.12622810463E+02  0.93000000000E-01 0.  1.
          3   -1    0    0  501    0  0.00000000000E+00 -0.00000000000E+00 -0.17782141554E+03  0.17782143986E+03  0.93000000000E-01 0. -1.
         23    2    1    2    0    0  0.00000000000E+00  0.00000000000E+00 -0.16519894768E+03  0.19044425033E+03  0.94753998165E+02 0.  0.
        -13    1    3    3    0    0 -0.12778079916E+02  0.31015633929E+02 -0.15356416347E+02  0.36892811900E+02  0.10570000000E+00 0.  1.
         13    1    3    3    0    0  0.12778079916E+02 -0.31015633929E+02 -0.14984253133E+03  0.15355143843E+03  0.10570000000E+00 0. -1.
<mgrwt>
<rscale>  0 0.94753998E+02</rscale>
<asrwt>0</asrwt>
<pdfrwt beam="2">  1        3 0.27357167E-01 0.94753998E+02</pdfrwt>
<pdfrwt beam="1">  1       -3 0.19419465E-02 0.94753998E+02</pdfrwt>
<totfact> 0.26129022E+04</totfact>
</mgrwt>
</event>
<event>
 5    1  0.1401471E+000  0.1041623E+03  0.7818608E-02  0.1271779E+00
          3   -1    0    0  501    0  0.00000000000E+00  0.00000000000E+00  0.14688629747E+02  0.14688924156E+02  0.93000000000E-01 0. -1.
         -3   -1    0    0    0  501 -0.00000000000E+00 -0.00000000000E+00 -0.18466076195E+03  0.18466078537E+03  0.93000000000E-01 0.  1.
         23    2    1    2    0    0  0.00000000000E+00  0.00000000000E+00 -0.16997213221E+03  0.19934970953E+03  0.10416228186E+03 0.  0.
        -13    1    3    3    0    0  0.43774370299E+02 -0.51968059369E+01 -0.13806641042E+03  0.14493290567E+03  0.10570000000E+00 0.  1.
         13    1    3    3    0    0 -0.43774370299E+02  0.51968059369E+01 -0.31905721787E+02  0.54416803859E+02  0.10570000000E+00 0. -1.
<mgrwt>
<rscale>  0 0.10416228E+03</rscale>
<asrwt>0</asrwt>
<pdfrwt beam="1">  1        3 0.22598138E-02 0.10416228E+03</pdfrwt>
<pdfrwt beam="2">  1       -3 0.28409371E-01 0.10416228E+03</pdfrwt>
<totfact> 0.19858315E+04</totfact>
</mgrwt>
</event>
<event>
 5    1  0.1401471E+000  0.9159312E+02  0.7818608E-02  0.1299039E+00
         -3   -1    0    0    0  501 -0.00000000000E+00  0.00000000000E+00  0.36232932099E+02  0.36233051452E+02  0.93000000000E-01 0.  1.
          3   -1    0    0  501    0  0.00000000000E+00 -0.00000000000E+00 -0.57884241445E+02  0.57884316154E+02  0.93000000000E-01 0. -1.
         23    2    1    2    0    0  0.00000000000E+00  0.00000000000E+00 -0.21651309345E+02  0.94117367606E+02  0.91593120313E+02 0.  0.
        -13    1    3    3    0    0 -0.12455481690E+02  0.57275380970E+01 -0.55726236472E+02  0.57387876077E+02  0.10570000000E+00 0. -1.
         13    1    3    3    0    0  0.12455481690E+02 -0.57275380970E+01  0.34074927127E+02  0.36729491529E+02  0.10570000000E+00 0.  1.
<mgrwt>
<rscale>  0 0.91593120E+02</rscale>
<asrwt>0</asrwt>
<pdfrwt beam="2">  1        3 0.89052829E-02 0.91593120E+02</pdfrwt>
<pdfrwt beam="1">  1       -3 0.55743122E-02 0.91593120E+02</pdfrwt>
<totfact> 0.34680164E+04</totfact>
</mgrwt>
</event>
<event>
 5    1  0.1401471E+000  0.8554076E+02  0.7818608E-02  0.1314024E+00
          3   -1    0    0  501    0  0.00000000000E+00  0.00000000000E+00  0.12046074077E+03  0.12046077667E+03  0.93000000000E-01 0. -1.
         -3   -1    0    0    0  501 -0.00000000000E+00 -0.00000000000E+00 -0.15185725327E+02  0.15186010099E+02  0.93000000000E-01 0.  1.
         23    2    1    2    0    0  0.00000000000E+00  0.00000000000E+00  0.10527501545E+03  0.13564678677E+03  0.85540761537E+02 0.  0.
        -13    1    3    3    0    0  0.35064008026E+02  0.49360223090E+00  0.91466390568E+02  0.97958358899E+02  0.10570000000E+00 0. -1.
         13    1    3    3    0    0 -0.35064008026E+02 -0.49360223090E+00  0.13808624878E+02  0.37688427873E+02  0.10570000000E+00 0.  1.
<mgrwt>
<rscale>  0 0.85540762E+02</rscale>
<asrwt>0</asrwt>
<pdfrwt beam="1">  1        3 0.18532447E-01 0.85540762E+02</pdfrwt>
<pdfrwt beam="2">  1       -3 0.23362901E-02 0.85540762E+02</pdfrwt>
<totfact> 0.38257920E+04</totfact>
</mgrwt>
</event>
<event>
 5    1  0.1401471E+000  0.8969479E+02  0.7818608E-02  0.1303592E+00
          3   -1    0    0  501    0  0.00000000000E+00  0.00000000000E+00  0.52091028060E+02  0.52091111078E+02  0.93000000000E-01 0. -1.
         -3   -1    0    0    0  501 -0.00000000000E+00 -0.00000000000E+00 -0.38610872828E+02  0.38610984830E+02  0.93000000000E-01 0.  1.
         23    2    1    2    0    0  0.00000000000E+00  0.00000000000E+00  0.13480155232E+02  0.90702095908E+02  0.89694791471E+02 0.  0.
        -13    1    3    3    0    0 -0.11640180444E+02 -0.35487506781E+02  0.31846725876E+02  0.49082400714E+02  0.10570000000E+00 0. -1.
         13    1    3    3    0    0  0.11640180444E+02  0.35487506781E+02 -0.18366570644E+02  0.41619695194E+02  0.10570000000E+00 0.  1.
<mgrwt>
<rscale>  0 0.89694791E+02</rscale>
<asrwt>0</asrwt>
<pdfrwt beam="1">  1        3 0.80140193E-02 0.89694791E+02</pdfrwt>
<pdfrwt beam="2">  1       -3 0.59401493E-02 0.89694791E+02</pdfrwt>
<totfact> 0.36986900E+04</totfact>
</mgrwt>
</event>
<event>
 5    1  0.1401471E+000  0.9074390E+02  0.7818608E-02  0.1301060E+00
         -3   -1    0    0    0  501 -0.00000000000E+00  0.00000000000E+00  0.11076364863E+02  0.11076755282E+02  0.93000000000E-01 0.  1.
          3   -1    0    0  501    0  0.00000000000E+00 -0.00000000000E+00 -0.18585276505E+03  0.18585278832E+03  0.93000000000E-01 0. -1.
         23    2    1    2    0    0  0.00000000000E+00  0.00000000000E+00 -0.17477640019E+03  0.19692954360E+03  0.90743898310E+02 0.  0.
        -13    1    3    3    0    0  0.16228788054E+02  0.42186213389E+02 -0.78829798702E+02  0.90869128408E+02  0.10570000000E+00 0.  1.
         13    1    3    3    0    0 -0.16228788054E+02 -0.42186213389E+02 -0.95946601487E+02  0.10606041519E+03  0.10570000000E+00 0. -1.
<mgrwt>
<rscale>  0 0.90743898E+02</rscale>
<asrwt>0</asrwt>
<pdfrwt beam="2">  1        3 0.28592763E-01 0.90743898E+02</pdfrwt>
<pdfrwt beam="1">  1       -3 0.17040881E-02 0.90743898E+02</pdfrwt>
<totfact> 0.29028193E+04</totfact>
</mgrwt>
</event>
<event>
 5    1  0.1401471E+000  0.9452036E+02  0.7818608E-02  0.1292260E+00
          3   -1    0    0  501    0  0.00000000000E+00  0.00000000000E+00  0.22401144586E+02  0.22401337633E+02  0.93000000000E-01 0. -1.
         -3   -1    0    0    0  501 -0.00000000000E+00 -0.00000000000E+00 -0.99705176278E+02  0.99705219651E+02  0.93000000000E-01 0.  1.
         23    2    1    2    0    0  0.00000000000E+00  0.00000000000E+00 -0.77304031692E+02  0.12210655728E+03  0.94520357680E+02 0.  0.
        -13    1    3    3    0    0  0.39536284227E+02 -0.65522637892E+01 -0.71011964935E+02  0.81539930511E+02  0.10570000000E+00 0.  1.
         13    1    3    3    0    0 -0.39536284227E+02  0.65522637892E+01 -0.62920667574E+01  0.40566626774E+02  0.10570000000E+00 0. -1.
<mgrwt>
<rscale>  0 0.94520358E+02</rscale>
<asrwt>0</asrwt>
<pdfrwt beam="1">  1        3 0.34463482E-02 0.94520358E+02</pdfrwt>
<pdfrwt beam="2">  1       -3 0.15339276E-01 0.94520358E+02</pdfrwt>
<totfact> 0.30009821E+04</totfact>
</mgrwt>
</event>
<event>
 5    1  0.1401471E+000  0.9167764E+02  0.7818608E-02  0.1298839E+00
          3   -1    0    0  501    0  0.00000000000E+00  0.00000000000E+00  0.14168685721E+02  0.14168990933E+02  0.93000000000E-01 0. -1.
         -3   -1    0    0    0  501 -0.00000000000E+00 -0.00000000000E+00 -0.14829674962E+03  0.14829677878E+03  0.93000000000E-01 0.  1.
         23    2    1    2    0    0  0.00000000000E+00  0.00000000000E+00 -0.13412806389E+03  0.16246576971E+03  0.91677635240E+02 0.  0.
        -13    1    3    3    0    0 -0.25935203183E+02  0.11029794444E+02 -0.13112873262E+03  0.13412325235E+03  0.10570000000E+00 0.  1.
         13    1    3    3    0    0  0.25935203183E+02 -0.11029794444E+02 -0.29993312710E+01  0.28342517358E+02  0.10570000000E+00 0. -1.
<mgrwt>
<rscale>  0 0.91677635E+02</rscale>
<asrwt>0</asrwt>
<pdfrwt beam="1">  1        3 0.21798236E-02 0.91677635E+02</pdfrwt>
<pdfrwt beam="2">  1       -3 0.22814909E-01 0.91677635E+02</pdfrwt>
<totfact> 0.30111617E+04</totfact>
</mgrwt>
</event>
<event>
 5    1  0.1401471E+000  0.9147103E+02  0.7818608E-02  0.1299328E+00
         -3   -1    0    0    0  501 -0.00000000000E+00  0.00000000000E+00  0.16504264173E+03  0.16504266793E+03  0.93000000000E-01 0.  1.
          3   -1    0    0  501    0  0.00000000000E+00 -0.00000000000E+00 -0.12673723724E+02  0.12674064938E+02  0.93000000000E-01 0. -1.
         23    2    1    2    0    0  0.00000000000E+00  0.00000000000E+00  0.15236891800E+03  0.17771673287E+03  0.91471033489E+02 0.  0.
        -13    1    3    3    0    0 -0.33609632880E+02  0.29360484310E+02  0.95621056666E+02  0.10552271372E+03  0.10570000000E+00 0.  1.
         13    1    3    3    0    0  0.33609632880E+02 -0.29360484310E+02  0.56747861338E+02  0.72194019144E+02  0.10570000000E+00 0. -1.
<mgrwt>
<rscale>  0 0.91471033E+02</rscale>
<asrwt>0</asrwt>
<pdfrwt beam="2">  1        3 0.19498320E-02 0.91471033E+02</pdfrwt>
<pdfrwt beam="1">  1       -3 0.25391203E-01 0.91471033E+02</pdfrwt>
<totfact> 0.29434576E+04</totfact>
</mgrwt>
</event>
<event>
 5    1  0.1401471E+000  0.9050974E+02  0.7818608E-02  0.1301622E+00
         -3   -1    0    0    0  501 -0.00000000000E+00  0.00000000000E+00  0.55233006493E+02  0.55233084788E+02  0.93000000000E-01 0.  1.
          3   -1    0    0  501    0  0.00000000000E+00 -0.00000000000E+00 -0.37079170235E+02  0.37079286864E+02  0.93000000000E-01 0. -1.
         23    2    1    2    0    0  0.00000000000E+00  0.00000000000E+00  0.18153836257E+02  0.92312371652E+02  0.90509735328E+02 0.  0.
        -13    1    3    3    0    0 -0.22554875702E+02  0.82931333617E+01  0.48187668931E+02  0.53847572725E+02  0.10570000000E+00 0.  1.
         13    1    3    3    0    0  0.22554875702E+02 -0.82931333617E+01 -0.30033832674E+02  0.38464798927E+02  0.10570000000E+00 0. -1.
<mgrwt>
<rscale>  0 0.90509735E+02</rscale>
<asrwt>0</asrwt>
<pdfrwt beam="2">  1        3 0.57045027E-02 0.90509735E+02</pdfrwt>
<pdfrwt beam="1">  1       -3 0.84974006E-02 0.90509735E+02</pdfrwt>
<totfact> 0.35963522E+04</totfact>
</mgrwt>
</event>
<event>
 5    1  0.1401471E+000  0.8394734E+02  0.7818608E-02  0.1318209E+00
          3   -1    0    0  501    0  0.00000000000E+00  0.00000000000E+00  0.25481645898E+03  0.25481647595E+03  0.93000000000E-01 0. -1.
         -3   -1    0    0    0  501 -0.00000000000E+00 -0.00000000000E+00 -0.69136223101E+01  0.69142477860E+01  0.93000000000E-01 0.  1.
         23    2    1    2    0    0  0.00000000000E+00  0.00000000000E+00  0.24790283667E+03  0.26173072374E+03  0.83947336580E+02 0.  0.
        -13    1    3    3    0    0 -0.26317098489E+01 -0.38592084038E+02  0.17475359792E+03  0.17898353557E+03  0.10570000000E+00 0. -1.
         13    1    3    3    0    0  0.26317098489E+01  0.38592084038E+02  0.73149238747E+02  0.82747188163E+02  0.10570000000E+00 0.  1.
<mgrwt>
<rscale>  0 0.83947337E+02</rscale>
<asrwt>0</asrwt>
<pdfrwt beam="1">  1        3 0.39202579E-01 0.83947337E+02</pdfrwt>
<pdfrwt beam="2">  1       -3 0.10636837E-02 0.83947337E+02</pdfrwt>
<totfact> 0.31914124E+04</totfact>
</mgrwt>
</event>
<event>
 5    1  0.1401471E+000  0.8983459E+02  0.7818608E-02  0.1303253E+00
         -3   -1    0    0    0  501 -0.00000000000E+00  0.00000000000E+00  0.15409907191E+02  0.15410187820E+02  0.93000000000E-01 0.  1.
          3   -1    0    0  501    0  0.00000000000E+00 -0.00000000000E+00 -0.13092489102E+03  0.13092492405E+03  0.93000000000E-01 0. -1.
         23    2    1    2    0    0  0.00000000000E+00  0.00000000000E+00 -0.11551498383E+03  0.14633511187E+03  0.89834589537E+02 0.  0.
        -13    1    3    3    0    0  0.30151888238E+02 -0.20831815598E+02 -0.15453607059E+02  0.39773433960E+02  0.10570000000E+00 0.  1.
         13    1    3    3    0    0 -0.30151888238E+02  0.20831815598E+02 -0.10006137677E+03  0.10656167791E+03  0.10570000000E+00 0. -1.
<mgrwt>
<rscale>  0 0.89834590E+02</rscale>
<asrwt>0</asrwt>
<pdfrwt beam="2">  1        3 0.20142314E-01 0.89834590E+02</pdfrwt>
<pdfrwt beam="1">  1       -3 0.23707792E-02 0.89834590E+02</pdfrwt>
<totfact> 0.32822398E+04</totfact>
</mgrwt>
</event>
<event>
 5    1  0.1401471E+000  0.9258612E+02  0.7818608E-02  0.1296707E+00
         -3   -1    0    0    0  501 -0.00000000000E+00  0.00000000000E+00  0.12526183494E+02  0.12526528726E+02  0.93000000000E-01 0.  1.
          3   -1    0    0  501    0  0.00000000000E+00 -0.00000000000E+00 -0.17108272134E+03  0.17108274662E+03  0.93000000000E-01 0. -1.
         23    2    1    2    0    0  0.00000000000E+00  0.00000000000E+00 -0.15855653785E+03  0.18360927534E+03  0.92586123681E+02 0.  0.
        -13    1    3    3    0    0  0.41332350400E+02 -0.17680293894E+02 -0.57366788420E+02  0.72882889404E+02  0.10570000000E+00 0.  1.
         13    1    3    3    0    0 -0.41332350400E+02  0.17680293894E+02 -0.10118974943E+03  0.11072638594E+03  0.10570000000E+00 0. -1.
<mgrwt>
<rscale>  0 0.92586124E+02</rscale>
<asrwt>0</asrwt>
<pdfrwt beam="2">  1        3 0.26320446E-01 0.92586124E+02</pdfrwt>
<pdfrwt beam="1">  1       -3 0.19271338E-02 0.92586124E+02</pdfrwt>
<totfact> 0.28173882E+04</totfact>
</mgrwt>
</event>
<event>
 5    1  0.1401471E+000  0.1225515E+03  0.7818608E-02  0.1238946E+00
         -3   -1    0    0    0  501 -0.00000000000E+00  0.00000000000E+00  0.57068135736E+02  0.57068211514E+02  0.93000000000E-01 0.  1.
          3   -1    0    0  501    0  0.00000000000E+00 -0.00000000000E+00 -0.65793489178E+02  0.65793554906E+02  0.93000000000E-01 0. -1.
         23    2    1    2    0    0  0.00000000000E+00  0.00000000000E+00 -0.87253534421E+01  0.12286176642E+03  0.12255154775E+03 0.  0.
        -13    1    3    3    0    0 -0.48373509294E+02  0.34968082050E+02  0.95268558963E+01  0.60444481299E+02  0.10570000000E+00 0.  1.
         13    1    3    3    0    0  0.48373509294E+02 -0.34968082050E+02 -0.18252209338E+02  0.62417285121E+02  0.10570000000E+00 0. -1.
<mgrwt>
<rscale>  0 0.12255155E+03</rscale>
<asrwt>0</asrwt>
<pdfrwt beam="2">  1        3 0.10122086E-01 0.12255155E+03</pdfrwt>
<pdfrwt beam="1">  1       -3 0.87797241E-02 0.12255155E+03</pdfrwt>
<totfact> 0.14584998E+04</totfact>
</mgrwt>
</event>
<event>
 5    1  0.1401471E+000  0.9246349E+02  0.7818608E-02  0.1296993E+00
         -3   -1    0    0    0  501 -0.00000000000E+00  0.00000000000E+00  0.11709987227E+03  0.11709990920E+03  0.93000000000E-01 0.  1.
          3   -1    0    0  501    0  0.00000000000E+00 -0.00000000000E+00 -0.18252418194E+02  0.18252655120E+02  0.93000000000E-01 0. -1.
         23    2    1    2    0    0  0.00000000000E+00  0.00000000000E+00  0.98847454080E+02  0.13535256432E+03  0.92463492746E+02 0.  0.
        -13    1    3    3    0    0  0.45205815654E+02  0.48777011696E+01  0.61671641891E+02  0.76620886993E+02  0.10570000000E+00 0.  1.
         13    1    3    3    0    0 -0.45205815654E+02 -0.48777011696E+01  0.37175812188E+02  0.58731677330E+02  0.10570000000E+00 0. -1.
<mgrwt>
<rscale>  0 0.92463493E+02</rscale>
<asrwt>0</asrwt>
<pdfrwt beam="2">  1        3 0.28080854E-02 0.92463493E+02</pdfrwt>
<pdfrwt beam="1">  1       -3 0.18015386E-01 0.92463493E+02</pdfrwt>
<totfact> 0.31024355E+04</totfact>
</mgrwt>
</event>
<event>
 5    1  0.1401471E+000  0.9152258E+02  0.7818608E-02  0.1299206E+00
         -3   -1    0    0    0  501 -0.00000000000E+00  0.00000000000E+00  0.29095849246E+02  0.29095997876E+02  0.93000000000E-01 0.  1.
          3   -1    0    0  501    0  0.00000000000E+00 -0.00000000000E+00 -0.71971960709E+02  0.71972020795E+02  0.93000000000E-01 0. -1.
         23    2    1    2    0    0  0.00000000000E+00  0.00000000000E+00 -0.42876111462E+02  0.10106801867E+03  0.91522584447E+02 0.  0.
        -13    1    3    3    0    0 -0.43807079753E+02  0.23310675505E+01 -0.35818964812E+02  0.56634826080E+02  0.10570000000E+00 0.  1.
         13    1    3    3    0    0  0.43807079753E+02 -0.23310675505E+01 -0.70571466501E+01  0.44433192590E+02  0.10570000000E+00 0. -1.
<mgrwt>
<rscale>  0 0.91522584E+02</rscale>
<asrwt>0</asrwt>
<pdfrwt beam="2">  1        3 0.11072625E-01 0.91522584E+02</pdfrwt>
<pdfrwt beam="1">  1       -3 0.44763006E-02 0.91522584E+02</pdfrwt>
<totfact> 0.34236879E+04</totfact>
</mgrwt>
</event>
<event>
 5    1  0.1401471E+000  0.1047995E+03  0.7818608E-02  0.1270515E+00
          3   -1    0    0  501    0  0.00000000000E+00  0.00000000000E+00  0.10823946947E+03  0.10823950942E+03  0.93000000000E-01 0. -1.
         -3   -1    0    0    0  501 -0.00000000000E+00 -0.00000000000E+00 -0.25367091904E+02  0.25367262380E+02  0.93000000000E-01 0.  1.
         23    2    1    2    0    0  0.00000000000E+00  0.00000000000E+00  0.82872377568E+02  0.13360677180E+03  0.10479951578E+03 0.  0.
        -13    1    3    3    0    0  0.24346593248E+02  0.36659159255E+02  0.51732480189E+01  0.44310543075E+02  0.10570000000E+00 0.  1.
         13    1    3    3    0    0 -0.24346593248E+02 -0.36659159255E+02  0.77699129549E+02  0.89296228729E+02  0.10570000000E+00 0. -1.
<mgrwt>
<rscale>  0 0.10479952E+03</rscale>
<asrwt>0</asrwt>
<pdfrwt beam="1">  1        3 0.16652242E-01 0.10479952E+03</pdfrwt>
<pdfrwt beam="2">  1       -3 0.39026457E-02 0.10479952E+03</pdfrwt>
<totfact> 0.22091216E+04</totfact>
</mgrwt>
</event>
<event>
 5    1  0.1401471E+000  0.9043271E+02  0.7818608E-02  0.1301807E+00
          3   -1    0    0  501    0  0.00000000000E+00  0.00000000000E+00  0.28940607087E+02  0.28940756514E+02  0.93000000000E-01 0. -1.
         -3   -1    0    0    0  501 -0.00000000000E+00 -0.00000000000E+00 -0.70644967942E+02  0.70645029156E+02  0.93000000000E-01 0.  1.
         23    2    1    2    0    0  0.00000000000E+00  0.00000000000E+00 -0.41704360854E+02  0.99585785670E+02  0.90432709752E+02 0.  0.
        -13    1    3    3    0    0  0.15544318937E+02  0.13484315764E+02  0.23485266171E+02  0.31225334625E+02  0.10570000000E+00 0. -1.
         13    1    3    3    0    0 -0.15544318937E+02 -0.13484315764E+02 -0.65189627025E+02  0.68360451044E+02  0.10570000000E+00 0.  1.
<mgrwt>
<rscale>  0 0.90432710E+02</rscale>
<asrwt>0</asrwt>
<pdfrwt beam="1">  1        3 0.44524173E-02 0.90432710E+02</pdfrwt>
<pdfrwt beam="2">  1       -3 0.10868473E-01 0.90432710E+02</pdfrwt>
<totfact> 0.35484699E+04</totfact>
</mgrwt>
</event>
<event>
 5    1  0.1401471E+000  0.7814889E+02  0.7818608E-02  0.1334388E+00
         -3   -1    0    0    0  501 -0.00000000000E+00  0.00000000000E+00  0.10780235342E+03  0.10780239354E+03  0.93000000000E-01 0.  1.
          3   -1    0    0  501    0  0.00000000000E+00 -0.00000000000E+00 -0.14162874165E+02  0.14163179502E+02  0.93000000000E-01 0. -1.
         23    2    1    2    0    0  0.00000000000E+00  0.00000000000E+00  0.93639479258E+02  0.12196557304E+03  0.78148889508E+02 0.  0.
        -13    1    3    3    0    0  0.16721551003E+02 -0.31806607985E+02  0.70771531481E+02  0.79371855340E+02  0.10570000000E+00 0. -1.
         13    1    3    3    0    0 -0.16721551003E+02  0.31806607985E+02  0.22867947777E+02  0.42593717700E+02  0.10570000000E+00 0.  1.
<mgrwt>
<rscale>  0 0.78148890E+02</rscale>
<asrwt>0</asrwt>
<pdfrwt beam="2">  1        3 0.21789304E-02 0.78148890E+02</pdfrwt>
<pdfrwt beam="1">  1       -3 0.16585003E-01 0.78148890E+02</pdfrwt>
<totfact> 0.50117912E+04</totfact>
</mgrwt>
</event>
<event>
 5    1  0.1401471E+000  0.9288902E+02  0.7818608E-02  0.1296003E+00
         -3   -1    0    0    0  501 -0.00000000000E+00  0.00000000000E+00  0.44159542676E+02  0.44159640605E+02  0.93000000000E-01 0.  1.
          3   -1    0    0  501    0  0.00000000000E+00 -0.00000000000E+00 -0.48847509959E+02  0.48847598489E+02  0.93000000000E-01 0. -1.
         23    2    1    2    0    0  0.00000000000E+00  0.00000000000E+00 -0.46879672827E+01  0.93007239094E+02  0.92889017040E+02 0.  0.
        -13    1    3    3    0    0  0.27003428081E+01  0.32777578577E+02 -0.35179313041E+02  0.48158662224E+02  0.10570000000E+00 0. -1.
         13    1    3    3    0    0 -0.27003428081E+01 -0.32777578577E+02  0.30491345758E+02  0.44848576870E+02  0.10570000000E+00 0.  1.
<mgrwt>
<rscale>  0 0.92889017E+02</rscale>
<asrwt>0</asrwt>
<pdfrwt beam="2">  1        3 0.75150159E-02 0.92889017E+02</pdfrwt>
<pdfrwt beam="1">  1       -3 0.67937901E-02 0.92889017E+02</pdfrwt>
<totfact> 0.33454103E+04</totfact>
</mgrwt>
</event>
<event>
 5    1  0.1401471E+000  0.9120262E+02  0.7818608E-02  0.1299965E+00
          3   -1    0    0  501    0  0.00000000000E+00  0.00000000000E+00  0.20753887765E+02  0.20754096134E+02  0.93000000000E-01 0. -1.
         -3   -1    0    0    0  501 -0.00000000000E+00 -0.00000000000E+00 -0.10019637427E+03  0.10019641743E+03  0.93000000000E-01 0.  1.
         23    2    1    2    0    0  0.00000000000E+00  0.00000000000E+00 -0.79442486502E+02  0.12095051356E+03  0.91202620955E+02 0.  0.
        -13    1    3    3    0    0  0.35079861275E+02  0.27046907880E+02 -0.54086615133E+02  0.69910693044E+02  0.10570000000E+00 0.  1.
         13    1    3    3    0    0 -0.35079861275E+02 -0.27046907880E+02 -0.25355871370E+02  0.51039820517E+02  0.10570000000E+00 0. -1.
<mgrwt>
<rscale>  0 0.91202621E+02</rscale>
<asrwt>0</asrwt>
<pdfrwt beam="1">  1        3 0.31929252E-02 0.91202621E+02</pdfrwt>
<pdfrwt beam="2">  1       -3 0.15414846E-01 0.91202621E+02</pdfrwt>
<totfact> 0.33157606E+04</totfact>
</mgrwt>
</event>
<event>
 5    1  0.1401471E+000  0.9478825E+02  0.7818608E-02  0.1291654E+00
         -3   -1    0    0    0  501 -0.00000000000E+00  0.00000000000E+00  0.75797869520E+02  0.75797926573E+02  0.93000000000E-01 0.  1.
          3   -1    0    0  501    0  0.00000000000E+00 -0.00000000000E+00 -0.29633978387E+02  0.29634124317E+02  0.93000000000E-01 0. -1.
         23    2    1    2    0    0  0.00000000000E+00  0.00000000000E+00  0.46163891133E+02  0.10543205089E+03  0.94788250909E+02 0.  0.
        -13    1    3    3    0    0  0.30949376031E+02 -0.29497344133E+02  0.45829159463E+02  0.62675993946E+02  0.10570000000E+00 0.  1.
         13    1    3    3    0    0 -0.30949376031E+02  0.29497344133E+02  0.33473167030E+00  0.42756056944E+02  0.10570000000E+00 0. -1.
<mgrwt>
<rscale>  0 0.94788251E+02</rscale>
<asrwt>0</asrwt>
<pdfrwt beam="2">  1        3 0.45590893E-02 0.94788251E+02</pdfrwt>
<pdfrwt beam="1">  1       -3 0.11661226E-01 0.94788251E+02</pdfrwt>
<totfact> 0.30825111E+04</totfact>
</mgrwt>
</event>
<event>
 5    1  0.1401471E+000  0.7711590E+02  0.7818608E-02  0.1337441E+00
         -3   -1    0    0    0  501 -0.00000000000E+00  0.00000000000E+00  0.58049852187E+02  0.58049926684E+02  0.93000000000E-01 0.  1.
          3   -1    0    0  501    0  0.00000000000E+00 -0.00000000000E+00 -0.25610834783E+02  0.25611003637E+02  0.93000000000E-01 0. -1.
         23    2    1    2    0    0  0.00000000000E+00  0.00000000000E+00  0.32439017405E+02  0.83660930320E+02  0.77115895974E+02 0.  0.
        -13    1    3    3    0    0  0.25220305637E+01 -0.36482486201E+02  0.29604404818E+01  0.36689342020E+02  0.10570000000E+00 0. -1.
         13    1    3    3    0    0 -0.25220305637E+01  0.36482486201E+02  0.29478576923E+02  0.46971588300E+02  0.10570000000E+00 0.  1.
<mgrwt>
<rscale>  0 0.77115896E+02</rscale>
<asrwt>0</asrwt>
<pdfrwt beam="2">  1        3 0.39401472E-02 0.77115896E+02</pdfrwt>
<pdfrwt beam="1">  1       -3 0.89307652E-02 0.77115896E+02</pdfrwt>
<totfact> 0.56449646E+04</totfact>
</mgrwt>
</event>
<event>
 5    1  0.1401471E+000  0.9653821E+02  0.7818608E-02  0.1287749E+00
          3   -1    0    0  501    0  0.00000000000E+00  0.00000000000E+00  0.18791206183E+02  0.18791436315E+02  0.93000000000E-01 0. -1.
         -3   -1    0    0    0  501 -0.00000000000E+00 -0.00000000000E+00 -0.12398819554E+03  0.12398823042E+03  0.93000000000E-01 0.  1.
         23    2    1    2    0    0  0.00000000000E+00  0.00000000000E+00 -0.10519698936E+03  0.14277966674E+03  0.96538213485E+02 0.  0.
        -13    1    3    3    0    0 -0.17338605072E+02 -0.32660418057E+02 -0.98484708084E+02  0.10519780907E+03  0.10570000000E+00 0.  1.
         13    1    3    3    0    0  0.17338605072E+02  0.32660418057E+02 -0.67122812767E+01  0.37581857670E+02  0.10570000000E+00 0. -1.
<mgrwt>
<rscale>  0 0.96538213E+02</rscale>
<asrwt>0</asrwt>
<pdfrwt beam="1">  1        3 0.28909753E-02 0.96538213E+02</pdfrwt>
<pdfrwt beam="2">  1       -3 0.19075127E-01 0.96538213E+02</pdfrwt>
<totfact> 0.27181354E+04</totfact>
</mgrwt>
</event>
<event>
 5    1  0.1401471E+000  0.9198240E+02  0.7818608E-02  0.1298121E+00
         -3   -1    0    0    0  501 -0.00000000000E+00  0.00000000000E+00  0.87998467869E+02  0.87998517012E+02  0.93000000000E-01 0.  1.
          3   -1    0    0  501    0  0.00000000000E+00 -0.00000000000E+00 -0.24036527403E+02  0.24036707316E+02  0.93000000000E-01 0. -1.
         23    2    1    2    0    0  0.00000000000E+00  0.00000000000E+00  0.63961940466E+02  0.11203522433E+03  0.91982398654E+02 0.  0.
        -13    1    3    3    0    0 -0.29117792607E+02 -0.38572340736E+01 -0.11124357113E+02  0.31408384147E+02  0.10570000000E+00 0. -1.
         13    1    3    3    0    0  0.29117792607E+02  0.38572340736E+01  0.75086297579E+02  0.80626840182E+02  0.10570000000E+00 0.  1.
<mgrwt>
<rscale>  0 0.91982399E+02</rscale>
<asrwt>0</asrwt>
<pdfrwt beam="2">  1        3 0.36979448E-02 0.91982399E+02</pdfrwt>
<pdfrwt beam="1">  1       -3 0.13538244E-01 0.91982399E+02</pdfrwt>
<totfact> 0.33001639E+04</totfact>
</mgrwt>
</event>
<event>
 5    1  0.1401471E+000  0.9538082E+02  0.7818608E-02  0.1290321E+00
         -3   -1    0    0    0  501 -0.00000000000E+00  0.00000000000E+00  0.87123916695E+01  0.87128880173E+01  0.93000000000E-01 0.  1.
          3   -1    0    0  501    0  0.00000000000E+00 -0.00000000000E+00 -0.26104264948E+03  0.26104266605E+03  0.93000000000E-01 0. -1.
         23    2    1    2    0    0  0.00000000000E+00  0.00000000000E+00 -0.25233025781E+03  0.26975555407E+03  0.95380815375E+02 0.  0.
        -13    1    3    3    0    0  0.38899289050E+02 -0.15269933674E+02 -0.61175799457E+02  0.74086538417E+02  0.10570000000E+00 0.  1.
         13    1    3    3    0    0 -0.38899289050E+02  0.15269933674E+02 -0.19115445836E+03  0.19566901565E+03  0.10570000000E+00 0. -1.
<mgrwt>
<rscale>  0 0.95380815E+02</rscale>
<asrwt>0</asrwt>
<pdfrwt beam="2">  1        3 0.40160441E-01 0.95380815E+02</pdfrwt>
<pdfrwt beam="1">  1       -3 0.13404076E-02 0.95380815E+02</pdfrwt>
<totfact> 0.22359406E+04</totfact>
</mgrwt>
</event>
<event>
 5    1  0.1401471E+000  0.8728054E+02  0.7818608E-02  0.1309574E+00
          3   -1    0    0  501    0  0.00000000000E+00  0.00000000000E+00  0.82260978056E+02  0.82261030627E+02  0.93000000000E-01 0. -1.
         -3   -1    0    0    0  501 -0.00000000000E+00 -0.00000000000E+00 -0.23151444172E+02  0.23151630963E+02  0.93000000000E-01 0.  1.
         23    2    1    2    0    0  0.00000000000E+00  0.00000000000E+00  0.59109533884E+02  0.10541266159E+03  0.87280537507E+02 0.  0.
        -13    1    3    3    0    0 -0.27135084487E+02 -0.22571113620E+01 -0.11633678809E+02  0.29610150573E+02  0.10570000000E+00 0.  1.
         13    1    3    3    0    0  0.27135084487E+02  0.22571113620E+01  0.70743212693E+02  0.75802511017E+02  0.10570000000E+00 0. -1.
<mgrwt>
<rscale>  0 0.87280538E+02</rscale>
<asrwt>0</asrwt>
<pdfrwt beam="1">  1        3 0.12655554E-01 0.87280538E+02</pdfrwt>
<pdfrwt beam="2">  1       -3 0.35617790E-02 0.87280538E+02</pdfrwt>
<totfact> 0.38578748E+04</totfact>
</mgrwt>
</event>
<event>
 5    1  0.1401471E+000  0.9230493E+02  0.7818608E-02  0.1297364E+00
          3   -1    0    0  501    0  0.00000000000E+00  0.00000000000E+00  0.39441072857E+02  0.39441182502E+02  0.93000000000E-01 0. -1.
         -3   -1    0    0    0  501 -0.00000000000E+00 -0.00000000000E+00 -0.54005663862E+02  0.54005743937E+02  0.93000000000E-01 0.  1.
         23    2    1    2    0    0  0.00000000000E+00  0.00000000000E+00 -0.14564591005E+02  0.93446926439E+02  0.92304933507E+02 0.  0.
        -13    1    3    3    0    0 -0.44512531511E+02 -0.31512462017E+01 -0.19206954330E+02  0.48582034553E+02  0.10570000000E+00 0.  1.
         13    1    3    3    0    0  0.44512531511E+02  0.31512462017E+01  0.46423633255E+01  0.44864891886E+02  0.10570000000E+00 0. -1.
<mgrwt>
<rscale>  0 0.92304934E+02</rscale>
<asrwt>0</asrwt>
<pdfrwt beam="1">  1        3 0.60678720E-02 0.92304934E+02</pdfrwt>
<pdfrwt beam="2">  1       -3 0.83085782E-02 0.92304934E+02</pdfrwt>
<totfact> 0.34004601E+04</totfact>
</mgrwt>
</event>
<event>
 5    1  0.1401471E+000  0.8569205E+02  0.7818608E-02  0.1313633E+00
          3   -1    0    0  501    0  0.00000000000E+00  0.00000000000E+00  0.13200205386E+03  0.13200208662E+03  0.93000000000E-01 0. -1.
         -3   -1    0    0    0  501 -0.00000000000E+00 -0.00000000000E+00 -0.13907032216E+02  0.13907343170E+02  0.93000000000E-01 0.  1.
         23    2    1    2    0    0  0.00000000000E+00  0.00000000000E+00  0.11809502165E+03  0.14590942979E+03  0.85692050769E+02 0.  0.
        -13    1    3    3    0    0  0.14160664378E+02  0.28405944896E+02  0.10041495156E+02  0.33290613069E+02  0.10570000000E+00 0.  1.
         13    1    3    3    0    0 -0.14160664378E+02 -0.28405944896E+02  0.10805352649E+03  0.11261881673E+03  0.10570000000E+00 0. -1.
<mgrwt>
<rscale>  0 0.85692051E+02</rscale>
<asrwt>0</asrwt>
<pdfrwt beam="1">  1        3 0.20308035E-01 0.85692051E+02</pdfrwt>
<pdfrwt beam="2">  1       -3 0.21395699E-02 0.85692051E+02</pdfrwt>
<totfact> 0.37303545E+04</totfact>
</mgrwt>
</event>
<event>
 5    1  0.1401471E+000  0.9411214E+02  0.7818608E-02  0.1293188E+00
         -3   -1    0    0    0  501 -0.00000000000E+00  0.00000000000E+00  0.32056553090E+02  0.32056687992E+02  0.93000000000E-01 0.  1.
          3   -1    0    0  501    0  0.00000000000E+00 -0.00000000000E+00 -0.69073673225E+02  0.69073735832E+02  0.93000000000E-01 0. -1.
         23    2    1    2    0    0  0.00000000000E+00  0.00000000000E+00 -0.37017120135E+02  0.10113042382E+03  0.94112142893E+02 0.  0.
        -13    1    3    3    0    0 -0.35506530599E+02  0.17698666893E+01  0.14619282902E+02  0.38439312537E+02  0.10570000000E+00 0.  1.
         13    1    3    3    0    0  0.35506530599E+02 -0.17698666893E+01 -0.51636403037E+02  0.62691111287E+02  0.10570000000E+00 0. -1.
<mgrwt>
<rscale>  0 0.94112143E+02</rscale>
<asrwt>0</asrwt>
<pdfrwt beam="2">  1        3 0.10626734E-01 0.94112143E+02</pdfrwt>
<pdfrwt beam="1">  1       -3 0.49317926E-02 0.94112143E+02</pdfrwt>
<totfact> 0.31720406E+04</totfact>
</mgrwt>
</event>
<event>
 5    1  0.1401471E+000  0.9097037E+02  0.7818608E-02  0.1300519E+00
          3   -1    0    0  501    0  0.00000000000E+00  0.00000000000E+00  0.79376651215E+02  0.79376705696E+02  0.93000000000E-01 0. -1.
         -3   -1    0    0    0  501 -0.00000000000E+00 -0.00000000000E+00 -0.26064219808E+02  0.26064385724E+02  0.93000000000E-01 0.  1.
         23    2    1    2    0    0  0.00000000000E+00  0.00000000000E+00  0.53312431408E+02  0.10544109142E+03  0.90970371096E+02 0.  0.
        -13    1    3    3    0    0 -0.80332108312E+01  0.24682928102E+02  0.69948887410E+02  0.74609901745E+02  0.10570000000E+00 0. -1.
         13    1    3    3    0    0  0.80332108312E+01 -0.24682928102E+02 -0.16636456003E+02  0.30831189675E+02  0.10570000000E+00 0.  1.
<mgrwt>
<rscale>  0 0.90970371E+02</rscale>
<asrwt>0</asrwt>
<pdfrwt beam="1">  1        3 0.12211810E-01 0.90970371E+02</pdfrwt>
<pdfrwt beam="2">  1       -3 0.40098969E-02 0.90970371E+02</pdfrwt>
<totfact> 0.34484395E+04</totfact>
</mgrwt>
</event>
<event>
 5    1  0.1401471E+000  0.9057319E+02  0.7818608E-02  0.1301470E+00
         -3   -1    0    0    0  501 -0.00000000000E+00  0.00000000000E+00  0.17007641513E+02  0.17007895779E+02  0.93000000000E-01 0.  1.
          3   -1    0    0  501    0  0.00000000000E+00 -0.00000000000E+00 -0.12058438246E+03  0.12058441832E+03  0.93000000000E-01 0. -1.
         23    2    1    2    0    0  0.00000000000E+00  0.00000000000E+00 -0.10357674095E+03  0.13759231410E+03  0.90573194902E+02 0.  0.
        -13    1    3    3    0    0 -0.20685927130E+02 -0.40269950130E+02 -0.50064128635E+02  0.67498182296E+02  0.10570000000E+00 0. -1.
         13    1    3    3    0    0  0.20685927130E+02  0.40269950130E+02 -0.53512612312E+02  0.70094131807E+02  0.10570000000E+00 0.  1.
<mgrwt>
<rscale>  0 0.90573195E+02</rscale>
<asrwt>0</asrwt>
<pdfrwt beam="2">  1        3 0.18551465E-01 0.90573195E+02</pdfrwt>
<pdfrwt beam="1">  1       -3 0.26165826E-02 0.90573195E+02</pdfrwt>
<totfact> 0.32665743E+04</totfact>
</mgrwt>
</event>
<event>
 5    1  0.1401471E+000  0.9160085E+02  0.7818608E-02  0.1299021E+00
         -3   -1    0    0    0  501 -0.00000000000E+00  0.00000000000E+00  0.41748643530E+02  0.41748747114E+02  0.93000000000E-01 0.  1.
          3   -1    0    0  501    0  0.00000000000E+00 -0.00000000000E+00 -0.50245235646E+02  0.50245321714E+02  0.93000000000E-01 0. -1.
         23    2    1    2    0    0  0.00000000000E+00  0.00000000000E+00 -0.84965921164E+01  0.91994068828E+02  0.91600854919E+02 0.  0.
        -13    1    3    3    0    0 -0.18009924297E+02  0.19266206995E+02  0.33357388037E+02  0.42523765288E+02  0.10570000000E+00 0.  1.
         13    1    3    3    0    0  0.18009924297E+02 -0.19266206995E+02 -0.41853980153E+02  0.49470303540E+02  0.10570000000E+00 0. -1.
<mgrwt>
<rscale>  0 0.91600855E+02</rscale>
<asrwt>0</asrwt>
<pdfrwt beam="2">  1        3 0.77300509E-02 0.91600855E+02</pdfrwt>
<pdfrwt beam="1">  1       -3 0.64228828E-02 0.91600855E+02</pdfrwt>
<totfact> 0.34831956E+04</totfact>
</mgrwt>
</event>
<event>
 5    1  0.1401471E+000  0.9061811E+02  0.7818608E-02  0.1301362E+00
         -3   -1    0    0    0  501 -0.00000000000E+00  0.00000000000E+00  0.63038684707E+02  0.63038753308E+02  0.93000000000E-01 0.  1.
          3   -1    0    0  501    0  0.00000000000E+00 -0.00000000000E+00 -0.32565734092E+02  0.32565866885E+02  0.93000000000E-01 0. -1.
         23    2    1    2    0    0  0.00000000000E+00  0.00000000000E+00  0.30472950615E+02  0.95604620193E+02  0.90618114542E+02 0.  0.
        -13    1    3    3    0    0  0.19196776018E+02  0.30589020423E+02  0.44104452900E+02  0.57003669338E+02  0.10570000000E+00 0.  1.
         13    1    3    3    0    0 -0.19196776018E+02 -0.30589020423E+02 -0.13631502284E+02  0.38600950855E+02  0.10570000000E+00 0. -1.
<mgrwt>
<rscale>  0 0.90618115E+02</rscale>
<asrwt>0</asrwt>
<pdfrwt beam="2">  1        3 0.50101285E-02 0.90618115E+02</pdfrwt>
<pdfrwt beam="1">  1       -3 0.96982746E-02 0.90618115E+02</pdfrwt>
<totfact> 0.35591441E+04</totfact>
</mgrwt>
</event>
<event>
 5    1  0.1401471E+000  0.8816710E+02  0.7818608E-02  0.1307352E+00
          3   -1    0    0  501    0  0.00000000000E+00  0.00000000000E+00  0.21479046166E+03  0.21479048180E+03  0.93000000000E-01 0. -1.
         -3   -1    0    0    0  501 -0.00000000000E+00 -0.00000000000E+00 -0.90474384543E+01  0.90479164223E+01  0.93000000000E-01 0.  1.
         23    2    1    2    0    0  0.00000000000E+00  0.00000000000E+00  0.20574302321E+03  0.22383839822E+03  0.88167096573E+02 0.  0.
        -13    1    3    3    0    0 -0.33905479166E+02 -0.26762857993E+02  0.80519138014E+02  0.91373819251E+02  0.10570000000E+00 0.  1.
         13    1    3    3    0    0  0.33905479166E+02  0.26762857993E+02  0.12522388519E+03  0.13246457897E+03  0.10570000000E+00 0. -1.
<mgrwt>
<rscale>  0 0.88167097E+02</rscale>
<asrwt>0</asrwt>
<pdfrwt beam="1">  1        3 0.33044721E-01 0.88167097E+02</pdfrwt>
<pdfrwt beam="2">  1       -3 0.13919521E-02 0.88167097E+02</pdfrwt>
<totfact> 0.29887457E+04</totfact>
</mgrwt>
</event>
<event>
 5    1  0.1401471E+000  0.9320661E+02  0.7818608E-02  0.1295267E+00
         -3   -1    0    0    0  501 -0.00000000000E+00  0.00000000000E+00  0.14034106231E+03  0.14034109312E+03  0.93000000000E-01 0.  1.
          3   -1    0    0  501    0  0.00000000000E+00 -0.00000000000E+00 -0.15475470619E+02  0.15475750058E+02  0.93000000000E-01 0. -1.
         23    2    1    2    0    0  0.00000000000E+00  0.00000000000E+00  0.12486559169E+03  0.15581684318E+03  0.93206612592E+02 0.  0.
        -13    1    3    3    0    0  0.33624658927E+02  0.12749220578E+02  0.11198776012E+03  0.11761985336E+03  0.10570000000E+00 0. -1.
         13    1    3    3    0    0 -0.33624658927E+02 -0.12749220578E+02  0.12877831564E+02  0.38196989823E+02  0.10570000000E+00 0.  1.
<mgrwt>
<rscale>  0 0.93206613E+02</rscale>
<asrwt>0</asrwt>
<pdfrwt beam="2">  1        3 0.23808656E-02 0.93206613E+02</pdfrwt>
<pdfrwt beam="1">  1       -3 0.21590956E-01 0.93206613E+02</pdfrwt>
<totfact> 0.29159919E+04</totfact>
</mgrwt>
</event>
<event>
 5    1  0.1401471E+000  0.9096855E+02  0.7818608E-02  0.1300523E+00
         -3   -1    0    0    0  501 -0.00000000000E+00  0.00000000000E+00  0.50324183186E+02  0.50324269119E+02  0.93000000000E-01 0.  1.
          3   -1    0    0  501    0  0.00000000000E+00 -0.00000000000E+00 -0.41109672802E+02  0.41109777996E+02  0.93000000000E-01 0. -1.
         23    2    1    2    0    0  0.00000000000E+00  0.00000000000E+00  0.92145103838E+01  0.91434047115E+02  0.90968553743E+02 0.  0.
        -13    1    3    3    0    0  0.20636505885E+01  0.10496934120E+02 -0.39827150829E+02  0.41239027575E+02  0.10570000000E+00 0. -1.
         13    1    3    3    0    0 -0.20636505885E+01 -0.10496934120E+02  0.49041661212E+02  0.50195019540E+02  0.10570000000E+00 0.  1.
<mgrwt>
<rscale>  0 0.90968554E+02</rscale>
<asrwt>0</asrwt>
<pdfrwt beam="2">  1        3 0.63245797E-02 0.90968554E+02</pdfrwt>
<pdfrwt beam="1">  1       -3 0.77421967E-02 0.90968554E+02</pdfrwt>
<totfact> 0.35540256E+04</totfact>
</mgrwt>
</event>
<event>
 5    1  0.1401471E+000  0.8792674E+02  0.7818608E-02  0.1307951E+00
          3   -1    0    0  501    0  0.00000000000E+00  0.00000000000E+00  0.81484406807E+02  0.81484459878E+02  0.93000000000E-01 0. -1.
         -3   -1    0    0    0  501 -0.00000000000E+00 -0.00000000000E+00 -0.23719452401E+02  0.23719634719E+02  0.93000000000E-01 0.  1.
         23    2    1    2    0    0  0.00000000000E+00  0.00000000000E+00  0.57764954406E+02  0.10520409460E+03  0.87926739747E+02 0.  0.
        -13    1    3    3    0    0  0.15114548040E+02 -0.12659105731E+02  0.75898333413E+02  0.78417285771E+02  0.10570000000E+00 0. -1.
         13    1    3    3    0    0 -0.15114548040E+02  0.12659105731E+02 -0.18133379007E+02  0.26786808826E+02  0.10570000000E+00 0.  1.
<mgrwt>
<rscale>  0 0.87926740E+02</rscale>
<asrwt>0</asrwt>
<pdfrwt beam="1">  1        3 0.12536081E-01 0.87926740E+02</pdfrwt>
<pdfrwt beam="2">  1       -3 0.36491646E-02 0.87926740E+02</pdfrwt>
<totfact> 0.37833837E+04</totfact>
</mgrwt>
</event>
<event>
 5    1  0.1401471E+000  0.9029417E+02  0.7818608E-02  0.1302141E+00
          3   -1    0    0  501    0  0.00000000000E+00  0.00000000000E+00  0.55199255706E+02  0.55199334049E+02  0.93000000000E-01 0. -1.
         -3   -1    0    0    0  501 -0.00000000000E+00 -0.00000000000E+00 -0.36925319210E+02  0.36925436325E+02  0.93000000000E-01 0.  1.
         23    2    1    2    0    0  0.00000000000E+00  0.00000000000E+00  0.18273936496E+02  0.92124770374E+02  0.90294166819E+02 0.  0.
        -13    1    3    3    0    0  0.27501965917E+02 -0.30190930334E+02 -0.10498930518E+02  0.42167394018E+02  0.10570000000E+00 0.  1.
         13    1    3    3    0    0 -0.27501965917E+02  0.30190930334E+02  0.28772867014E+02  0.49957376356E+02  0.10570000000E+00 0. -1.
<mgrwt>
<rscale>  0 0.90294167E+02</rscale>
<asrwt>0</asrwt>
<pdfrwt beam="1">  1        3 0.84922082E-02 0.90294167E+02</pdfrwt>
<pdfrwt beam="2">  1       -3 0.56808334E-02 0.90294167E+02</pdfrwt>
<totfact> 0.36211315E+04</totfact>
</mgrwt>
</event>
<event>
 5    1  0.1401471E+000  0.9033482E+02  0.7818608E-02  0.1302043E+00
         -3   -1    0    0    0  501 -0.00000000000E+00  0.00000000000E+00  0.25286171726E+02  0.25286342748E+02  0.93000000000E-01 0.  1.
          3   -1    0    0  501    0  0.00000000000E+00 -0.00000000000E+00 -0.80679791618E+02  0.80679845218E+02  0.93000000000E-01 0. -1.
         23    2    1    2    0    0  0.00000000000E+00  0.00000000000E+00 -0.55393619891E+02  0.10596618797E+03  0.90334820902E+02 0.  0.
        -13    1    3    3    0    0  0.44023413626E+02 -0.43577475073E+01 -0.17007807314E+02  0.47395438523E+02  0.10570000000E+00 0.  1.
         13    1    3    3    0    0 -0.44023413626E+02  0.43577475073E+01 -0.38385812578E+02  0.58570749444E+02  0.10570000000E+00 0. -1.
<mgrwt>
<rscale>  0 0.90334821E+02</rscale>
<asrwt>0</asrwt>
<pdfrwt beam="2">  1        3 0.12412293E-01 0.90334821E+02</pdfrwt>
<pdfrwt beam="1">  1       -3 0.38901976E-02 0.90334821E+02</pdfrwt>
<totfact> 0.35107557E+04</totfact>
</mgrwt>
</event>
<event>
 5    1  0.1401471E+000  0.8997357E+02  0.7818608E-02  0.1302916E+00
         -3   -1    0    0    0  501 -0.00000000000E+00  0.00000000000E+00  0.16435187583E+02  0.16435450705E+02  0.93000000000E-01 0.  1.
          3   -1    0    0  501    0  0.00000000000E+00 -0.00000000000E+00 -0.12313763710E+03  0.12313767222E+03  0.93000000000E-01 0. -1.
         23    2    1    2    0    0  0.00000000000E+00  0.00000000000E+00 -0.10670244952E+03  0.13957312293E+03  0.89973573400E+02 0.  0.
        -13    1    3    3    0    0  0.23851793031E+02 -0.37189343603E+02 -0.66499947867E+02  0.79838646952E+02  0.10570000000E+00 0.  1.
         13    1    3    3    0    0 -0.23851793031E+02  0.37189343603E+02 -0.40202501655E+02  0.59734475977E+02  0.10570000000E+00 0. -1.
<mgrwt>
<rscale>  0 0.89973573E+02</rscale>
<asrwt>0</asrwt>
<pdfrwt beam="2">  1        3 0.18944274E-01 0.89973573E+02</pdfrwt>
<pdfrwt beam="1">  1       -3 0.25285134E-02 0.89973573E+02</pdfrwt>
<totfact> 0.33126457E+04</totfact>
</mgrwt>
</event>
<event>
 5    1  0.1401471E+000  0.9199805E+02  0.7818608E-02  0.1298084E+00
         -3   -1    0    0    0  501 -0.00000000000E+00  0.00000000000E+00  0.23161894650E+02  0.23162081357E+02  0.93000000000E-01 0.  1.
          3   -1    0    0  501    0  0.00000000000E+00 -0.00000000000E+00 -0.91352493943E+02  0.91352541281E+02  0.93000000000E-01 0. -1.
         23    2    1    2    0    0  0.00000000000E+00  0.00000000000E+00 -0.68190599293E+02  0.11451462264E+03  0.91998048708E+02 0.  0.
        -13    1    3    3    0    0  0.57829432730E+01  0.35632854762E+02  0.13911459790E+01  0.36126018754E+02  0.10570000000E+00 0.  1.
         13    1    3    3    0    0 -0.57829432730E+01 -0.35632854762E+02 -0.69581745272E+02  0.78388603884E+02  0.10570000000E+00 0. -1.
<mgrwt>
<rscale>  0 0.91998049E+02</rscale>
<asrwt>0</asrwt>
<pdfrwt beam="2">  1        3 0.14054248E-01 0.91998049E+02</pdfrwt>
<pdfrwt beam="1">  1       -3 0.35633865E-02 0.91998049E+02</pdfrwt>
<totfact> 0.32814680E+04</totfact>
</mgrwt>
</event>
<event>
 5    1  0.1401471E+000  0.9131912E+02  0.7818608E-02  0.1299688E+00
          3   -1    0    0  501    0  0.00000000000E+00  0.00000000000E+00  0.17435016951E+03  0.17435019431E+03  0.93000000000E-01 0. -1.
         -3   -1    0    0    0  501 -0.00000000000E+00 -0.00000000000E+00 -0.11957313243E+02  0.11957674899E+02  0.93000000000E-01 0.  1.
         23    2    1    2    0    0  0.00000000000E+00  0.00000000000E+00  0.16239285627E+03  0.18630786921E+03  0.91319123758E+02 0.  0.
        -13    1    3    3    0    0  0.31369086559E+02 -0.11095651294E+02  0.14498772998E+03  0.14875680181E+03  0.10570000000E+00 0.  1.
         13    1    3    3    0    0 -0.31369086559E+02  0.11095651294E+02  0.17405126289E+02  0.37551067399E+02  0.10570000000E+00 0. -1.
<mgrwt>
<rscale>  0 0.91319124E+02</rscale>
<asrwt>0</asrwt>
<pdfrwt beam="1">  1        3 0.26823131E-01 0.91319124E+02</pdfrwt>
<pdfrwt beam="2">  1       -3 0.18396165E-02 0.91319124E+02</pdfrwt>
<totfact> 0.29099158E+04</totfact>
</mgrwt>
</event>
<event>
 5    1  0.1401471E+000  0.8300113E+02  0.7818608E-02  0.1320744E+00
         -3   -1    0    0    0  501 -0.00000000000E+00  0.00000000000E+00  0.95138095157E+02  0.95138140612E+02  0.93000000000E-01 0.  1.
          3   -1    0    0  501    0  0.00000000000E+00 -0.00000000000E+00 -0.18102954297E+02  0.18103193179E+02  0.93000000000E-01 0. -1.
         23    2    1    2    0    0  0.00000000000E+00  0.00000000000E+00  0.77035140860E+02  0.11324133379E+03  0.83001125001E+02 0.  0.
        -13    1    3    3    0    0 -0.37054305419E+02  0.12561507634E+02  0.19638778887E+02  0.43777914898E+02  0.10570000000E+00 0. -1.
         13    1    3    3    0    0  0.37054305419E+02 -0.12561507634E+02  0.57396361973E+02  0.69463418894E+02  0.10570000000E+00 0.  1.
<mgrwt>
<rscale>  0 0.83001125E+02</rscale>
<asrwt>0</asrwt>
<pdfrwt beam="2">  1        3 0.27850918E-02 0.83001125E+02</pdfrwt>
<pdfrwt beam="1">  1       -3 0.14636652E-01 0.83001125E+02</pdfrwt>
<totfact> 0.43448274E+04</totfact>
</mgrwt>
</event>
<event>
 5    1  0.1401471E+000  0.9116855E+02  0.7818608E-02  0.1300046E+00
          3   -1    0    0  501    0  0.00000000000E+00  0.00000000000E+00  0.85449584749E+01  0.85454645478E+01  0.93000000000E-01 0.  1.
         -3   -1    0    0    0  501 -0.00000000000E+00 -0.00000000000E+00 -0.24316797308E+03  0.24316799086E+03  0.93000000000E-01 0. -1.
         23    2    1    2    0    0  0.00000000000E+00  0.00000000000E+00 -0.23462301460E+03  0.25171345541E+03  0.91168550789E+02 0.  0.
        -13    1    3    3    0    0  0.17208172673E+02  0.33908800217E+02 -0.18672045664E+03  0.19055305833E+03  0.10570000000E+00 0. -1.
         13    1    3    3    0    0 -0.17208172673E+02 -0.33908800217E+02 -0.47902557959E+02  0.61160397075E+02  0.10570000000E+00 0.  1.
<mgrwt>
<rscale>  0 0.91168551E+02</rscale>
<asrwt>0</asrwt>
<pdfrwt beam="1">  1        3 0.13146495E-02 0.91168551E+02</pdfrwt>
<pdfrwt beam="2">  1       -3 0.37410493E-01 0.91168551E+02</pdfrwt>
<totfact> 0.26029833E+04</totfact>
</mgrwt>
</event>
<event>
 5    1  0.1401471E+000  0.8918478E+02  0.7818608E-02  0.1304838E+00
          3   -1    0    0  501    0  0.00000000000E+00  0.00000000000E+00  0.95915149902E+02  0.95915194989E+02  0.93000000000E-01 0. -1.
         -3   -1    0    0    0  501 -0.00000000000E+00 -0.00000000000E+00 -0.20731516490E+02  0.20731725085E+02  0.93000000000E-01 0.  1.
         23    2    1    2    0    0  0.00000000000E+00  0.00000000000E+00  0.75183633412E+02  0.11664692007E+03  0.89184781379E+02 0.  0.
        -13    1    3    3    0    0 -0.70527542178E+01 -0.29405284526E+02  0.80456182096E+02  0.85951268229E+02  0.10570000000E+00 0. -1.
         13    1    3    3    0    0  0.70527542178E+01  0.29405284526E+02 -0.52725486843E+01  0.30695651845E+02  0.10570000000E+00 0.  1.
<mgrwt>
<rscale>  0 0.89184781E+02</rscale>
<asrwt>0</asrwt>
<pdfrwt beam="1">  1        3 0.14756197E-01 0.89184781E+02</pdfrwt>
<pdfrwt beam="2">  1       -3 0.31894835E-02 0.89184781E+02</pdfrwt>
<totfact> 0.35541898E+04</totfact>
</mgrwt>
</event>
<event>
 5    1  0.1401471E+000  0.7764284E+02  0.7818608E-02  0.1335877E+00
         -3   -1    0    0    0  501 -0.00000000000E+00  0.00000000000E+00  0.44944025282E+02  0.44944121502E+02  0.93000000000E-01 0.  1.
          3   -1    0    0  501    0  0.00000000000E+00 -0.00000000000E+00 -0.33532687961E+02  0.33532816924E+02  0.93000000000E-01 0. -1.
         23    2    1    2    0    0  0.00000000000E+00  0.00000000000E+00  0.11411337321E+02  0.78476938426E+02  0.77642844134E+02 0.  0.
        -13    1    3    3    0    0  0.38598614789E+02  0.53644037189E+00  0.15443037083E+01  0.38633364833E+02  0.10570000000E+00 0. -1.
         13    1    3    3    0    0 -0.38598614789E+02 -0.53644037189E+00  0.98670336132E+01  0.39843573593E+02  0.10570000000E+00 0.  1.
<mgrwt>
<rscale>  0 0.77642844E+02</rscale>
<asrwt>0</asrwt>
<pdfrwt beam="2">  1        3 0.51588924E-02 0.77642844E+02</pdfrwt>
<pdfrwt beam="1">  1       -3 0.69144828E-02 0.77642844E+02</pdfrwt>
<totfact> 0.56089916E+04</totfact>
</mgrwt>
</event>
<event>
 5    1  0.1401471E+000  0.9077412E+02  0.7818608E-02  0.1300988E+00
         -3   -1    0    0    0  501 -0.00000000000E+00  0.00000000000E+00  0.34952953808E+02  0.34953077531E+02  0.93000000000E-01 0.  1.
          3   -1    0    0  501    0  0.00000000000E+00 -0.00000000000E+00 -0.58935679866E+02  0.58935753242E+02  0.93000000000E-01 0. -1.
         23    2    1    2    0    0  0.00000000000E+00  0.00000000000E+00 -0.23982726058E+02  0.93888830774E+02  0.90774122937E+02 0.  0.
        -13    1    3    3    0    0 -0.14141904582E+02 -0.42961743645E+02 -0.15898450301E+02  0.47942431902E+02  0.10570000000E+00 0.  1.
         13    1    3    3    0    0  0.14141904582E+02  0.42961743645E+02 -0.80842757569E+01  0.45946398871E+02  0.10570000000E+00 0. -1.
<mgrwt>
<rscale>  0 0.90774123E+02</rscale>
<asrwt>0</asrwt>
<pdfrwt beam="2">  1        3 0.90670428E-02 0.90774123E+02</pdfrwt>
<pdfrwt beam="1">  1       -3 0.53773927E-02 0.90774123E+02</pdfrwt>
<totfact> 0.35556854E+04</totfact>
</mgrwt>
</event>
<event>
 5    1  0.1401471E+000  0.8977054E+02  0.7818608E-02  0.1303408E+00
          3   -1    0    0  501    0  0.00000000000E+00  0.00000000000E+00  0.47806389994E+02  0.47806480453E+02  0.93000000000E-01 0. -1.
         -3   -1    0    0    0  501 -0.00000000000E+00 -0.00000000000E+00 -0.42142454355E+02  0.42142556971E+02  0.93000000000E-01 0.  1.
         23    2    1    2    0    0  0.00000000000E+00  0.00000000000E+00  0.56639356391E+01  0.89949037424E+02  0.89770536183E+02 0.  0.
        -13    1    3    3    0    0 -0.31280789818E+02  0.29541403608E+02 -0.99799256539E+01  0.44167775892E+02  0.10570000000E+00 0.  1.
         13    1    3    3    0    0  0.31280789818E+02 -0.29541403608E+02  0.15643861293E+02  0.45781261531E+02  0.10570000000E+00 0. -1.
<mgrwt>
<rscale>  0 0.89770536E+02</rscale>
<asrwt>0</asrwt>
<pdfrwt beam="1">  1        3 0.73548441E-02 0.89770536E+02</pdfrwt>
<pdfrwt beam="2">  1       -3 0.64834694E-02 0.89770536E+02</pdfrwt>
<totfact> 0.36962990E+04</totfact>
</mgrwt>
</event>
<event>
 5    1  0.1401471E+000  0.9223368E+02  0.7818608E-02  0.1297531E+00
          3   -1    0    0  501    0  0.00000000000E+00  0.00000000000E+00  0.50044904206E+02  0.50044990619E+02  0.93000000000E-01 0. -1.
         -3   -1    0    0    0  501 -0.00000000000E+00 -0.00000000000E+00 -0.42496919096E+02  0.42497020856E+02  0.93000000000E-01 0.  1.
         23    2    1    2    0    0  0.00000000000E+00  0.00000000000E+00  0.75479851103E+01  0.92542011475E+02  0.92233680446E+02 0.  0.
        -13    1    3    3    0    0  0.10492518462E+01  0.29966486438E+02 -0.31381124205E+02  0.43403656156E+02  0.10570000000E+00 0.  1.
         13    1    3    3    0    0 -0.10492518462E+01 -0.29966486438E+02  0.38929109315E+02  0.49138355319E+02  0.10570000000E+00 0. -1.
<mgrwt>
<rscale>  0 0.92233680E+02</rscale>
<asrwt>0</asrwt>
<pdfrwt beam="1">  1        3 0.76992305E-02 0.92233680E+02</pdfrwt>
<pdfrwt beam="2">  1       -3 0.65380021E-02 0.92233680E+02</pdfrwt>
<totfact> 0.34142342E+04</totfact>
</mgrwt>
</event>
<event>
 5    1  0.1401471E+000  0.9321971E+02  0.7818608E-02  0.1295237E+00
          3   -1    0    0  501    0  0.00000000000E+00  0.00000000000E+00  0.94379384820E+02  0.94379430641E+02  0.93000000000E-01 0. -1.
         -3   -1    0    0    0  501 -0.00000000000E+00 -0.00000000000E+00 -0.23018427308E+02  0.23018615178E+02  0.93000000000E-01 0.  1.
         23    2    1    2    0    0  0.00000000000E+00  0.00000000000E+00  0.71360957512E+02  0.11739804582E+03  0.93219713071E+02 0.  0.
        -13    1    3    3    0    0  0.34087739084E+02  0.31607396364E+02  0.31416050258E+02  0.56106869874E+02  0.10570000000E+00 0.  1.
         13    1    3    3    0    0 -0.34087739084E+02 -0.31607396364E+02  0.39944907254E+02  0.61291175945E+02  0.10570000000E+00 0. -1.
<mgrwt>
<rscale>  0 0.93219713E+02</rscale>
<asrwt>0</asrwt>
<pdfrwt beam="1">  1        3 0.14519923E-01 0.93219713E+02</pdfrwt>
<pdfrwt beam="2">  1       -3 0.35413146E-02 0.93219713E+02</pdfrwt>
<totfact> 0.31467196E+04</totfact>
</mgrwt>
</event>
<event>
 5    1  0.1401471E+000  0.9038881E+02  0.7818608E-02  0.1301913E+00
         -3   -1    0    0    0  501 -0.00000000000E+00  0.00000000000E+00  0.37600956430E+02  0.37601071440E+02  0.93000000000E-01 0.  1.
          3   -1    0    0  501    0  0.00000000000E+00 -0.00000000000E+00 -0.54321095633E+02  0.54321175243E+02  0.93000000000E-01 0. -1.
         23    2    1    2    0    0  0.00000000000E+00  0.00000000000E+00 -0.16720139203E+02  0.91922246683E+02  0.90388806720E+02 0.  0.
        -13    1    3    3    0    0 -0.30513532027E+02  0.74105898911E+01  0.24695678106E+02  0.39948468918E+02  0.10570000000E+00 0.  1.
         13    1    3    3    0    0  0.30513532027E+02 -0.74105898911E+01 -0.41415817309E+02  0.51973777765E+02  0.10570000000E+00 0. -1.
<mgrwt>
<rscale>  0 0.90388807E+02</rscale>
<asrwt>0</asrwt>
<pdfrwt beam="2">  1        3 0.83571066E-02 0.90388807E+02</pdfrwt>
<pdfrwt beam="1">  1       -3 0.57847775E-02 0.90388807E+02</pdfrwt>
<totfact> 0.36124366E+04</totfact>
</mgrwt>
</event>
<event>
 5    1  0.1401471E+000  0.9025421E+02  0.7818608E-02  0.1302237E+00
         -3   -1    0    0    0  501 -0.00000000000E+00  0.00000000000E+00  0.52067197039E+02  0.52067280095E+02  0.93000000000E-01 0.  1.
          3   -1    0    0  501    0  0.00000000000E+00 -0.00000000000E+00 -0.39111896505E+02  0.39112007073E+02  0.93000000000E-01 0. -1.
         23    2    1    2    0    0  0.00000000000E+00  0.00000000000E+00  0.12955300534E+02  0.91179287168E+02  0.90254210963E+02 0.  0.
        -13    1    3    3    0    0  0.62935808753E+01 -0.33983060153E+02  0.35792076362E+02  0.49754813239E+02  0.10570000000E+00 0.  1.
         13    1    3    3    0    0 -0.62935808753E+01  0.33983060153E+02 -0.22836775829E+02  0.41424473929E+02  0.10570000000E+00 0. -1.
<mgrwt>
<rscale>  0 0.90254211E+02</rscale>
<asrwt>0</asrwt>
<pdfrwt beam="2">  1        3 0.60172297E-02 0.90254211E+02</pdfrwt>
<pdfrwt beam="1">  1       -3 0.80103529E-02 0.90254211E+02</pdfrwt>
<totfact> 0.36330330E+04</totfact>
</mgrwt>
</event>
<event>
 5    1  0.1401471E+000  0.9090087E+02  0.7818608E-02  0.1300685E+00
         -3   -1    0    0    0  501 -0.00000000000E+00  0.00000000000E+00  0.57529361245E+01  0.57536877785E+01  0.93000000000E-01 0.  1.
          3   -1    0    0  501    0  0.00000000000E+00 -0.00000000000E+00 -0.35905193475E+03  0.35905194680E+03  0.93000000000E-01 0. -1.
         23    2    1    2    0    0  0.00000000000E+00  0.00000000000E+00 -0.35329899863E+03  0.36480563458E+03  0.90900872307E+02 0.  0.
        -13    1    3    3    0    0 -0.22890913305E+02  0.34836884850E+02 -0.24934632939E+03  0.25280665658E+03  0.10570000000E+00 0. -1.
         13    1    3    3    0    0  0.22890913305E+02 -0.34836884850E+02 -0.10395266924E+03  0.11199897800E+03  0.10570000000E+00 0.  1.
<mgrwt>
<rscale>  0 0.90900872E+02</rscale>
<asrwt>0</asrwt>
<pdfrwt beam="2">  1        3 0.55238801E-01 0.90900872E+02</pdfrwt>
<pdfrwt beam="1">  1       -3 0.88512612E-03 0.90900872E+02</pdfrwt>
<totfact> 0.21899482E+04</totfact>
</mgrwt>
</event>
<event>
 5    1  0.1401471E+000  0.9181702E+02  0.7818608E-02  0.1298510E+00
          3   -1    0    0  501    0  0.00000000000E+00  0.00000000000E+00  0.81335264847E+01  0.81340581555E+01  0.93000000000E-01 0. -1.
         -3   -1    0    0    0  501 -0.00000000000E+00 -0.00000000000E+00 -0.25911488753E+03  0.25911490422E+03  0.93000000000E-01 0.  1.
         23    2    1    2    0    0  0.00000000000E+00  0.00000000000E+00 -0.25098136105E+03  0.26724896238E+03  0.91817015299E+02 0.  0.
        -13    1    3    3    0    0  0.35604913206E+02  0.17290453876E+02 -0.57795855929E+02  0.70050280333E+02  0.10570000000E+00 0. -1.
         13    1    3    3    0    0 -0.35604913206E+02 -0.17290453876E+02 -0.19318550512E+03  0.19719868204E+03  0.10570000000E+00 0.  1.
<mgrwt>
<rscale>  0 0.91817015E+02</rscale>
<asrwt>0</asrwt>
<pdfrwt beam="1">  1        3 0.12513541E-02 0.91817015E+02</pdfrwt>
<pdfrwt beam="2">  1       -3 0.39863865E-01 0.91817015E+02</pdfrwt>
<totfact> 0.24877673E+04</totfact>
</mgrwt>
</event>
<event>
 5    1  0.1401471E+000  0.9089128E+02  0.7818608E-02  0.1300708E+00
         -3   -1    0    0    0  501 -0.00000000000E+00  0.00000000000E+00  0.29856299785E+02  0.29856444629E+02  0.93000000000E-01 0.  1.
          3   -1    0    0  501    0  0.00000000000E+00 -0.00000000000E+00 -0.69174536747E+02  0.69174599262E+02  0.93000000000E-01 0. -1.
         23    2    1    2    0    0  0.00000000000E+00  0.00000000000E+00 -0.39318236962E+02  0.99031043891E+02  0.90891275139E+02 0.  0.
        -13    1    3    3    0    0  0.47588309815E+01 -0.14735387465E+02  0.26893280259E+02  0.31032850524E+02  0.10570000000E+00 0.  1.
         13    1    3    3    0    0 -0.47588309815E+01  0.14735387465E+02 -0.66211517221E+02  0.67998193367E+02  0.10570000000E+00 0. -1.
<mgrwt>
<rscale>  0 0.90891275E+02</rscale>
<asrwt>0</asrwt>
<pdfrwt beam="2">  1        3 0.10642252E-01 0.90891275E+02</pdfrwt>
<pdfrwt beam="1">  1       -3 0.45932929E-02 0.90891275E+02</pdfrwt>
<totfact> 0.35040888E+04</totfact>
</mgrwt>
</event>
<event>
 5    1  0.1401471E+000  0.7528937E+02  0.7818608E-02  0.1342977E+00
          3   -1    0    0  501    0  0.00000000000E+00  0.00000000000E+00  0.39576442856E+02  0.39576552126E+02  0.93000000000E-01 0. -1.
         -3   -1    0    0    0  501 -0.00000000000E+00 -0.00000000000E+00 -0.35807002593E+02  0.35807123365E+02  0.93000000000E-01 0.  1.
         23    2    1    2    0    0  0.00000000000E+00  0.00000000000E+00  0.37694402632E+01  0.75383675491E+02  0.75289374088E+02 0.  0.
        -13    1    3    3    0    0  0.16268939855E+02  0.61889400732E+01  0.35305112012E+02  0.39362971050E+02  0.10570000000E+00 0. -1.
         13    1    3    3    0    0 -0.16268939855E+02 -0.61889400732E+01 -0.31535671749E+02  0.36020704440E+02  0.10570000000E+00 0.  1.
<mgrwt>
<rscale>  0 0.75289374E+02</rscale>
<asrwt>0</asrwt>
<pdfrwt beam="1">  1        3 0.60887012E-02 0.75289374E+02</pdfrwt>
<pdfrwt beam="2">  1       -3 0.55087873E-02 0.75289374E+02</pdfrwt>
<totfact> 0.61336268E+04</totfact>
</mgrwt>
</event>
<event>
 5    1  0.1401471E+000  0.8962024E+02  0.7818608E-02  0.1303774E+00
          3   -1    0    0  501    0  0.00000000000E+00  0.00000000000E+00  0.74980037791E+01  0.74985805105E+01  0.93000000000E-01 0. -1.
         -3   -1    0    0    0  501 -0.00000000000E+00 -0.00000000000E+00 -0.26778661846E+03  0.26778663461E+03  0.93000000000E-01 0.  1.
         23    2    1    2    0    0  0.00000000000E+00  0.00000000000E+00 -0.26028861468E+03  0.27528521512E+03  0.89620236168E+02 0.  0.
        -13    1    3    3    0    0 -0.35166847694E+02  0.25324400812E+02 -0.16515385413E+03  0.17074495354E+03  0.10570000000E+00 0.  1.
         13    1    3    3    0    0  0.35166847694E+02 -0.25324400812E+02 -0.95134760545E+02  0.10454026157E+03  0.10570000000E+00 0. -1.
<mgrwt>
<rscale>  0 0.89620236E+02</rscale>
<asrwt>0</asrwt>
<pdfrwt beam="1">  1        3 0.11535849E-02 0.89620236E+02</pdfrwt>
<pdfrwt beam="2">  1       -3 0.41197980E-01 0.89620236E+02</pdfrwt>
<totfact> 0.26195804E+04</totfact>
</mgrwt>
</event>
<event>
 5    1  0.1401471E+000  0.8925099E+02  0.7818608E-02  0.1304676E+00
          3   -1    0    0  501    0  0.00000000000E+00  0.00000000000E+00  0.93348055497E+02  0.93348101823E+02  0.93000000000E-01 0.  1.
         -3   -1    0    0    0  501 -0.00000000000E+00 -0.00000000000E+00 -0.21333285143E+02  0.21333487853E+02  0.93000000000E-01 0. -1.
         23    2    1    2    0    0  0.00000000000E+00  0.00000000000E+00  0.72014770354E+02  0.11468158968E+03  0.89250993617E+02 0.  0.
        -13    1    3    3    0    0 -0.21229154165E+02 -0.18970735349E+02  0.80162343983E+02  0.85068080686E+02  0.10570000000E+00 0.  1.
         13    1    3    3    0    0  0.21229154165E+02  0.18970735349E+02 -0.81475736290E+01  0.29613508991E+02  0.10570000000E+00 0. -1.
<mgrwt>
<rscale>  0 0.89250994E+02</rscale>
<asrwt>0</asrwt>
<pdfrwt beam="1">  1        3 0.14361259E-01 0.89250994E+02</pdfrwt>
<pdfrwt beam="2">  1       -3 0.32820630E-02 0.89250994E+02</pdfrwt>
<totfact> 0.35615977E+04</totfact>
</mgrwt>
</event>
<event>
 5    1  0.1401471E+000  0.8729010E+02  0.7818608E-02  0.1309550E+00
         -3   -1    0    0    0  501 -0.00000000000E+00  0.00000000000E+00  0.92955456553E+02  0.92955503076E+02  0.93000000000E-01 0.  1.
          3   -1    0    0  501    0  0.00000000000E+00 -0.00000000000E+00 -0.20492350105E+02  0.20492561134E+02  0.93000000000E-01 0. -1.
         23    2    1    2    0    0  0.00000000000E+00  0.00000000000E+00  0.72463106449E+02  0.11344806421E+03  0.87290099534E+02 0.  0.
        -13    1    3    3    0    0  0.45117274398E+01  0.39578389895E+02  0.13052453049E+02  0.41918758739E+02  0.10570000000E+00 0. -1.
         13    1    3    3    0    0 -0.45117274398E+01 -0.39578389895E+02  0.59410653399E+02  0.71529305470E+02  0.10570000000E+00 0.  1.
<mgrwt>
<rscale>  0 0.87290100E+02</rscale>
<asrwt>0</asrwt>
<pdfrwt beam="2">  1        3 0.31526891E-02 0.87290100E+02</pdfrwt>
<pdfrwt beam="1">  1       -3 0.14300859E-01 0.87290100E+02</pdfrwt>
<totfact> 0.37919991E+04</totfact>
</mgrwt>
</event>
<event>
 5    1  0.1401471E+000  0.1040906E+03  0.7818608E-02  0.1271922E+00
          3   -1    0    0  501    0  0.00000000000E+00  0.00000000000E+00  0.13723736484E+03  0.13723739636E+03  0.93000000000E-01 0. -1.
         -3   -1    0    0    0  501 -0.00000000000E+00 -0.00000000000E+00 -0.19737273831E+02  0.19737492933E+02  0.93000000000E-01 0.  1.
         23    2    1    2    0    0  0.00000000000E+00  0.00000000000E+00  0.11750009101E+03  0.15697488929E+03  0.10409055903E+03 0.  0.
        -13    1    3    3    0    0  0.12564994009E+02  0.44053953584E+02  0.21501553465E+02  0.50605907509E+02  0.10570000000E+00 0.  1.
         13    1    3    3    0    0 -0.12564994009E+02 -0.44053953584E+02  0.95998537549E+02  0.10636898178E+03  0.10570000000E+00 0. -1.
<mgrwt>
<rscale>  0 0.10409056E+03</rscale>
<asrwt>0</asrwt>
<pdfrwt beam="1">  1        3 0.21113460E-01 0.10409056E+03</pdfrwt>
<pdfrwt beam="2">  1       -3 0.30365229E-02 0.10409056E+03</pdfrwt>
<totfact> 0.21513144E+04</totfact>
</mgrwt>
</event>
<event>
 5    1  0.1401471E+000  0.8946208E+02  0.7818608E-02  0.1304160E+00
         -3   -1    0    0    0  501 -0.00000000000E+00  0.00000000000E+00  0.16613936941E+03  0.16613939544E+03  0.93000000000E-01 0.  1.
          3   -1    0    0  501    0  0.00000000000E+00 -0.00000000000E+00 -0.12043092630E+02  0.12043451710E+02  0.93000000000E-01 0. -1.
         23    2    1    2    0    0  0.00000000000E+00  0.00000000000E+00  0.15409627678E+03  0.17818284715E+03  0.89462084153E+02 0.  0.
        -13    1    3    3    0    0  0.69946802729E+01 -0.40901656798E+02  0.43780924437E+02  0.60321236708E+02  0.10570000000E+00 0.  1.
         13    1    3    3    0    0 -0.69946802729E+01  0.40901656798E+02  0.11031535234E+03  0.11786161044E+03  0.10570000000E+00 0. -1.
<mgrwt>
<rscale>  0 0.89462084E+02</rscale>
<asrwt>0</asrwt>
<pdfrwt beam="2">  1        3 0.18528131E-02 0.89462084E+02</pdfrwt>
<pdfrwt beam="1">  1       -3 0.25559932E-01 0.89462084E+02</pdfrwt>
<totfact> 0.31224043E+04</totfact>
</mgrwt>
</event>
<event>
 5    1  0.1401471E+000  0.9176316E+02  0.7818608E-02  0.1298637E+00
         -3   -1    0    0    0  501 -0.00000000000E+00  0.00000000000E+00  0.61819443466E+02  0.61819513420E+02  0.93000000000E-01 0.  1.
          3   -1    0    0  501    0  0.00000000000E+00 -0.00000000000E+00 -0.34052552542E+02  0.34052679537E+02  0.93000000000E-01 0. -1.
         23    2    1    2    0    0  0.00000000000E+00  0.00000000000E+00  0.27766890925E+02  0.95872192957E+02  0.91763157916E+02 0.  0.
        -13    1    3    3    0    0  0.42495977095E+02  0.13884826274E+02  0.31059241695E+01  0.44814667324E+02  0.10570000000E+00 0. -1.
         13    1    3    3    0    0 -0.42495977095E+02 -0.13884826274E+02  0.24660966755E+02  0.51057525633E+02  0.10570000000E+00 0.  1.
<mgrwt>
<rscale>  0 0.91763158E+02</rscale>
<asrwt>0</asrwt>
<pdfrwt beam="2">  1        3 0.52388694E-02 0.91763158E+02</pdfrwt>
<pdfrwt beam="1">  1       -3 0.95106987E-02 0.91763158E+02</pdfrwt>
<totfact> 0.34374726E+04</totfact>
</mgrwt>
</event>
<event>
 5    1  0.1401471E+000  0.9119124E+02  0.7818608E-02  0.1299992E+00
         -3   -1    0    0    0  501 -0.00000000000E+00  0.00000000000E+00  0.25030074315E+02  0.25030247087E+02  0.93000000000E-01 0.  1.
          3   -1    0    0  501    0  0.00000000000E+00 -0.00000000000E+00 -0.83058018875E+02  0.83058070941E+02  0.93000000000E-01 0. -1.
         23    2    1    2    0    0  0.00000000000E+00  0.00000000000E+00 -0.58027944560E+02  0.10808831803E+03  0.91191239405E+02 0.  0.
        -13    1    3    3    0    0  0.33495937952E+02 -0.79495408019E+01  0.64216496084E+01  0.35020305744E+02  0.10570000000E+00 0.  1.
         13    1    3    3    0    0 -0.33495937952E+02  0.79495408019E+01 -0.64449594168E+02  0.73068012284E+02  0.10570000000E+00 0. -1.
<mgrwt>
<rscale>  0 0.91191239E+02</rscale>
<asrwt>0</asrwt>
<pdfrwt beam="2">  1        3 0.12778174E-01 0.91191239E+02</pdfrwt>
<pdfrwt beam="1">  1       -3 0.38507980E-02 0.91191239E+02</pdfrwt>
<totfact> 0.34066863E+04</totfact>
</mgrwt>
</event>
<event>
 5    1  0.1401471E+000  0.9264950E+02  0.7818608E-02  0.1296559E+00
          3   -1    0    0  501    0  0.00000000000E+00  0.00000000000E+00  0.74818629047E+02  0.74818686847E+02  0.93000000000E-01 0. -1.
         -3   -1    0    0    0  501 -0.00000000000E+00 -0.00000000000E+00 -0.28682315926E+02  0.28682466698E+02  0.93000000000E-01 0.  1.
         23    2    1    2    0    0  0.00000000000E+00  0.00000000000E+00  0.46136313121E+02  0.10350115354E+03  0.92649497552E+02 0.  0.
        -13    1    3    3    0    0  0.15833766246E+02  0.64608958513E+01 -0.25026933483E+02  0.30311877223E+02  0.10570000000E+00 0.  1.
         13    1    3    3    0    0 -0.15833766246E+02 -0.64608958513E+01  0.71163246604E+02  0.73189276321E+02  0.10570000000E+00 0. -1.
<mgrwt>
<rscale>  0 0.92649498E+02</rscale>
<asrwt>0</asrwt>
<pdfrwt beam="1">  1        3 0.11510574E-01 0.92649498E+02</pdfrwt>
<pdfrwt beam="2">  1       -3 0.44126801E-02 0.92649498E+02</pdfrwt>
<totfact> 0.32941803E+04</totfact>
</mgrwt>
</event>
<event>
 5    1  0.1401471E+000  0.9120561E+02  0.7818608E-02  0.1299958E+00
         -3   -1    0    0    0  501 -0.00000000000E+00  0.00000000000E+00  0.15089891829E+03  0.15089894695E+03  0.93000000000E-01 0.  1.
          3   -1    0    0  501    0  0.00000000000E+00 -0.00000000000E+00 -0.13781328982E+02  0.13781642773E+02  0.93000000000E-01 0. -1.
         23    2    1    2    0    0  0.00000000000E+00  0.00000000000E+00  0.13711758931E+03  0.16468058972E+03  0.91205610209E+02 0.  0.
        -13    1    3    3    0    0  0.14344590051E+02 -0.34723000608E+02  0.11523097071E+03  0.12120083258E+03  0.10570000000E+00 0.  1.
         13    1    3    3    0    0 -0.14344590051E+02  0.34723000608E+02  0.21886618599E+02  0.43479757142E+02  0.10570000000E+00 0. -1.
<mgrwt>
<rscale>  0 0.91205610E+02</rscale>
<asrwt>0</asrwt>
<pdfrwt beam="2">  1        3 0.21202308E-02 0.91205610E+02</pdfrwt>
<pdfrwt beam="1">  1       -3 0.23215245E-01 0.91205610E+02</pdfrwt>
<totfact> 0.30406908E+04</totfact>
</mgrwt>
</event>
<event>
 5    1  0.1401471E+000  0.9092465E+02  0.7818608E-02  0.1300628E+00
         -3   -1    0    0    0  501 -0.00000000000E+00  0.00000000000E+00  0.19343324535E+03  0.19343326771E+03  0.93000000000E-01 0.  1.
          3   -1    0    0  501    0  0.00000000000E+00 -0.00000000000E+00 -0.10684715661E+02  0.10685120390E+02  0.93000000000E-01 0. -1.
         23    2    1    2    0    0  0.00000000000E+00  0.00000000000E+00  0.18274852969E+03  0.20411838810E+03  0.90924646031E+02 0.  0.
        -13    1    3    3    0    0  0.28476614646E+02  0.79599173890E+01  0.13850321578E+02  0.32651499917E+02  0.10570000000E+00 0. -1.
         13    1    3    3    0    0 -0.28476614646E+02 -0.79599173890E+01  0.16889820811E+03  0.17146688818E+03  0.10570000000E+00 0.  1.
<mgrwt>
<rscale>  0 0.90924646E+02</rscale>
<asrwt>0</asrwt>
<pdfrwt beam="2">  1        3 0.16438352E-02 0.90924646E+02</pdfrwt>
<pdfrwt beam="1">  1       -3 0.29758994E-01 0.90924646E+02</pdfrwt>
<totfact> 0.28497659E+04</totfact>
</mgrwt>
</event>
<event>
 5    1  0.1401471E+000  0.8627587E+02  0.7818608E-02  0.1312129E+00
          3   -1    0    0  501    0  0.00000000000E+00  0.00000000000E+00  0.90264921729E+01  0.90269712499E+01  0.93000000000E-01 0. -1.
         -3   -1    0    0    0  501 -0.00000000000E+00 -0.00000000000E+00 -0.20615178800E+03  0.20615180898E+03  0.93000000000E-01 0.  1.
         23    2    1    2    0    0  0.00000000000E+00  0.00000000000E+00 -0.19712529583E+03  0.21517878023E+03  0.86275866875E+02 0.  0.
        -13    1    3    3    0    0 -0.29959882350E+02 -0.18654392163E+02 -0.16042832448E+03  0.16426454081E+03  0.10570000000E+00 0.  1.
         13    1    3    3    0    0  0.29959882350E+02  0.18654392163E+02 -0.36696971341E+02  0.50914239418E+02  0.10570000000E+00 0. -1.
<mgrwt>
<rscale>  0 0.86275867E+02</rscale>
<asrwt>0</asrwt>
<pdfrwt beam="1">  1        3 0.13887297E-02 0.86275867E+02</pdfrwt>
<pdfrwt beam="2">  1       -3 0.31715695E-01 0.86275867E+02</pdfrwt>
<totfact> 0.32161947E+04</totfact>
</mgrwt>
</event>
<event>
 5    1  0.1401471E+000  0.1172897E+03  0.7818608E-02  0.1247636E+00
          3   -1    0    0  501    0  0.00000000000E+00  0.00000000000E+00  0.26686865455E+03  0.26686867075E+03  0.93000000000E-01 0. -1.
         -3   -1    0    0    0  501 -0.00000000000E+00 -0.00000000000E+00 -0.12887124081E+02  0.12887459644E+02  0.93000000000E-01 0.  1.
         23    2    1    2    0    0  0.00000000000E+00  0.00000000000E+00  0.25398153047E+03  0.27975613040E+03  0.11728970405E+03 0.  0.
        -13    1    3    3    0    0  0.95335820636E+01  0.57854762479E+02  0.12443877809E+03  0.13756119872E+03  0.10570000000E+00 0. -1.
         13    1    3    3    0    0 -0.95335820636E+01 -0.57854762479E+02  0.12954275237E+03  0.14219493167E+03  0.10570000000E+00 0.  1.
<mgrwt>
<rscale>  0 0.11728970E+03</rscale>
<asrwt>0</asrwt>
<pdfrwt beam="1">  1        3 0.41056743E-01 0.11728970E+03</pdfrwt>
<pdfrwt beam="2">  1       -3 0.19826616E-02 0.11728970E+03</pdfrwt>
<totfact> 0.12493811E+04</totfact>
</mgrwt>
</event>
<event>
 5    1  0.1401471E+000  0.9181867E+02  0.7818608E-02  0.1298506E+00
         -3   -1    0    0    0  501 -0.00000000000E+00  0.00000000000E+00  0.32366581977E+03  0.32366583313E+03  0.93000000000E-01 0.  1.
          3   -1    0    0  501    0  0.00000000000E+00 -0.00000000000E+00 -0.65115163035E+01  0.65121804007E+01  0.93000000000E-01 0. -1.
         23    2    1    2    0    0  0.00000000000E+00  0.00000000000E+00  0.31715430347E+03  0.33017801354E+03  0.91818671372E+02 0.  0.
        -13    1    3    3    0    0  0.35998715786E+02  0.25794387594E+02  0.20208670861E+03  0.20688235047E+03  0.10570000000E+00 0.  1.
         13    1    3    3    0    0 -0.35998715786E+02 -0.25794387594E+02  0.11506759486E+03  0.12329566306E+03  0.10570000000E+00 0. -1.
<mgrwt>
<rscale>  0 0.91818671E+02</rscale>
<asrwt>0</asrwt>
<pdfrwt beam="2">  1        3 0.10018236E-02 0.91818671E+02</pdfrwt>
<pdfrwt beam="1">  1       -3 0.49794805E-01 0.91818671E+02</pdfrwt>
<totfact> 0.22471621E+04</totfact>
</mgrwt>
</event>
<event>
 5    1  0.1401471E+000  0.8722968E+02  0.7818608E-02  0.1309703E+00
         -3   -1    0    0    0  501 -0.00000000000E+00  0.00000000000E+00  0.13967562338E+02  0.13967871945E+02  0.93000000000E-01 0.  1.
          3   -1    0    0  501    0  0.00000000000E+00 -0.00000000000E+00 -0.13618900580E+03  0.13618903755E+03  0.93000000000E-01 0. -1.
         23    2    1    2    0    0  0.00000000000E+00  0.00000000000E+00 -0.12222144346E+03  0.15015690949E+03  0.87229675156E+02 0.  0.
        -13    1    3    3    0    0 -0.42173534869E+02 -0.71527867110E+01 -0.46456234259E+02  0.63150314925E+02  0.10570000000E+00 0.  1.
         13    1    3    3    0    0  0.42173534869E+02  0.71527867110E+01 -0.75765209199E+02  0.87006594570E+02  0.10570000000E+00 0. -1.
<mgrwt>
<rscale>  0 0.87229675E+02</rscale>
<asrwt>0</asrwt>
<pdfrwt beam="2">  1        3 0.20952180E-01 0.87229675E+02</pdfrwt>
<pdfrwt beam="1">  1       -3 0.21488821E-02 0.87229675E+02</pdfrwt>
<totfact> 0.35265390E+04</totfact>
</mgrwt>
</event>
<event>
 5    1  0.1401471E+000  0.9225398E+02  0.7818608E-02  0.1297483E+00
         -3   -1    0    0    0  501 -0.00000000000E+00  0.00000000000E+00  0.15113990807E+03  0.15113993668E+03  0.93000000000E-01 0.  1.
          3   -1    0    0  501    0  0.00000000000E+00 -0.00000000000E+00 -0.14077495505E+02  0.14077802695E+02  0.93000000000E-01 0. -1.
         23    2    1    2    0    0  0.00000000000E+00  0.00000000000E+00  0.13706241257E+03  0.16521773938E+03  0.92253978055E+02 0.  0.
        -13    1    3    3    0    0 -0.29657915864E+02 -0.17689148325E+02  0.13763884849E+02  0.37174637059E+02  0.10570000000E+00 0. -1.
         13    1    3    3    0    0  0.29657915864E+02  0.17689148325E+02  0.12329852772E+03  0.12804310232E+03  0.10570000000E+00 0.  1.
<mgrwt>
<rscale>  0 0.92253978E+02</rscale>
<asrwt>0</asrwt>
<pdfrwt beam="2">  1        3 0.21657943E-02 0.92253978E+02</pdfrwt>
<pdfrwt beam="1">  1       -3 0.23252320E-01 0.92253978E+02</pdfrwt>
<totfact> 0.29449034E+04</totfact>
</mgrwt>
</event>
<event>
 5    1  0.1401471E+000  0.9249958E+02  0.7818608E-02  0.1296909E+00
         -3   -1    0    0    0  501 -0.00000000000E+00  0.00000000000E+00  0.54774010641E+02  0.54774089593E+02  0.93000000000E-01 0.  1.
          3   -1    0    0  501    0  0.00000000000E+00 -0.00000000000E+00 -0.39051991667E+02  0.39052102404E+02  0.93000000000E-01 0. -1.
         23    2    1    2    0    0  0.00000000000E+00  0.00000000000E+00  0.15722018974E+02  0.93826191997E+02  0.92499580669E+02 0.  0.
        -13    1    3    3    0    0  0.44008420883E+02  0.12747259930E+02  0.14619524299E+01  0.45840835744E+02  0.10570000000E+00 0. -1.
         13    1    3    3    0    0 -0.44008420883E+02 -0.12747259930E+02  0.14260066544E+02  0.47985356252E+02  0.10570000000E+00 0.  1.
<mgrwt>
<rscale>  0 0.92499581E+02</rscale>
<asrwt>0</asrwt>
<pdfrwt beam="2">  1        3 0.60080133E-02 0.92499581E+02</pdfrwt>
<pdfrwt beam="1">  1       -3 0.84267855E-02 0.92499581E+02</pdfrwt>
<totfact> 0.33781740E+04</totfact>
</mgrwt>
</event>
<event>
 5    1  0.1401471E+000  0.9180935E+02  0.7818608E-02  0.1298528E+00
          3   -1    0    0  501    0  0.00000000000E+00  0.00000000000E+00  0.25051655857E+03  0.25051657583E+03  0.93000000000E-01 0. -1.
         -3   -1    0    0    0  501 -0.00000000000E+00 -0.00000000000E+00 -0.84113018799E+01  0.84118159939E+01  0.93000000000E-01 0.  1.
         23    2    1    2    0    0  0.00000000000E+00  0.00000000000E+00  0.24210525669E+03  0.25892839183E+03  0.91809350160E+02 0.  0.
        -13    1    3    3    0    0  0.45610468142E+02 -0.45020344006E+01  0.11378258316E+03  0.12266650122E+03  0.10570000000E+00 0. -1.
         13    1    3    3    0    0 -0.45610468142E+02  0.45020344006E+01  0.12832267353E+03  0.13626189061E+03  0.10570000000E+00 0.  1.
<mgrwt>
<rscale>  0 0.91809350E+02</rscale>
<asrwt>0</asrwt>
<pdfrwt beam="1">  1        3 0.38541050E-01 0.91809350E+02</pdfrwt>
<pdfrwt beam="2">  1       -3 0.12940873E-02 0.91809350E+02</pdfrwt>
<totfact> 0.25237944E+04</totfact>
</mgrwt>
</event>
<event>
 5    1  0.1401471E+000  0.9166942E+02  0.7818608E-02  0.1298859E+00
          3   -1    0    0  501    0  0.00000000000E+00  0.00000000000E+00  0.28237905589E+02  0.28238058734E+02  0.93000000000E-01 0. -1.
         -3   -1    0    0    0  501 -0.00000000000E+00 -0.00000000000E+00 -0.74396794101E+02  0.74396852228E+02  0.93000000000E-01 0.  1.
         23    2    1    2    0    0  0.00000000000E+00  0.00000000000E+00 -0.46158888512E+02  0.10263491096E+03  0.91669416708E+02 0.  0.
        -13    1    3    3    0    0 -0.66464580144E+01  0.20373299569E+02 -0.68442193089E+02  0.71718837880E+02  0.10570000000E+00 0.  1.
         13    1    3    3    0    0  0.66464580144E+01 -0.20373299569E+02  0.22283304577E+02  0.30916073082E+02  0.10570000000E+00 0. -1.
<mgrwt>
<rscale>  0 0.91669417E+02</rscale>
<asrwt>0</asrwt>
<pdfrwt beam="1">  1        3 0.43443095E-02 0.91669417E+02</pdfrwt>
<pdfrwt beam="2">  1       -3 0.11445677E-01 0.91669417E+02</pdfrwt>
<totfact> 0.33975549E+04</totfact>
</mgrwt>
</event>
<event>
 5    1  0.1401471E+000  0.9128262E+02  0.7818608E-02  0.1299775E+00
         -3   -1    0    0    0  501 -0.00000000000E+00  0.00000000000E+00  0.33912693663E+02  0.33912821181E+02  0.93000000000E-01 0.  1.
          3   -1    0    0  501    0  0.00000000000E+00 -0.00000000000E+00 -0.61425964244E+02  0.61426034646E+02  0.93000000000E-01 0. -1.
         23    2    1    2    0    0  0.00000000000E+00  0.00000000000E+00 -0.27513270581E+02  0.95338855828E+02  0.91282623606E+02 0.  0.
        -13    1    3    3    0    0  0.29462104086E+02  0.37581248134E+01 -0.49951715633E+02  0.58114749819E+02  0.10570000000E+00 0. -1.
         13    1    3    3    0    0 -0.29462104086E+02 -0.37581248134E+01  0.22438445052E+02  0.37224106009E+02  0.10570000000E+00 0.  1.
<mgrwt>
<rscale>  0 0.91282624E+02</rscale>
<asrwt>0</asrwt>
<pdfrwt beam="2">  1        3 0.94501635E-02 0.91282624E+02</pdfrwt>
<pdfrwt beam="1">  1       -3 0.52173527E-02 0.91282624E+02</pdfrwt>
<totfact> 0.34910019E+04</totfact>
</mgrwt>
</event>
<event>
 5    1  0.1401471E+000  0.8407741E+02  0.7818608E-02  0.1317863E+00
         -3   -1    0    0    0  501 -0.00000000000E+00  0.00000000000E+00  0.12388458619E+02  0.12388807689E+02  0.93000000000E-01 0.  1.
          3   -1    0    0  501    0  0.00000000000E+00 -0.00000000000E+00 -0.14265078404E+03  0.14265081436E+03  0.93000000000E-01 0. -1.
         23    2    1    2    0    0  0.00000000000E+00  0.00000000000E+00 -0.13026232542E+03  0.15503962205E+03  0.84077410639E+02 0.  0.
        -13    1    3    3    0    0 -0.73712721745E+00 -0.34977065288E+02 -0.10811295017E+03  0.11363256409E+03  0.10570000000E+00 0. -1.
         13    1    3    3    0    0  0.73712721745E+00  0.34977065288E+02 -0.22149375250E+02  0.41407057963E+02  0.10570000000E+00 0.  1.
<mgrwt>
<rscale>  0 0.84077411E+02</rscale>
<asrwt>0</asrwt>
<pdfrwt beam="2">  1        3 0.21946302E-01 0.84077411E+02</pdfrwt>
<pdfrwt beam="1">  1       -3 0.19059460E-02 0.84077411E+02</pdfrwt>
<totfact> 0.38557027E+04</totfact>
</mgrwt>
</event>
<event>
 5    1  0.1401471E+000  0.1062835E+03  0.7818608E-02  0.1267611E+00
         -3   -1    0    0    0  501 -0.00000000000E+00  0.00000000000E+00  0.14523532788E+02  0.14523830543E+02  0.93000000000E-01 0.  1.
          3   -1    0    0  501    0  0.00000000000E+00 -0.00000000000E+00 -0.19444394986E+03  0.19444397210E+03  0.93000000000E-01 0. -1.
         23    2    1    2    0    0  0.00000000000E+00  0.00000000000E+00 -0.17992041708E+03  0.20896780265E+03  0.10628351736E+03 0.  0.
        -13    1    3    3    0    0 -0.39405420852E+02 -0.31558636320E+02 -0.57337722384E+02  0.76396075158E+02  0.10570000000E+00 0.  1.
         13    1    3    3    0    0  0.39405420852E+02  0.31558636320E+02 -0.12258269469E+03  0.13257172749E+03  0.10570000000E+00 0. -1.
<mgrwt>
<rscale>  0 0.10628352E+03</rscale>
<asrwt>0</asrwt>
<pdfrwt beam="2">  1        3 0.29914477E-01 0.10628352E+03</pdfrwt>
<pdfrwt beam="1">  1       -3 0.22344144E-02 0.10628352E+03</pdfrwt>
<totfact> 0.18472384E+04</totfact>
</mgrwt>
</event>
<event>
 5    1  0.1401471E+000  0.9436792E+02  0.7818608E-02  0.1292606E+00
          3   -1    0    0  501    0  0.00000000000E+00  0.00000000000E+00  0.17202639103E+03  0.17202641617E+03  0.93000000000E-01 0. -1.
         -3   -1    0    0    0  501 -0.00000000000E+00 -0.00000000000E+00 -0.12941577639E+02  0.12941911790E+02  0.93000000000E-01 0.  1.
         23    2    1    2    0    0  0.00000000000E+00  0.00000000000E+00  0.15908481339E+03  0.18496832796E+03  0.94367920907E+02 0.  0.
        -13    1    3    3    0    0 -0.42249003641E+02 -0.20689591625E+02  0.72400236762E+02  0.86341432499E+02  0.10570000000E+00 0.  1.
         13    1    3    3    0    0  0.42249003641E+02  0.20689591625E+02  0.86684576629E+02  0.98626895460E+02  0.10570000000E+00 0. -1.
<mgrwt>
<rscale>  0 0.94367921E+02</rscale>
<asrwt>0</asrwt>
<pdfrwt beam="1">  1        3 0.26465624E-01 0.94367921E+02</pdfrwt>
<pdfrwt beam="2">  1       -3 0.19910398E-02 0.94367921E+02</pdfrwt>
<totfact> 0.26687308E+04</totfact>
</mgrwt>
</event>
<event>
 5    1  0.1401471E+000  0.9963964E+02  0.7818608E-02  0.1281056E+00
          3   -1    0    0  501    0  0.00000000000E+00  0.00000000000E+00  0.37897569244E+03  0.37897570385E+03  0.93000000000E-01 0. -1.
         -3   -1    0    0    0  501 -0.00000000000E+00 -0.00000000000E+00 -0.65489291617E+01  0.65495894654E+01  0.93000000000E-01 0.  1.
         23    2    1    2    0    0  0.00000000000E+00  0.00000000000E+00  0.37242676328E+03  0.38552529331E+03  0.99639639605E+02 0.  0.
        -13    1    3    3    0    0  0.34927966393E+02  0.29544323421E+02  0.26254286044E+03  0.26649877040E+03  0.10570000000E+00 0. -1.
         13    1    3    3    0    0 -0.34927966393E+02 -0.29544323421E+02  0.10988390284E+03  0.11902652292E+03  0.10570000000E+00 0.  1.
<mgrwt>
<rscale>  0 0.99639640E+02</rscale>
<asrwt>0</asrwt>
<pdfrwt beam="1">  1        3 0.58304020E-01 0.99639640E+02</pdfrwt>
<pdfrwt beam="2">  1       -3 0.10075790E-02 0.99639640E+02</pdfrwt>
<totfact> 0.16583712E+04</totfact>
</mgrwt>
</event>
<event>
 5    1  0.1401471E+000  0.9043418E+02  0.7818608E-02  0.1301804E+00
         -3   -1    0    0    0  501 -0.00000000000E+00  0.00000000000E+00  0.67694857491E+02  0.67694921373E+02  0.93000000000E-01 0.  1.
          3   -1    0    0  501    0  0.00000000000E+00 -0.00000000000E+00 -0.30202811973E+02  0.30202955155E+02  0.93000000000E-01 0. -1.
         23    2    1    2    0    0  0.00000000000E+00  0.00000000000E+00  0.37492045518E+02  0.97897876529E+02  0.90434179112E+02 0.  0.
        -13    1    3    3    0    0  0.12462604276E+02  0.39608449717E+02  0.38123893310E+02  0.56370100301E+02  0.10570000000E+00 0.  1.
         13    1    3    3    0    0 -0.12462604276E+02 -0.39608449717E+02 -0.63184779166E+00  0.41527776228E+02  0.10570000000E+00 0. -1.
<mgrwt>
<rscale>  0 0.90434179E+02</rscale>
<asrwt>0</asrwt>
<pdfrwt beam="2">  1        3 0.46466024E-02 0.90434179E+02</pdfrwt>
<pdfrwt beam="1">  1       -3 0.10414609E-01 0.90434179E+02</pdfrwt>
<totfact> 0.35611811E+04</totfact>
</mgrwt>
</event>
<event>
 5    1  0.1401471E+000  0.9410868E+02  0.7818608E-02  0.1293196E+00
         -3   -1    0    0    0  501 -0.00000000000E+00  0.00000000000E+00  0.15770574824E+03  0.15770577566E+03  0.93000000000E-01 0.  1.
          3   -1    0    0  501    0  0.00000000000E+00 -0.00000000000E+00 -0.14039323017E+02  0.14039631041E+02  0.93000000000E-01 0. -1.
         23    2    1    2    0    0  0.00000000000E+00  0.00000000000E+00  0.14366642522E+03  0.17174540670E+03  0.94108676469E+02 0.  0.
        -13    1    3    3    0    0 -0.32371893597E+02  0.98233585769E+00  0.13412844196E+03  0.13798316780E+03  0.10570000000E+00 0.  1.
         13    1    3    3    0    0  0.32371893597E+02 -0.98233585769E+00  0.95379832589E+01  0.33762238906E+02  0.10570000000E+00 0. -1.
<mgrwt>
<rscale>  0 0.94108676E+02</rscale>
<asrwt>0</asrwt>
<pdfrwt beam="2">  1        3 0.21599218E-02 0.94108676E+02</pdfrwt>
<pdfrwt beam="1">  1       -3 0.24262447E-01 0.94108676E+02</pdfrwt>
<totfact> 0.27557323E+04</totfact>
</mgrwt>
</event>
<event>
 5    1  0.1401471E+000  0.9155284E+02  0.7818608E-02  0.1299134E+00
          3   -1    0    0  501    0  0.00000000000E+00  0.00000000000E+00  0.90411528596E+02  0.90411576427E+02  0.93000000000E-01 0. -1.
         -3   -1    0    0    0  501 -0.00000000000E+00 -0.00000000000E+00 -0.23176993611E+02  0.23177180196E+02  0.93000000000E-01 0.  1.
         23    2    1    2    0    0  0.00000000000E+00  0.00000000000E+00  0.67234534985E+02  0.11358875662E+03  0.91552842318E+02 0.  0.
        -13    1    3    3    0    0 -0.19713876384E+01 -0.20856932265E+02 -0.16880085736E+02  0.26904394802E+02  0.10570000000E+00 0.  1.
         13    1    3    3    0    0  0.19713876384E+01  0.20856932265E+02  0.84114620721E+02  0.86684361821E+02  0.10570000000E+00 0. -1.
<mgrwt>
<rscale>  0 0.91552842E+02</rscale>
<asrwt>0</asrwt>
<pdfrwt beam="1">  1        3 0.13909484E-01 0.91552842E+02</pdfrwt>
<pdfrwt beam="2">  1       -3 0.35657094E-02 0.91552842E+02</pdfrwt>
<totfact> 0.33315280E+04</totfact>
</mgrwt>
</event>
<event>
 5    1  0.1401471E+000  0.9258415E+02  0.7818608E-02  0.1296712E+00
          3   -1    0    0  501    0  0.00000000000E+00  0.00000000000E+00  0.18751485991E+03  0.18751488297E+03  0.93000000000E-01 0. -1.
         -3   -1    0    0    0  501 -0.00000000000E+00 -0.00000000000E+00 -0.11427980095E+02  0.11428358502E+02  0.93000000000E-01 0.  1.
         23    2    1    2    0    0  0.00000000000E+00  0.00000000000E+00  0.17608687981E+03  0.19894324147E+03  0.92584145970E+02 0.  0.
        -13    1    3    3    0    0 -0.98419611757E+01  0.42759703595E+02  0.11974715862E+03  0.12753293544E+03  0.10570000000E+00 0. -1.
         13    1    3    3    0    0  0.98419611757E+01 -0.42759703595E+02  0.56339721195E+02  0.71410306036E+02  0.10570000000E+00 0.  1.
<mgrwt>
<rscale>  0 0.92584146E+02</rscale>
<asrwt>0</asrwt>
<pdfrwt beam="1">  1        3 0.28848468E-01 0.92584146E+02</pdfrwt>
<pdfrwt beam="2">  1       -3 0.17581818E-02 0.92584146E+02</pdfrwt>
<totfact> 0.27394664E+04</totfact>
</mgrwt>
</event>
<event>
 5    1  0.1401471E+000  0.9230060E+02  0.7818608E-02  0.1297374E+00
         -3   -1    0    0    0  501 -0.00000000000E+00  0.00000000000E+00  0.99176930946E+02  0.99176974549E+02  0.93000000000E-01 0.  1.
          3   -1    0    0  501    0  0.00000000000E+00 -0.00000000000E+00 -0.21475111072E+02  0.21475312444E+02  0.93000000000E-01 0. -1.
         23    2    1    2    0    0  0.00000000000E+00  0.00000000000E+00  0.77701819874E+02  0.12065228699E+03  0.92300604250E+02 0.  0.
        -13    1    3    3    0    0  0.21884903766E+02 -0.37824606155E+02  0.58247669789E+02  0.72817937707E+02  0.10570000000E+00 0.  1.
         13    1    3    3    0    0 -0.21884903766E+02  0.37824606155E+02  0.19454150085E+02  0.47834349286E+02  0.10570000000E+00 0. -1.
<mgrwt>
<rscale>  0 0.92300604E+02</rscale>
<asrwt>0</asrwt>
<pdfrwt beam="2">  1        3 0.33038820E-02 0.92300604E+02</pdfrwt>
<pdfrwt beam="1">  1       -3 0.15258008E-01 0.92300604E+02</pdfrwt>
<totfact> 0.32114523E+04</totfact>
</mgrwt>
</event>
<event>
 5    1  0.1401471E+000  0.9079058E+02  0.7818608E-02  0.1300948E+00
          3   -1    0    0  501    0  0.00000000000E+00  0.00000000000E+00  0.90944562697E+01  0.90949317667E+01  0.93000000000E-01 0. -1.
         -3   -1    0    0    0  501 -0.00000000000E+00 -0.00000000000E+00 -0.22658574677E+03  0.22658576585E+03  0.93000000000E-01 0.  1.
         23    2    1    2    0    0  0.00000000000E+00  0.00000000000E+00 -0.21749129050E+03  0.23568069762E+03  0.90790582045E+02 0.  0.
        -13    1    3    3    0    0 -0.33173515932E+02 -0.28041668149E+01 -0.18885576522E+03  0.19176771559E+03  0.10570000000E+00 0.  1.
         13    1    3    3    0    0  0.33173515932E+02  0.28041668149E+01 -0.28635525277E+02  0.43912982035E+02  0.10570000000E+00 0. -1.
<mgrwt>
<rscale>  0 0.90790582E+02</rscale>
<asrwt>0</asrwt>
<pdfrwt beam="1">  1        3 0.13991853E-02 0.90790582E+02</pdfrwt>
<pdfrwt beam="2">  1       -3 0.34859380E-01 0.90790582E+02</pdfrwt>
<totfact> 0.27057108E+04</totfact>
</mgrwt>
</event>
<event>
 5    1  0.1401471E+000  0.8992565E+02  0.7818608E-02  0.1303032E+00
         -3   -1    0    0    0  501 -0.00000000000E+00  0.00000000000E+00  0.23703574039E+02  0.23703756479E+02  0.93000000000E-01 0.  1.
          3   -1    0    0  501    0  0.00000000000E+00 -0.00000000000E+00 -0.85288522012E+02  0.85288572716E+02  0.93000000000E-01 0. -1.
         23    2    1    2    0    0  0.00000000000E+00  0.00000000000E+00 -0.61584947973E+02  0.10899232919E+03  0.89925647101E+02 0.  0.
        -13    1    3    3    0    0  0.28604917737E+02 -0.81306080073E+01  0.10081716126E+02  0.31400641361E+02  0.10570000000E+00 0.  1.
         13    1    3    3    0    0 -0.28604917737E+02  0.81306080073E+01 -0.71666664099E+02  0.77591687834E+02  0.10570000000E+00 0. -1.
<mgrwt>
<rscale>  0 0.89925647E+02</rscale>
<asrwt>0</asrwt>
<pdfrwt beam="2">  1        3 0.13121329E-01 0.89925647E+02</pdfrwt>
<pdfrwt beam="1">  1       -3 0.36467217E-02 0.89925647E+02</pdfrwt>
<totfact> 0.35315998E+04</totfact>
</mgrwt>
</event>
<event>
 5    1  0.1401471E+000  0.8955542E+02  0.7818608E-02  0.1303932E+00
          3   -1    0    0  501    0  0.00000000000E+00  0.00000000000E+00  0.37592007571E+02  0.37592122609E+02  0.93000000000E-01 0. -1.
         -3   -1    0    0    0  501 -0.00000000000E+00 -0.00000000000E+00 -0.53336718910E+02  0.53336799989E+02  0.93000000000E-01 0.  1.
         23    2    1    2    0    0  0.00000000000E+00  0.00000000000E+00 -0.15744711338E+02  0.90928922598E+02  0.89555418762E+02 0.  0.
        -13    1    3    3    0    0 -0.20688493833E+02 -0.93455917548E+01  0.31315943125E+02  0.38678848595E+02  0.10570000000E+00 0. -1.
         13    1    3    3    0    0  0.20688493833E+02  0.93455917548E+01 -0.47060654463E+02  0.52250074003E+02  0.10570000000E+00 0.  1.
<mgrwt>
<rscale>  0 0.89555419E+02</rscale>
<asrwt>0</asrwt>
<pdfrwt beam="1">  1        3 0.57834009E-02 0.89555419E+02</pdfrwt>
<pdfrwt beam="2">  1       -3 0.82056641E-02 0.89555419E+02</pdfrwt>
<totfact> 0.37125480E+04</totfact>
</mgrwt>
</event>
<event>
 5    1  0.1401471E+000  0.8980619E+02  0.7818608E-02  0.1303322E+00
          3   -1    0    0  501    0  0.00000000000E+00  0.00000000000E+00  0.84603418865E+02  0.84603469980E+02  0.93000000000E-01 0. -1.
         -3   -1    0    0    0  501 -0.00000000000E+00 -0.00000000000E+00 -0.23832079657E+02  0.23832261114E+02  0.93000000000E-01 0.  1.
         23    2    1    2    0    0  0.00000000000E+00  0.00000000000E+00  0.60771339208E+02  0.10843573109E+03  0.89806191929E+02 0.  0.
        -13    1    3    3    0    0 -0.18599101179E+02 -0.14803492514E+02  0.76382806298E+02  0.79996338827E+02  0.10570000000E+00 0. -1.
         13    1    3    3    0    0  0.18599101179E+02  0.14803492514E+02 -0.15611467090E+02  0.28439392267E+02  0.10570000000E+00 0.  1.
<mgrwt>
<rscale>  0 0.89806192E+02</rscale>
<asrwt>0</asrwt>
<pdfrwt beam="1">  1        3 0.13015928E-01 0.89806192E+02</pdfrwt>
<pdfrwt beam="2">  1       -3 0.36664917E-02 0.89806192E+02</pdfrwt>
<totfact> 0.35485093E+04</totfact>
</mgrwt>
</event>
<event>
 5    1  0.1401471E+000  0.9064544E+02  0.7818608E-02  0.1301296E+00
          3   -1    0    0  501    0  0.00000000000E+00  0.00000000000E+00  0.48144989194E+02  0.48145079017E+02  0.93000000000E-01 0.  1.
         -3   -1    0    0    0  501 -0.00000000000E+00 -0.00000000000E+00 -0.42665713017E+02  0.42665814375E+02  0.93000000000E-01 0. -1.
         23    2    1    2    0    0  0.00000000000E+00  0.00000000000E+00  0.54792761771E+01  0.90810893392E+02  0.90645440543E+02 0.  0.
        -13    1    3    3    0    0 -0.21391615101E+02  0.24146029281E+02 -0.29154077655E+02  0.43481068790E+02  0.10570000000E+00 0. -1.
         13    1    3    3    0    0  0.21391615101E+02 -0.24146029281E+02  0.34633353833E+02  0.47329824602E+02  0.10570000000E+00 0.  1.
<mgrwt>
<rscale>  0 0.90645441E+02</rscale>
<asrwt>0</asrwt>
<pdfrwt beam="1">  1        3 0.74069361E-02 0.90645441E+02</pdfrwt>
<pdfrwt beam="2">  1       -3 0.65639706E-02 0.90645441E+02</pdfrwt>
<totfact> 0.35933950E+04</totfact>
</mgrwt>
</event>
<event>
 5    1  0.1401471E+000  0.9126698E+02  0.7818608E-02  0.1299812E+00
          3   -1    0    0  501    0  0.00000000000E+00  0.00000000000E+00  0.27889789061E+02  0.27889944117E+02  0.93000000000E-01 0. -1.
         -3   -1    0    0    0  501 -0.00000000000E+00 -0.00000000000E+00 -0.74665479657E+02  0.74665537576E+02  0.93000000000E-01 0.  1.
         23    2    1    2    0    0  0.00000000000E+00  0.00000000000E+00 -0.46775690597E+02  0.10255548169E+03  0.91266979759E+02 0.  0.
        -13    1    3    3    0    0  0.18910010763E+02  0.23323584952E+01 -0.69981910992E+02  0.72529355724E+02  0.10570000000E+00 0.  1.
         13    1    3    3    0    0 -0.18910010763E+02 -0.23323584952E+01  0.23206220395E+02  0.30026125969E+02  0.10570000000E+00 0. -1.
<mgrwt>
<rscale>  0 0.91266980E+02</rscale>
<asrwt>0</asrwt>
<pdfrwt beam="1">  1        3 0.42907532E-02 0.91266980E+02</pdfrwt>
<pdfrwt beam="2">  1       -3 0.11487013E-01 0.91266980E+02</pdfrwt>
<totfact> 0.34391464E+04</totfact>
</mgrwt>
</event>
<event>
 4    1  0.1401471E+000  0.4242037E+02  0.7818608E-02  0.1491120E+00
          3   -1    0    0  501    0  0.00000000000E+00  0.00000000000E+00  0.40937000735E+02  0.40937106373E+02  0.93000000000E-01 0. -1.
         -3   -1    0    0    0  501 -0.00000000000E+00 -0.00000000000E+00 -0.10989057709E+02  0.10989451230E+02  0.93000000000E-01 0.  1.
        -13    1    1    2    0    0  0.13499139861E+02 -0.84764374658E+01  0.32101856307E+02  0.35841555769E+02  0.10570000000E+00 0. -1.
         13    1    1    2    0    0 -0.13499139861E+02  0.84764374658E+01 -0.21539132803E+01  0.16085001834E+02  0.10570000000E+00 0.  1.
<mgrwt>
<rscale>  0 0.42420374E+02</rscale>
<asrwt>0</asrwt>
<pdfrwt beam="1">  1        3 0.62980385E-02 0.42420374E+02</pdfrwt>
<pdfrwt beam="2">  1       -3 0.16906627E-02 0.42420374E+02</pdfrwt>
<totfact> 0.28342173E+05</totfact>
</mgrwt>
</event>
<event>
 5    1  0.1401471E+000  0.9046612E+02  0.7818608E-02  0.1301727E+00
          3   -1    0    0  501    0  0.00000000000E+00  0.00000000000E+00  0.13220743089E+02  0.13221070185E+02  0.93000000000E-01 0. -1.
         -3   -1    0    0    0  501 -0.00000000000E+00 -0.00000000000E+00 -0.15475679978E+03  0.15475682773E+03  0.93000000000E-01 0.  1.
         23    2    1    2    0    0  0.00000000000E+00  0.00000000000E+00 -0.14153605669E+03  0.16797789791E+03  0.90466119860E+02 0.  0.
        -13    1    3    3    0    0  0.29354624680E+02 -0.13351958953E+02 -0.12966268648E+03  0.13361284458E+03  0.10570000000E+00 0.  1.
         13    1    3    3    0    0 -0.29354624680E+02  0.13351958953E+02 -0.11873370211E+02  0.34365053334E+02  0.10570000000E+00 0. -1.
<mgrwt>
<rscale>  0 0.90466120E+02</rscale>
<asrwt>0</asrwt>
<pdfrwt beam="1">  1        3 0.20339879E-02 0.90466120E+02</pdfrwt>
<pdfrwt beam="2">  1       -3 0.23808765E-01 0.90466120E+02</pdfrwt>
<totfact> 0.30888402E+04</totfact>
</mgrwt>
</event>
<event>
 5    1  0.1401471E+000  0.9278986E+02  0.7818608E-02  0.1296233E+00
         -3   -1    0    0    0  501 -0.00000000000E+00  0.00000000000E+00  0.27392869028E+02  0.27393026897E+02  0.93000000000E-01 0.  1.
          3   -1    0    0  501    0  0.00000000000E+00 -0.00000000000E+00 -0.78578056059E+02  0.78578111093E+02  0.93000000000E-01 0. -1.
         23    2    1    2    0    0  0.00000000000E+00  0.00000000000E+00 -0.51185187031E+02  0.10597113799E+03  0.92789863215E+02 0.  0.
        -13    1    3    3    0    0  0.22403386883E+02 -0.36021015311E+01 -0.71808328926E+02  0.75308260868E+02  0.10570000000E+00 0. -1.
         13    1    3    3    0    0 -0.22403386883E+02  0.36021015311E+01  0.20623141896E+02  0.30662877122E+02  0.10570000000E+00 0.  1.
<mgrwt>
<rscale>  0 0.92789863E+02</rscale>
<asrwt>0</asrwt>
<pdfrwt beam="2">  1        3 0.12088948E-01 0.92789863E+02</pdfrwt>
<pdfrwt beam="1">  1       -3 0.42143039E-02 0.92789863E+02</pdfrwt>
<totfact> 0.32635489E+04</totfact>
</mgrwt>
</event>
<event>
 5    1  0.1401471E+000  0.8112179E+02  0.7818608E-02  0.1325898E+00
          3   -1    0    0  501    0  0.00000000000E+00  0.00000000000E+00  0.14158585025E+03  0.14158588079E+03  0.93000000000E-01 0. -1.
         -3   -1    0    0    0  501 -0.00000000000E+00 -0.00000000000E+00 -0.11619489949E+02  0.11619862119E+02  0.93000000000E-01 0.  1.
         23    2    1    2    0    0  0.00000000000E+00  0.00000000000E+00  0.12996636030E+03  0.15320574291E+03  0.81121790238E+02 0.  0.
        -13    1    3    3    0    0  0.26896430106E+02 -0.25277082876E+01  0.12212253457E+03  0.12507490510E+03  0.10570000000E+00 0. -1.
         13    1    3    3    0    0 -0.26896430106E+02  0.25277082876E+01  0.78438257252E+01  0.28130837814E+02  0.10570000000E+00 0.  1.
<mgrwt>
<rscale>  0 0.81121790E+02</rscale>
<asrwt>0</asrwt>
<pdfrwt beam="1">  1        3 0.21782469E-01 0.81121790E+02</pdfrwt>
<pdfrwt beam="2">  1       -3 0.17876448E-02 0.81121790E+02</pdfrwt>
<totfact> 0.42580826E+04</totfact>
</mgrwt>
</event>
<event>
 5    1  0.1401471E+000  0.9226484E+02  0.7818608E-02  0.1297458E+00
          3   -1    0    0  501    0  0.00000000000E+00  0.00000000000E+00  0.54235562886E+02  0.54235642621E+02  0.93000000000E-01 0. -1.
         -3   -1    0    0    0  501 -0.00000000000E+00 -0.00000000000E+00 -0.39239777861E+02  0.39239888068E+02  0.93000000000E-01 0.  1.
         23    2    1    2    0    0  0.00000000000E+00  0.00000000000E+00  0.14995785025E+02  0.93475530689E+02  0.92264843083E+02 0.  0.
        -13    1    3    3    0    0  0.14020108644E+01  0.27570409794E+02 -0.29947837708E+02  0.40730544884E+02  0.10570000000E+00 0.  1.
         13    1    3    3    0    0 -0.14020108644E+01 -0.27570409794E+02  0.44943622733E+02  0.52744985805E+02  0.10570000000E+00 0. -1.
<mgrwt>
<rscale>  0 0.92264843E+02</rscale>
<asrwt>0</asrwt>
<pdfrwt beam="1">  1        3 0.83439474E-02 0.92264843E+02</pdfrwt>
<pdfrwt beam="2">  1       -3 0.60369035E-02 0.92264843E+02</pdfrwt>
<totfact> 0.34042348E+04</totfact>
</mgrwt>
</event>
<event>
 5    1  0.1401471E+000  0.9082551E+02  0.7818608E-02  0.1300865E+00
         -3   -1    0    0    0  501 -0.00000000000E+00  0.00000000000E+00  0.20060127116E+03  0.20060129272E+03  0.93000000000E-01 0.  1.
          3   -1    0    0  501    0  0.00000000000E+00 -0.00000000000E+00 -0.10280452535E+02  0.10280873179E+02  0.93000000000E-01 0. -1.
         23    2    1    2    0    0  0.00000000000E+00  0.00000000000E+00  0.19032081863E+03  0.21088216590E+03  0.90825513437E+02 0.  0.
        -13    1    3    3    0    0  0.15895783073E+02  0.42196579574E+02  0.82639681076E+02  0.94141145670E+02  0.10570000000E+00 0. -1.
         13    1    3    3    0    0 -0.15895783073E+02 -0.42196579574E+02  0.10768113755E+03  0.11674102023E+03  0.10570000000E+00 0.  1.
<mgrwt>
<rscale>  0 0.90825513E+02</rscale>
<asrwt>0</asrwt>
<pdfrwt beam="2">  1        3 0.15816421E-02 0.90825513E+02</pdfrwt>
<pdfrwt beam="1">  1       -3 0.30861768E-01 0.90825513E+02</pdfrwt>
<totfact> 0.28235931E+04</totfact>
</mgrwt>
</event>
<event>
 5    1  0.1401471E+000  0.8003688E+02  0.7818608E-02  0.1328947E+00
          3   -1    0    0  501    0  0.00000000000E+00  0.00000000000E+00  0.23125554664E+02  0.23125741664E+02  0.93000000000E-01 0. -1.
         -3   -1    0    0    0  501 -0.00000000000E+00 -0.00000000000E+00 -0.69250836915E+02  0.69250899362E+02  0.93000000000E-01 0.  1.
         23    2    1    2    0    0  0.00000000000E+00  0.00000000000E+00 -0.46125282251E+02  0.92376641026E+02  0.80036879903E+02 0.  0.
        -13    1    3    3    0    0 -0.33694876533E+02 -0.14798895100E+02 -0.49192169872E+01  0.37128989603E+02  0.10570000000E+00 0. -1.
         13    1    3    3    0    0  0.33694876533E+02  0.14798895100E+02 -0.41206065264E+02  0.55247651423E+02  0.10570000000E+00 0.  1.
<mgrwt>
<rscale>  0 0.80036880E+02</rscale>
<asrwt>0</asrwt>
<pdfrwt beam="1">  1        3 0.35577968E-02 0.80036880E+02</pdfrwt>
<pdfrwt beam="2">  1       -3 0.10653994E-01 0.80036880E+02</pdfrwt>
<totfact> 0.50110870E+04</totfact>
</mgrwt>
</event>
<event>
 5    1  0.1401471E+000  0.9081336E+02  0.7818608E-02  0.1300894E+00
          3   -1    0    0  501    0  0.00000000000E+00  0.00000000000E+00  0.25385151477E+02  0.25385321832E+02  0.93000000000E-01 0. -1.
         -3   -1    0    0    0  501 -0.00000000000E+00 -0.00000000000E+00 -0.81218919196E+02  0.81218972441E+02  0.93000000000E-01 0.  1.
         23    2    1    2    0    0  0.00000000000E+00  0.00000000000E+00 -0.55833767719E+02  0.10660429427E+03  0.90813357716E+02 0.  0.
        -13    1    3    3    0    0  0.70377033769E+01 -0.39603143785E+02 -0.52647045509E+02  0.66254515618E+02  0.10570000000E+00 0.  1.
         13    1    3    3    0    0 -0.70377033769E+01  0.39603143785E+02 -0.31867222103E+01  0.40349778654E+02  0.10570000000E+00 0. -1.
<mgrwt>
<rscale>  0 0.90813358E+02</rscale>
<asrwt>0</asrwt>
<pdfrwt beam="1">  1        3 0.39054252E-02 0.90813358E+02</pdfrwt>
<pdfrwt beam="2">  1       -3 0.12495235E-01 0.90813358E+02</pdfrwt>
<totfact> 0.34563014E+04</totfact>
</mgrwt>
</event>
<event>
 5    1  0.1401471E+000  0.9081029E+02  0.7818608E-02  0.1300901E+00
         -3   -1    0    0    0  501 -0.00000000000E+00  0.00000000000E+00  0.21107768063E+03  0.21107770112E+03  0.93000000000E-01 0.  1.
          3   -1    0    0  501    0  0.00000000000E+00 -0.00000000000E+00 -0.97669068429E+01  0.97673496035E+01  0.93000000000E-01 0. -1.
         23    2    1    2    0    0  0.00000000000E+00  0.00000000000E+00  0.20131077379E+03  0.22084505072E+03  0.90810290084E+02 0.  0.
        -13    1    3    3    0    0  0.36870381840E+02 -0.13020415466E+02  0.15678312585E+03  0.16158563054E+03  0.10570000000E+00 0.  1.
         13    1    3    3    0    0 -0.36870381840E+02  0.13020415466E+02  0.44527647940E+02  0.59259420176E+02  0.10570000000E+00 0. -1.
<mgrwt>
<rscale>  0 0.90810290E+02</rscale>
<asrwt>0</asrwt>
<pdfrwt beam="2">  1        3 0.15026367E-02 0.90810290E+02</pdfrwt>
<pdfrwt beam="1">  1       -3 0.32473524E-01 0.90810290E+02</pdfrwt>
<totfact> 0.27752596E+04</totfact>
</mgrwt>
</event>
<event>
 5    1  0.1401471E+000  0.9082708E+02  0.7818608E-02  0.1300861E+00
         -3   -1    0    0    0  501 -0.00000000000E+00  0.00000000000E+00  0.27202737535E+02  0.27202896508E+02  0.93000000000E-01 0.  1.
          3   -1    0    0  501    0  0.00000000000E+00 -0.00000000000E+00 -0.75815107158E+02  0.75815164198E+02  0.93000000000E-01 0. -1.
         23    2    1    2    0    0  0.00000000000E+00  0.00000000000E+00 -0.48612369623E+02  0.10301806071E+03  0.90827079394E+02 0.  0.
        -13    1    3    3    0    0 -0.12962634295E+02 -0.22825149834E+02 -0.66339184619E+02  0.71343646817E+02  0.10570000000E+00 0. -1.
         13    1    3    3    0    0  0.12962634295E+02  0.22825149834E+02  0.17726814996E+02  0.31674413889E+02  0.10570000000E+00 0.  1.
<mgrwt>
<rscale>  0 0.90827079E+02</rscale>
<asrwt>0</asrwt>
<pdfrwt beam="2">  1        3 0.11663879E-01 0.90827079E+02</pdfrwt>
<pdfrwt beam="1">  1       -3 0.41850532E-02 0.90827079E+02</pdfrwt>
<totfact> 0.34810806E+04</totfact>
</mgrwt>
</event>
<event>
 5    1  0.1401471E+000  0.9119034E+02  0.7818608E-02  0.1299994E+00
          3   -1    0    0  501    0  0.00000000000E+00  0.00000000000E+00  0.78850260078E+02  0.78850314922E+02  0.93000000000E-01 0. -1.
         -3   -1    0    0    0  501 -0.00000000000E+00 -0.00000000000E+00 -0.26365266823E+02  0.26365430845E+02  0.93000000000E-01 0.  1.
         23    2    1    2    0    0  0.00000000000E+00  0.00000000000E+00  0.52484993255E+02  0.10521574577E+03  0.91190342912E+02 0.  0.
        -13    1    3    3    0    0  0.55378421605E+00 -0.17165730483E+02 -0.22490369105E+02  0.28298354279E+02  0.10570000000E+00 0.  1.
         13    1    3    3    0    0 -0.55378421605E+00  0.17165730483E+02  0.74975362359E+02  0.76917391488E+02  0.10570000000E+00 0. -1.
<mgrwt>
<rscale>  0 0.91190343E+02</rscale>
<asrwt>0</asrwt>
<pdfrwt beam="1">  1        3 0.12130826E-01 0.91190343E+02</pdfrwt>
<pdfrwt beam="2">  1       -3 0.40562118E-02 0.91190343E+02</pdfrwt>
<totfact> 0.34274825E+04</totfact>
</mgrwt>
</event>
<event>
 5    1  0.1401471E+000  0.9121151E+02  0.7818608E-02  0.1299944E+00
          3   -1    0    0  501    0  0.00000000000E+00  0.00000000000E+00  0.31869186884E+02  0.31869322579E+02  0.93000000000E-01 0. -1.
         -3   -1    0    0    0  501 -0.00000000000E+00 -0.00000000000E+00 -0.65262888893E+02  0.65262955156E+02  0.93000000000E-01 0.  1.
         23    2    1    2    0    0  0.00000000000E+00  0.00000000000E+00 -0.33393702009E+02  0.97132277735E+02  0.91211512673E+02 0.  0.
        -13    1    3    3    0    0 -0.12512996415E+02  0.15028366235E+02  0.27177633024E+02  0.33482260680E+02  0.10570000000E+00 0. -1.
         13    1    3    3    0    0  0.12512996415E+02 -0.15028366235E+02 -0.60571335032E+02  0.63650017055E+02  0.10570000000E+00 0.  1.
<mgrwt>
<rscale>  0 0.91211513E+02</rscale>
<asrwt>0</asrwt>
<pdfrwt beam="1">  1        3 0.49029674E-02 0.91211513E+02</pdfrwt>
<pdfrwt beam="2">  1       -3 0.10040460E-01 0.91211513E+02</pdfrwt>
<totfact> 0.34850051E+04</totfact>
</mgrwt>
</event>
<event>
 5    1  0.1401471E+000  0.8906280E+02  0.7818608E-02  0.1305137E+00
          3   -1    0    0  501    0  0.00000000000E+00  0.00000000000E+00  0.14242388320E+03  0.14242391356E+03  0.93000000000E-01 0. -1.
         -3   -1    0    0    0  501 -0.00000000000E+00 -0.00000000000E+00 -0.13923359438E+02  0.13923670028E+02  0.93000000000E-01 0.  1.
         23    2    1    2    0    0  0.00000000000E+00  0.00000000000E+00  0.12850052376E+03  0.15634758359E+03  0.89062799686E+02 0.  0.
        -13    1    3    3    0    0 -0.13174450381E+01 -0.40163890782E+02  0.30567050246E+02  0.50489895201E+02  0.10570000000E+00 0.  1.
         13    1    3    3    0    0  0.13174450381E+01  0.40163890782E+02  0.97933473515E+02  0.10585768839E+03  0.10570000000E+00 0. -1.
<mgrwt>
<rscale>  0 0.89062800E+02</rscale>
<asrwt>0</asrwt>
<pdfrwt beam="1">  1        3 0.21911394E-01 0.89062800E+02</pdfrwt>
<pdfrwt beam="2">  1       -3 0.21420815E-02 0.89062800E+02</pdfrwt>
<totfact> 0.32944556E+04</totfact>
</mgrwt>
</event>
<event>
 5    1  0.1401471E+000  0.9061941E+02  0.7818608E-02  0.1301359E+00
         -3   -1    0    0    0  501 -0.00000000000E+00  0.00000000000E+00  0.69999708879E+02  0.69999770658E+02  0.93000000000E-01 0.  1.
          3   -1    0    0  501    0  0.00000000000E+00 -0.00000000000E+00 -0.29328109605E+02  0.29328257057E+02  0.93000000000E-01 0. -1.
         23    2    1    2    0    0  0.00000000000E+00  0.00000000000E+00  0.40671599275E+02  0.99328027715E+02  0.90619413495E+02 0.  0.
        -13    1    3    3    0    0  0.27135597510E+02 -0.10845445154E+02  0.58289932506E+02  0.65204997791E+02  0.10570000000E+00 0.  1.
         13    1    3    3    0    0 -0.27135597510E+02  0.10845445154E+02 -0.17618333232E+02  0.34123029924E+02  0.10570000000E+00 0. -1.
<mgrwt>
<rscale>  0 0.90619413E+02</rscale>
<asrwt>0</asrwt>
<pdfrwt beam="2">  1        3 0.45120330E-02 0.90619413E+02</pdfrwt>
<pdfrwt beam="1">  1       -3 0.10769202E-01 0.90619413E+02</pdfrwt>
<totfact> 0.35306012E+04</totfact>
</mgrwt>
</event>
<event>
 5    1  0.1401471E+000  0.9027840E+02  0.7818608E-02  0.1302179E+00
         -3   -1    0    0    0  501 -0.00000000000E+00  0.00000000000E+00  0.32199725841E+02  0.32199860144E+02  0.93000000000E-01 0.  1.
          3   -1    0    0  501    0  0.00000000000E+00 -0.00000000000E+00 -0.63278109324E+02  0.63278177665E+02  0.93000000000E-01 0. -1.
         23    2    1    2    0    0  0.00000000000E+00  0.00000000000E+00 -0.31078383482E+02  0.95478037809E+02  0.90278401536E+02 0.  0.
        -13    1    3    3    0    0 -0.33888806822E+02  0.29705717566E+02 -0.18267581211E+02  0.48627117740E+02  0.10570000000E+00 0.  1.
         13    1    3    3    0    0  0.33888806822E+02 -0.29705717566E+02 -0.12810802272E+02  0.46850920069E+02  0.10570000000E+00 0. -1.
<mgrwt>
<rscale>  0 0.90278402E+02</rscale>
<asrwt>0</asrwt>
<pdfrwt beam="2">  1        3 0.97351093E-02 0.90278402E+02</pdfrwt>
<pdfrwt beam="1">  1       -3 0.49538196E-02 0.90278402E+02</pdfrwt>
<totfact> 0.35965038E+04</totfact>
</mgrwt>
</event>
<event>
 5    1  0.1401471E+000  0.9255153E+02  0.7818608E-02  0.1296788E+00
         -3   -1    0    0    0  501 -0.00000000000E+00  0.00000000000E+00  0.23710160393E+02  0.23710342783E+02  0.93000000000E-01 0.  1.
          3   -1    0    0  501    0  0.00000000000E+00 -0.00000000000E+00 -0.90317113609E+02  0.90317161490E+02  0.93000000000E-01 0. -1.
         23    2    1    2    0    0  0.00000000000E+00  0.00000000000E+00 -0.66606953215E+02  0.11402750427E+03  0.92551528967E+02 0.  0.
        -13    1    3    3    0    0  0.29571606788E+02 -0.55544453848E+01 -0.76619983207E+02  0.82316248643E+02  0.10570000000E+00 0. -1.
         13    1    3    3    0    0 -0.29571606788E+02  0.55544453848E+01  0.10013029992E+02  0.31711255630E+02  0.10570000000E+00 0.  1.
<mgrwt>
<rscale>  0 0.92551529E+02</rscale>
<asrwt>0</asrwt>
<pdfrwt beam="2">  1        3 0.13894958E-01 0.92551529E+02</pdfrwt>
<pdfrwt beam="1">  1       -3 0.36477347E-02 0.92551529E+02</pdfrwt>
<totfact> 0.32315355E+04</totfact>
</mgrwt>
</event>
<event>
 5    1  0.1401471E+000  0.8980277E+02  0.7818608E-02  0.1303330E+00
          3   -1    0    0  501    0  0.00000000000E+00  0.00000000000E+00  0.16710737682E+03  0.16710740270E+03  0.93000000000E-01 0. -1.
         -3   -1    0    0    0  501 -0.00000000000E+00 -0.00000000000E+00 -0.12064696967E+02  0.12065055404E+02  0.93000000000E-01 0.  1.
         23    2    1    2    0    0  0.00000000000E+00  0.00000000000E+00  0.15504267985E+03  0.17917245810E+03  0.89802768146E+02 0.  0.
        -13    1    3    3    0    0  0.22325329718E+01  0.43109055782E+02  0.10218000799E+03  0.11092402851E+03  0.10570000000E+00 0. -1.
         13    1    3    3    0    0 -0.22325329718E+01 -0.43109055782E+02  0.52862671862E+02  0.68248429599E+02  0.10570000000E+00 0.  1.
<mgrwt>
<rscale>  0 0.89802768E+02</rscale>
<asrwt>0</asrwt>
<pdfrwt beam="1">  1        3 0.25708856E-01 0.89802768E+02</pdfrwt>
<pdfrwt beam="2">  1       -3 0.18561369E-02 0.89802768E+02</pdfrwt>
<totfact> 0.30849059E+04</totfact>
</mgrwt>
</event>
<event>
 5    1  0.1401471E+000  0.8667600E+02  0.7818608E-02  0.1311107E+00
         -3   -1    0    0    0  501 -0.00000000000E+00  0.00000000000E+00  0.77217120193E+01  0.77222720432E+01  0.93000000000E-01 0.  1.
          3   -1    0    0  501    0  0.00000000000E+00 -0.00000000000E+00 -0.24322453928E+03  0.24322455706E+03  0.93000000000E-01 0. -1.
         23    2    1    2    0    0  0.00000000000E+00  0.00000000000E+00 -0.23550282726E+03  0.25094682911E+03  0.86676002383E+02 0.  0.
        -13    1    3    3    0    0  0.40606477145E+02  0.10554260430E+02 -0.86315474762E+02  0.95972135306E+02  0.10570000000E+00 0.  1.
         13    1    3    3    0    0 -0.40606477145E+02 -0.10554260430E+02 -0.14918735250E+03  0.15497469380E+03  0.10570000000E+00 0. -1.
<mgrwt>
<rscale>  0 0.86676002E+02</rscale>
<asrwt>0</asrwt>
<pdfrwt beam="2">  1        3 0.37419198E-01 0.86676002E+02</pdfrwt>
<pdfrwt beam="1">  1       -3 0.11880003E-02 0.86676002E+02</pdfrwt>
<totfact> 0.29846572E+04</totfact>
</mgrwt>
</event>
<event>
 5    1  0.1401471E+000  0.9153444E+02  0.7818608E-02  0.1299178E+00
         -3   -1    0    0    0  501 -0.00000000000E+00  0.00000000000E+00  0.21185743425E+02  0.21185947547E+02  0.93000000000E-01 0.  1.
          3   -1    0    0  501    0  0.00000000000E+00 -0.00000000000E+00 -0.98869487211E+02  0.98869530950E+02  0.93000000000E-01 0. -1.
         23    2    1    2    0    0  0.00000000000E+00  0.00000000000E+00 -0.77683743786E+02  0.12005547850E+03  0.91534440887E+02 0.  0.
        -13    1    3    3    0    0  0.21815287575E+02  0.18081215814E+02  0.82985467954E+01  0.29524806328E+02  0.10570000000E+00 0.  1.
         13    1    3    3    0    0 -0.21815287575E+02 -0.18081215814E+02 -0.85982290582E+02  0.90530672169E+02  0.10570000000E+00 0. -1.
<mgrwt>
<rscale>  0 0.91534441E+02</rscale>
<asrwt>0</asrwt>
<pdfrwt beam="2">  1        3 0.15210709E-01 0.91534441E+02</pdfrwt>
<pdfrwt beam="1">  1       -3 0.32593643E-02 0.91534441E+02</pdfrwt>
<totfact> 0.32890295E+04</totfact>
</mgrwt>
</event>
<event>
 5    1  0.1401471E+000  0.8637793E+02  0.7818608E-02  0.1311868E+00
         -3   -1    0    0    0  501 -0.00000000000E+00  0.00000000000E+00  0.27012732396E+02  0.27012892487E+02  0.93000000000E-01 0.  1.
          3   -1    0    0  501    0  0.00000000000E+00 -0.00000000000E+00 -0.69051740641E+02  0.69051803268E+02  0.93000000000E-01 0. -1.
         23    2    1    2    0    0  0.00000000000E+00  0.00000000000E+00 -0.42039008245E+02  0.96064695755E+02  0.86377934429E+02 0.  0.
        -13    1    3    3    0    0 -0.26072165740E+02  0.23857674387E+02  0.65905584792E+01  0.35949869083E+02  0.10570000000E+00 0.  1.
         13    1    3    3    0    0  0.26072165740E+02 -0.23857674387E+02 -0.48629566724E+02  0.60114826672E+02  0.10570000000E+00 0. -1.
<mgrwt>
<rscale>  0 0.86377934E+02</rscale>
<asrwt>0</asrwt>
<pdfrwt beam="2">  1        3 0.10623362E-01 0.86377934E+02</pdfrwt>
<pdfrwt beam="1">  1       -3 0.41558221E-02 0.86377934E+02</pdfrwt>
<totfact> 0.40483795E+04</totfact>
</mgrwt>
</event>
<event>
 5    1  0.1401471E+000  0.9592732E+02  0.7818608E-02  0.1289101E+00
          3   -1    0    0  501    0  0.00000000000E+00  0.00000000000E+00  0.14634189102E+03  0.14634192057E+03  0.93000000000E-01 0. -1.
         -3   -1    0    0    0  501 -0.00000000000E+00 -0.00000000000E+00 -0.15719956419E+02  0.15720231513E+02  0.93000000000E-01 0.  1.
         23    2    1    2    0    0  0.00000000000E+00  0.00000000000E+00  0.13062193460E+03  0.16206215208E+03  0.95927323214E+02 0.  0.
        -13    1    3    3    0    0 -0.42699846363E+02  0.57928636297E+01  0.29725875477E+02  0.52349527159E+02  0.10570000000E+00 0.  1.
         13    1    3    3    0    0  0.42699846363E+02 -0.57928636297E+01  0.10089605912E+03  0.10971262492E+03  0.10570000000E+00 0. -1.
<mgrwt>
<rscale>  0 0.95927323E+02</rscale>
<asrwt>0</asrwt>
<pdfrwt beam="1">  1        3 0.22514161E-01 0.95927323E+02</pdfrwt>
<pdfrwt beam="2">  1       -3 0.24184782E-02 0.95927323E+02</pdfrwt>
<totfact> 0.26642429E+04</totfact>
</mgrwt>
</event>
<event>
 5    1  0.1401471E+000  0.8462846E+02  0.7818608E-02  0.1316407E+00
         -3   -1    0    0    0  501 -0.00000000000E+00  0.00000000000E+00  0.12699082723E+03  0.12699086129E+03  0.93000000000E-01 0.  1.
          3   -1    0    0  501    0  0.00000000000E+00 -0.00000000000E+00 -0.14099207906E+02  0.14099514622E+02  0.93000000000E-01 0. -1.
         23    2    1    2    0    0  0.00000000000E+00  0.00000000000E+00  0.11289161933E+03  0.14109037591E+03  0.84628461288E+02 0.  0.
        -13    1    3    3    0    0 -0.29524004560E+02  0.29988113495E+02  0.49078268435E+02  0.64650146182E+02  0.10570000000E+00 0.  1.
         13    1    3    3    0    0  0.29524004560E+02 -0.29988113495E+02  0.63813350893E+02  0.76440229729E+02  0.10570000000E+00 0. -1.
<mgrwt>
<rscale>  0 0.84628461E+02</rscale>
<asrwt>0</asrwt>
<pdfrwt beam="2">  1        3 0.21691351E-02 0.84628461E+02</pdfrwt>
<pdfrwt beam="1">  1       -3 0.19537077E-01 0.84628461E+02</pdfrwt>
<totfact> 0.38949514E+04</totfact>
</mgrwt>
</event>
<event>
 5    1  0.1401471E+000  0.9251649E+02  0.7818608E-02  0.1296870E+00
         -3   -1    0    0    0  501 -0.00000000000E+00  0.00000000000E+00  0.24417837820E+02  0.24418014923E+02  0.93000000000E-01 0.  1.
          3   -1    0    0  501    0  0.00000000000E+00 -0.00000000000E+00 -0.87633172920E+02  0.87633222268E+02  0.93000000000E-01 0. -1.
         23    2    1    2    0    0  0.00000000000E+00  0.00000000000E+00 -0.63215335101E+02  0.11205123719E+03  0.92516491310E+02 0.  0.
        -13    1    3    3    0    0 -0.40578198538E+02 -0.13441832414E+02 -0.53019362382E+02  0.68105337640E+02  0.10570000000E+00 0.  1.
         13    1    3    3    0    0  0.40578198538E+02  0.13441832414E+02 -0.10195972718E+02  0.43945899551E+02  0.10570000000E+00 0. -1.
<mgrwt>
<rscale>  0 0.92516491E+02</rscale>
<asrwt>0</asrwt>
<pdfrwt beam="2">  1        3 0.13482044E-01 0.92516491E+02</pdfrwt>
<pdfrwt beam="1">  1       -3 0.37566079E-02 0.92516491E+02</pdfrwt>
<totfact> 0.32482256E+04</totfact>
</mgrwt>
</event>
<event>
 5    1  0.1401471E+000  0.9809801E+02  0.7818608E-02  0.1284347E+00
         -3   -1    0    0    0  501 -0.00000000000E+00  0.00000000000E+00  0.13887517693E+03  0.13887520807E+03  0.93000000000E-01 0.  1.
          3   -1    0    0  501    0  0.00000000000E+00 -0.00000000000E+00 -0.17323346263E+02  0.17323595895E+02  0.93000000000E-01 0. -1.
         23    2    1    2    0    0  0.00000000000E+00  0.00000000000E+00  0.12155183066E+03  0.15619880396E+03  0.98098006205E+02 0.  0.
        -13    1    3    3    0    0  0.36141610211E+02 -0.74059347849E+01  0.11224180548E+03  0.11814947282E+03  0.10570000000E+00 0.  1.
         13    1    3    3    0    0 -0.36141610211E+02  0.74059347849E+01  0.93100251857E+01  0.38049331139E+02  0.10570000000E+00 0. -1.
<mgrwt>
<rscale>  0 0.98098006E+02</rscale>
<asrwt>0</asrwt>
<pdfrwt beam="2">  1        3 0.26651517E-02 0.98098006E+02</pdfrwt>
<pdfrwt beam="1">  1       -3 0.21365434E-01 0.98098006E+02</pdfrwt>
<totfact> 0.25347604E+04</totfact>
</mgrwt>
</event>
<event>
 5    1  0.1401471E+000  0.8911185E+02  0.7818608E-02  0.1305017E+00
         -3   -1    0    0    0  501 -0.00000000000E+00  0.00000000000E+00  0.93532625732E+02  0.93532671968E+02  0.93000000000E-01 0.  1.
          3   -1    0    0  501    0  0.00000000000E+00 -0.00000000000E+00 -0.21224849540E+02  0.21225053286E+02  0.93000000000E-01 0. -1.
         23    2    1    2    0    0  0.00000000000E+00  0.00000000000E+00  0.72307776192E+02  0.11475772525E+03  0.89111845495E+02 0.  0.
        -13    1    3    3    0    0 -0.11765186229E+01 -0.36437035164E+02  0.69141973580E+02  0.78164348718E+02  0.10570000000E+00 0.  1.
         13    1    3    3    0    0  0.11765186229E+01  0.36437035164E+02  0.31658026127E+01  0.36593376535E+02  0.10570000000E+00 0. -1.
<mgrwt>
<rscale>  0 0.89111845E+02</rscale>
<asrwt>0</asrwt>
<pdfrwt beam="2">  1        3 0.32653807E-02 0.89111845E+02</pdfrwt>
<pdfrwt beam="1">  1       -3 0.14389654E-01 0.89111845E+02</pdfrwt>
<totfact> 0.35762925E+04</totfact>
</mgrwt>
</event>
<event>
 5    1  0.1401471E+000  0.9060247E+02  0.7818608E-02  0.1301399E+00
          3   -1    0    0  501    0  0.00000000000E+00  0.00000000000E+00  0.18415222237E+02  0.18415457068E+02  0.93000000000E-01 0. -1.
         -3   -1    0    0    0  501 -0.00000000000E+00 -0.00000000000E+00 -0.11143954432E+03  0.11143958312E+03  0.93000000000E-01 0.  1.
         23    2    1    2    0    0  0.00000000000E+00  0.00000000000E+00 -0.93024322080E+02  0.12985504019E+03  0.90602466657E+02 0.  0.
        -13    1    3    3    0    0 -0.13801444860E+02 -0.32694425334E+02 -0.86867088180E+02  0.93836600053E+02  0.10570000000E+00 0.  1.
         13    1    3    3    0    0  0.13801444860E+02  0.32694425334E+02 -0.61572339000E+01  0.36018440137E+02  0.10570000000E+00 0. -1.
<mgrwt>
<rscale>  0 0.90602467E+02</rscale>
<asrwt>0</asrwt>
<pdfrwt beam="1">  1        3 0.28331322E-02 0.90602467E+02</pdfrwt>
<pdfrwt beam="2">  1       -3 0.17144566E-01 0.90602467E+02</pdfrwt>
<totfact> 0.33149780E+04</totfact>
</mgrwt>
</event>
<event>
 5    1  0.1401471E+000  0.9069411E+02  0.7818608E-02  0.1301179E+00
          3   -1    0    0  501    0  0.00000000000E+00  0.00000000000E+00  0.49222927342E+02  0.49223015197E+02  0.93000000000E-01 0. -1.
         -3   -1    0    0    0  501 -0.00000000000E+00 -0.00000000000E+00 -0.41776196324E+02  0.41776299839E+02  0.93000000000E-01 0.  1.
         23    2    1    2    0    0  0.00000000000E+00  0.00000000000E+00  0.74467310180E+01  0.90999315036E+02  0.90694109700E+02 0.  0.
        -13    1    3    3    0    0  0.40141099958E+02  0.17942407788E+02 -0.74093008796E+01  0.44588639978E+02  0.10570000000E+00 0.  1.
         13    1    3    3    0    0 -0.40141099958E+02 -0.17942407788E+02  0.14856031898E+02  0.46410675058E+02  0.10570000000E+00 0. -1.
<mgrwt>
<rscale>  0 0.90694110E+02</rscale>
<asrwt>0</asrwt>
<pdfrwt beam="1">  1        3 0.75727728E-02 0.90694110E+02</pdfrwt>
<pdfrwt beam="2">  1       -3 0.64271218E-02 0.90694110E+02</pdfrwt>
<totfact> 0.35866899E+04</totfact>
</mgrwt>
</event>
<event>
 5    1  0.1401471E+000  0.9108761E+02  0.7818608E-02  0.1300239E+00
          3   -1    0    0  501    0  0.00000000000E+00  0.00000000000E+00  0.43852748408E+02  0.43852847022E+02  0.93000000000E-01 0. -1.
         -3   -1    0    0    0  501 -0.00000000000E+00 -0.00000000000E+00 -0.47299873217E+02  0.47299964644E+02  0.93000000000E-01 0.  1.
         23    2    1    2    0    0  0.00000000000E+00  0.00000000000E+00 -0.34471248088E+01  0.91152811666E+02  0.91087608406E+02 0.  0.
        -13    1    3    3    0    0  0.10009102838E+02  0.78304072656E+01 -0.45489632258E+02  0.47231506783E+02  0.10570000000E+00 0.  1.
         13    1    3    3    0    0 -0.10009102838E+02 -0.78304072656E+01  0.42042507449E+02  0.43921304883E+02  0.10570000000E+00 0. -1.
<mgrwt>
<rscale>  0 0.91087608E+02</rscale>
<asrwt>0</asrwt>
<pdfrwt beam="1">  1        3 0.67465913E-02 0.91087608E+02</pdfrwt>
<pdfrwt beam="2">  1       -3 0.72769182E-02 0.91087608E+02</pdfrwt>
<totfact> 0.35435102E+04</totfact>
</mgrwt>
</event>
<event>
 5    1  0.1401471E+000  0.9120776E+02  0.7818608E-02  0.1299953E+00
         -3   -1    0    0    0  501 -0.00000000000E+00  0.00000000000E+00  0.47591469921E+02  0.47591560788E+02  0.93000000000E-01 0.  1.
          3   -1    0    0  501    0  0.00000000000E+00 -0.00000000000E+00 -0.43699117736E+02  0.43699216697E+02  0.93000000000E-01 0. -1.
         23    2    1    2    0    0  0.00000000000E+00  0.00000000000E+00  0.38923521850E+01  0.91290777485E+02  0.91207760899E+02 0.  0.
        -13    1    3    3    0    0 -0.24568567582E+02 -0.18940375902E+02 -0.31511040169E+02  0.44218878065E+02  0.10570000000E+00 0. -1.
         13    1    3    3    0    0  0.24568567582E+02  0.18940375902E+02  0.35403392354E+02  0.47071899420E+02  0.10570000000E+00 0.  1.
<mgrwt>
<rscale>  0 0.91207761E+02</rscale>
<asrwt>0</asrwt>
<pdfrwt beam="2">  1        3 0.67229558E-02 0.91207761E+02</pdfrwt>
<pdfrwt beam="1">  1       -3 0.73217792E-02 0.91207761E+02</pdfrwt>
<totfact> 0.35297249E+04</totfact>
</mgrwt>
</event>
<event>
 5    1  0.1401471E+000  0.9134169E+02  0.7818608E-02  0.1299635E+00
          3   -1    0    0  501    0  0.00000000000E+00  0.00000000000E+00  0.12746707474E+02  0.12747046733E+02  0.93000000000E-01 0. -1.
         -3   -1    0    0    0  501 -0.00000000000E+00 -0.00000000000E+00 -0.16363392778E+03  0.16363395421E+03  0.93000000000E-01 0.  1.
         23    2    1    2    0    0  0.00000000000E+00  0.00000000000E+00 -0.15088722030E+03  0.17638100094E+03  0.91341689503E+02 0.  0.
        -13    1    3    3    0    0  0.14300896439E+02 -0.39770638684E+02 -0.10886699580E+03  0.11678293234E+03  0.10570000000E+00 0. -1.
         13    1    3    3    0    0 -0.14300896439E+02  0.39770638684E+02 -0.42020224508E+02  0.59598068597E+02  0.10570000000E+00 0.  1.
<mgrwt>
<rscale>  0 0.91341690E+02</rscale>
<asrwt>0</asrwt>
<pdfrwt beam="1">  1        3 0.19610602E-02 0.91341690E+02</pdfrwt>
<pdfrwt beam="2">  1       -3 0.25174477E-01 0.91341690E+02</pdfrwt>
<totfact> 0.29621573E+04</totfact>
</mgrwt>
</event>
<event>
 5    1  0.1401471E+000  0.9064265E+02  0.7818608E-02  0.1301303E+00
          3   -1    0    0  501    0  0.00000000000E+00  0.00000000000E+00  0.27386936855E+03  0.27386938434E+03  0.93000000000E-01 0. -1.
         -3   -1    0    0    0  501 -0.00000000000E+00 -0.00000000000E+00 -0.74997045014E+01  0.75002811019E+01  0.93000000000E-01 0.  1.
         23    2    1    2    0    0  0.00000000000E+00  0.00000000000E+00  0.26636966405E+03  0.28136966545E+03  0.90642653899E+02 0.  0.
        -13    1    3    3    0    0 -0.24028587702E+02 -0.38352776097E+02  0.12577176423E+03  0.13366696043E+03  0.10570000000E+00 0.  1.
         13    1    3    3    0    0  0.24028587702E+02  0.38352776097E+02  0.14059789982E+03  0.14770270501E+03  0.10570000000E+00 0. -1.
<mgrwt>
<rscale>  0 0.90642654E+02</rscale>
<asrwt>0</asrwt>
<pdfrwt beam="1">  1        3 0.42133803E-01 0.90642654E+02</pdfrwt>
<pdfrwt beam="2">  1       -3 0.11538460E-02 0.90642654E+02</pdfrwt>
<totfact> 0.25163998E+04</totfact>
</mgrwt>
</event>
<event>
 5    1  0.1401471E+000  0.8809129E+02  0.7818608E-02  0.1307541E+00
         -3   -1    0    0    0  501 -0.00000000000E+00  0.00000000000E+00  0.11743873756E+02  0.11744241985E+02  0.93000000000E-01 0.  1.
          3   -1    0    0  501    0  0.00000000000E+00 -0.00000000000E+00 -0.16519114624E+03  0.16519117241E+03  0.93000000000E-01 0. -1.
         23    2    1    2    0    0  0.00000000000E+00  0.00000000000E+00 -0.15344727248E+03  0.17693541440E+03  0.88091290360E+02 0.  0.
        -13    1    3    3    0    0 -0.14834649551E+02  0.27302501117E+02 -0.13942484343E+03  0.14284534131E+03  0.10570000000E+00 0. -1.
         13    1    3    3    0    0  0.14834649551E+02 -0.27302501117E+02 -0.14022429047E+02  0.34090073092E+02  0.10570000000E+00 0.  1.
<mgrwt>
<rscale>  0 0.88091290E+02</rscale>
<asrwt>0</asrwt>
<pdfrwt beam="2">  1        3 0.25414051E-01 0.88091290E+02</pdfrwt>
<pdfrwt beam="1">  1       -3 0.18067803E-02 0.88091290E+02</pdfrwt>
<totfact> 0.32624383E+04</totfact>
</mgrwt>
</event>
<event>
 5    1  0.1401471E+000  0.9367804E+02  0.7818608E-02  0.1294182E+00
         -3   -1    0    0    0  501 -0.00000000000E+00  0.00000000000E+00  0.22882939657E+02  0.22883128640E+02  0.93000000000E-01 0.  1.
          3   -1    0    0  501    0  0.00000000000E+00 -0.00000000000E+00 -0.95874037871E+02  0.95874082977E+02  0.93000000000E-01 0. -1.
         23    2    1    2    0    0  0.00000000000E+00  0.00000000000E+00 -0.72991098214E+02  0.11875721162E+03  0.93678038474E+02 0.  0.
        -13    1    3    3    0    0  0.82489449187E+00 -0.46728672129E+02 -0.40430232229E+02  0.61796958667E+02  0.10570000000E+00 0.  1.
         13    1    3    3    0    0 -0.82489449187E+00  0.46728672129E+02 -0.32560865985E+02  0.56960252950E+02  0.10570000000E+00 0. -1.
<mgrwt>
<rscale>  0 0.93678038E+02</rscale>
<asrwt>0</asrwt>
<pdfrwt beam="2">  1        3 0.14749870E-01 0.93678038E+02</pdfrwt>
<pdfrwt beam="1">  1       -3 0.35204703E-02 0.93678038E+02</pdfrwt>
<totfact> 0.30962202E+04</totfact>
</mgrwt>
</event>
<event>
 5    1  0.1401471E+000  0.9173499E+02  0.7818608E-02  0.1298704E+00
         -3   -1    0    0    0  501 -0.00000000000E+00  0.00000000000E+00  0.80139486000E+02  0.80139539962E+02  0.93000000000E-01 0.  1.
          3   -1    0    0  501    0  0.00000000000E+00 -0.00000000000E+00 -0.26251918498E+02  0.26252083229E+02  0.93000000000E-01 0. -1.
         23    2    1    2    0    0  0.00000000000E+00  0.00000000000E+00  0.53887567502E+02  0.10639162319E+03  0.91734985441E+02 0.  0.
        -13    1    3    3    0    0  0.45700610761E+02 -0.25344299954E+01  0.30393310929E+02  0.54943003932E+02  0.10570000000E+00 0. -1.
         13    1    3    3    0    0 -0.45700610761E+02  0.25344299954E+01  0.23494256572E+02  0.51448619259E+02  0.10570000000E+00 0.  1.
<mgrwt>
<rscale>  0 0.91734985E+02</rscale>
<asrwt>0</asrwt>
<pdfrwt beam="2">  1        3 0.40387736E-02 0.91734985E+02</pdfrwt>
<pdfrwt beam="1">  1       -3 0.12329168E-01 0.91734985E+02</pdfrwt>
<totfact> 0.33640970E+04</totfact>
</mgrwt>
</event>
<event>
 5    1  0.1401471E+000  0.9053305E+02  0.7818608E-02  0.1301566E+00
         -3   -1    0    0    0  501 -0.00000000000E+00  0.00000000000E+00  0.88097351433E+02  0.88097400520E+02  0.93000000000E-01 0.  1.
          3   -1    0    0  501    0  0.00000000000E+00 -0.00000000000E+00 -0.23258874354E+02  0.23259060283E+02  0.93000000000E-01 0. -1.
         23    2    1    2    0    0  0.00000000000E+00  0.00000000000E+00  0.64838477078E+02  0.11135646080E+03  0.90533050610E+02 0.  0.
        -13    1    3    3    0    0 -0.27534678092E+02  0.21798061350E+02 -0.27110991544E+01  0.35223219719E+02  0.10570000000E+00 0. -1.
         13    1    3    3    0    0  0.27534678092E+02 -0.21798061350E+02  0.67549576233E+02  0.76133241084E+02  0.10570000000E+00 0.  1.
<mgrwt>
<rscale>  0 0.90533051E+02</rscale>
<asrwt>0</asrwt>
<pdfrwt beam="2">  1        3 0.35783065E-02 0.90533051E+02</pdfrwt>
<pdfrwt beam="1">  1       -3 0.13553457E-01 0.90533051E+02</pdfrwt>
<totfact> 0.34507260E+04</totfact>
</mgrwt>
</event>
<event>
 5    1  0.1401471E+000  0.8990033E+02  0.7818608E-02  0.1303093E+00
         -3   -1    0    0    0  501 -0.00000000000E+00  0.00000000000E+00  0.53779957321E+02  0.53780037732E+02  0.93000000000E-01 0.  1.
          3   -1    0    0  501    0  0.00000000000E+00 -0.00000000000E+00 -0.37569911767E+02  0.37570026872E+02  0.93000000000E-01 0. -1.
         23    2    1    2    0    0  0.00000000000E+00  0.00000000000E+00  0.16210045554E+02  0.91350064604E+02  0.89900326619E+02 0.  0.
        -13    1    3    3    0    0  0.30684588142E+02  0.13551298424E+02  0.38509517627E+02  0.51070302122E+02  0.10570000000E+00 0.  1.
         13    1    3    3    0    0 -0.30684588142E+02 -0.13551298424E+02 -0.22299472073E+02  0.40279762482E+02  0.10570000000E+00 0. -1.
<mgrwt>
<rscale>  0 0.89900327E+02</rscale>
<asrwt>0</asrwt>
<pdfrwt beam="2">  1        3 0.57800015E-02 0.89900327E+02</pdfrwt>
<pdfrwt beam="1">  1       -3 0.82738546E-02 0.89900327E+02</pdfrwt>
<totfact> 0.36706327E+04</totfact>
</mgrwt>
</event>
<event>
 5    1  0.1401471E+000  0.9171407E+02  0.7818608E-02  0.1298753E+00
          3   -1    0    0  501    0  0.00000000000E+00  0.00000000000E+00  0.94672270442E+02  0.94672316121E+02  0.93000000000E-01 0. -1.
         -3   -1    0    0    0  501 -0.00000000000E+00 -0.00000000000E+00 -0.22211925451E+02  0.22212120143E+02  0.93000000000E-01 0.  1.
         23    2    1    2    0    0  0.00000000000E+00  0.00000000000E+00  0.72460344991E+02  0.11688443626E+03  0.91714065685E+02 0.  0.
        -13    1    3    3    0    0 -0.28949307734E+02  0.19983350881E+02  0.73722649146E+02  0.81684985771E+02  0.10570000000E+00 0. -1.
         13    1    3    3    0    0  0.28949307734E+02 -0.19983350881E+02 -0.12623041554E+01  0.35199450493E+02  0.10570000000E+00 0.  1.
<mgrwt>
<rscale>  0 0.91714066E+02</rscale>
<asrwt>0</asrwt>
<pdfrwt beam="1">  1        3 0.14564983E-01 0.91714066E+02</pdfrwt>
<pdfrwt beam="2">  1       -3 0.34172378E-02 0.91714066E+02</pdfrwt>
<totfact> 0.32929903E+04</totfact>
</mgrwt>
</event>
<event>
 5    1  0.1401471E+000  0.9401624E+02  0.7818608E-02  0.1293407E+00
          3   -1    0    0  501    0  0.00000000000E+00  0.00000000000E+00  0.26509006350E+02  0.26509169483E+02  0.93000000000E-01 0. -1.
         -3   -1    0    0    0  501 -0.00000000000E+00 -0.00000000000E+00 -0.83358527779E+02  0.83358579658E+02  0.93000000000E-01 0.  1.
         23    2    1    2    0    0  0.00000000000E+00  0.00000000000E+00 -0.56849521429E+02  0.10986774914E+03  0.94016244418E+02 0.  0.
        -13    1    3    3    0    0  0.21771201826E+02 -0.10977824842E+01 -0.77094861495E+02  0.80117533642E+02  0.10570000000E+00 0.  1.
         13    1    3    3    0    0 -0.21771201826E+02  0.10977824842E+01  0.20245340066E+02  0.29750215499E+02  0.10570000000E+00 0. -1.
<mgrwt>
<rscale>  0 0.94016244E+02</rscale>
<asrwt>0</asrwt>
<pdfrwt beam="1">  1        3 0.40783252E-02 0.94016244E+02</pdfrwt>
<pdfrwt beam="2">  1       -3 0.12824405E-01 0.94016244E+02</pdfrwt>
<totfact> 0.31231230E+04</totfact>
</mgrwt>
</event>
<event>
 5    1  0.1401471E+000  0.9164191E+02  0.7818608E-02  0.1298924E+00
         -3   -1    0    0    0  501 -0.00000000000E+00  0.00000000000E+00  0.87894621749E+02  0.87894670950E+02  0.93000000000E-01 0.  1.
          3   -1    0    0  501    0  0.00000000000E+00 -0.00000000000E+00 -0.23887095720E+02  0.23887276759E+02  0.93000000000E-01 0. -1.
         23    2    1    2    0    0  0.00000000000E+00  0.00000000000E+00  0.64007526029E+02  0.11178194771E+03  0.91641914238E+02 0.  0.
        -13    1    3    3    0    0  0.42682387322E+02  0.83550707213E+01  0.49593638789E+02  0.65963122843E+02  0.10570000000E+00 0.  1.
         13    1    3    3    0    0 -0.42682387322E+02 -0.83550707213E+01  0.14413887239E+02  0.45818824866E+02  0.10570000000E+00 0. -1.
<mgrwt>
<rscale>  0 0.91641914E+02</rscale>
<asrwt>0</asrwt>
<pdfrwt beam="2">  1        3 0.36749556E-02 0.91641914E+02</pdfrwt>
<pdfrwt beam="1">  1       -3 0.13522267E-01 0.91641914E+02</pdfrwt>
<totfact> 0.33354428E+04</totfact>
</mgrwt>
</event>
<event>
 5    1  0.1401471E+000  0.9010851E+02  0.7818608E-02  0.1302589E+00
         -3   -1    0    0    0  501 -0.00000000000E+00  0.00000000000E+00  0.13989929841E+03  0.13989932932E+03  0.93000000000E-01 0.  1.
          3   -1    0    0  501    0  0.00000000000E+00 -0.00000000000E+00 -0.14509440778E+02  0.14509738822E+02  0.93000000000E-01 0. -1.
         23    2    1    2    0    0  0.00000000000E+00  0.00000000000E+00  0.12538985763E+03  0.15440906814E+03  0.90108511962E+02 0.  0.
        -13    1    3    3    0    0 -0.18040194440E+02 -0.40473851120E+02  0.76647128595E+02  0.88534596256E+02  0.10570000000E+00 0.  1.
         13    1    3    3    0    0  0.18040194440E+02  0.40473851120E+02  0.48742729039E+02  0.65874471889E+02  0.10570000000E+00 0. -1.
<mgrwt>
<rscale>  0 0.90108512E+02</rscale>
<asrwt>0</asrwt>
<pdfrwt beam="2">  1        3 0.22322470E-02 0.90108512E+02</pdfrwt>
<pdfrwt beam="1">  1       -3 0.21522994E-01 0.90108512E+02</pdfrwt>
<totfact> 0.32044815E+04</totfact>
</mgrwt>
</event>
<event>
 5    1  0.1401471E+000  0.9017528E+02  0.7818608E-02  0.1302428E+00
          3   -1    0    0  501    0  0.00000000000E+00  0.00000000000E+00  0.23276049798E+02  0.23276235589E+02  0.93000000000E-01 0. -1.
         -3   -1    0    0    0  501 -0.00000000000E+00 -0.00000000000E+00 -0.87337934204E+02  0.87337983718E+02  0.93000000000E-01 0.  1.
         23    2    1    2    0    0  0.00000000000E+00  0.00000000000E+00 -0.64061884406E+02  0.11061421931E+03  0.90175276431E+02 0.  0.
        -13    1    3    3    0    0 -0.17091518411E+01  0.41720158749E+02 -0.52898232725E+02  0.67392336686E+02  0.10570000000E+00 0.  1.
         13    1    3    3    0    0  0.17091518411E+01 -0.41720158749E+02 -0.11163651681E+02  0.43221882622E+02  0.10570000000E+00 0. -1.
<mgrwt>
<rscale>  0 0.90175276E+02</rscale>
<asrwt>0</asrwt>
<pdfrwt beam="1">  1        3 0.35809489E-02 0.90175276E+02</pdfrwt>
<pdfrwt beam="2">  1       -3 0.13436623E-01 0.90175276E+02</pdfrwt>
<totfact> 0.34934000E+04</totfact>
</mgrwt>
</event>
