<event>
 5    1  0.2718303E+000  0.9242980E+02  0.7818608E-02  0.1297072E+00
         -1   -1    0    0    0  501 -0.00000000000E+00  0.00000000000E+00  0.98630624359E+01  0.98630635415E+01  0.46700000000E-02 0.  1.
          1   -1    0    0  501    0  0.00000000000E+00 -0.00000000000E+00 -0.21654702671E+03  0.21654702676E+03  0.46700000000E-02 0. -1.
         23    2    1    2    0    0  0.00000000000E+00  0.00000000000E+00 -0.20668396428E+03  0.22641009031E+03  0.92429799863E+02 0.  0.
        -11    1    3    3    0    0 -0.19997844826E+02 -0.30571514451E+02 -0.34003000904E+02  0.49907267650E+02  0.51100000000E-03 0.  1.
         11    1    3    3    0    0  0.19997844826E+02  0.30571514451E+02 -0.17268096337E+03  0.17650282266E+03  0.51100000000E-03 0. -1.
<mgrwt>
<rscale>  0 0.92429800E+02</rscale>
<asrwt>0</asrwt>
<pdfrwt beam="2">  1        1 0.33314924E-01 0.92429800E+02</pdfrwt>
<pdfrwt beam="1">  1       -1 0.15173945E-02 0.92429800E+02</pdfrwt>
<totfact> 0.11592918E+05</totfact>
</mgrwt>
</event>
<event>
 5    1  0.2718303E+000  0.9229252E+02  0.7818608E-02  0.1297393E+00
          1   -1    0    0  501    0  0.00000000000E+00  0.00000000000E+00  0.18319330303E+03  0.18319330309E+03  0.46700000000E-02 0. -1.
         -1   -1    0    0    0  501 -0.00000000000E+00 -0.00000000000E+00 -0.11624208946E+02  0.11624209884E+02  0.46700000000E-02 0.  1.
         23    2    1    2    0    0  0.00000000000E+00  0.00000000000E+00  0.17156909408E+03  0.19481751297E+03  0.92292520371E+02 0.  0.
        -11    1    3    3    0    0  0.23336242815E+02  0.35080142658E+02  0.12551607165E+03  0.13239894592E+03  0.51100000000E-03 0.  1.
         11    1    3    3    0    0 -0.23336242815E+02 -0.35080142658E+02  0.46053022435E+02  0.62418567056E+02  0.51100000000E-03 0. -1.
<mgrwt>
<rscale>  0 0.92292520E+02</rscale>
<asrwt>0</asrwt>
<pdfrwt beam="1">  1        1 0.28183585E-01 0.92292520E+02</pdfrwt>
<pdfrwt beam="2">  1       -1 0.17883399E-02 0.92292520E+02</pdfrwt>
<totfact> 0.11267020E+05</totfact>
</mgrwt>
</event>
<event>
 5    1  0.2718303E+000  0.8606564E+02  0.7818608E-02  0.1312669E+00
         -1   -1    0    0    0  501 -0.00000000000E+00  0.00000000000E+00  0.26207162665E+02  0.26207163081E+02  0.46700000000E-02 0.  1.
          1   -1    0    0  501    0  0.00000000000E+00 -0.00000000000E+00 -0.70660964455E+02  0.70660964609E+02  0.46700000000E-02 0. -1.
         23    2    1    2    0    0  0.00000000000E+00  0.00000000000E+00 -0.44453801790E+02  0.96868127690E+02  0.86065635817E+02 0.  0.
        -11    1    3    3    0    0 -0.11454802133E+02  0.17994042333E+02  0.19838223793E+02  0.29129936061E+02  0.51100000000E-03 0.  1.
         11    1    3    3    0    0  0.11454802133E+02 -0.17994042333E+02 -0.64292025583E+02  0.67738191630E+02  0.51100000000E-03 0. -1.
<mgrwt>
<rscale>  0 0.86065636E+02</rscale>
<asrwt>0</asrwt>
<pdfrwt beam="2">  1        1 0.10870918E-01 0.86065636E+02</pdfrwt>
<pdfrwt beam="1">  1       -1 0.40318712E-02 0.86065636E+02</pdfrwt>
<totfact> 0.11575364E+05</totfact>
</mgrwt>
</event>
<event>
 5    1  0.2718303E+000  0.9015827E+02  0.7818608E-02  0.1302469E+00
          1   -1    0    0  501    0  0.00000000000E+00  0.00000000000E+00  0.42921813724E+03  0.42921813726E+03  0.46700000000E-02 0. -1.
         -1   -1    0    0    0  501 -0.00000000000E+00 -0.00000000000E+00 -0.47344878662E+01  0.47344901694E+01  0.46700000000E-02 0.  1.
         23    2    1    2    0    0  0.00000000000E+00  0.00000000000E+00  0.42448364937E+03  0.43395262743E+03  0.90158273452E+02 0.  0.
        -11    1    3    3    0    0  0.39282009107E+02  0.19466600847E+02  0.16173642064E+03  0.16757295292E+03  0.51100000000E-03 0.  1.
         11    1    3    3    0    0 -0.39282009107E+02 -0.19466600847E+02  0.26274722873E+03  0.26637967451E+03  0.51100000000E-03 0. -1.
<mgrwt>
<rscale>  0 0.90158273E+02</rscale>
<asrwt>0</asrwt>
<pdfrwt beam="1">  1        1 0.66033548E-01 0.90158273E+02</pdfrwt>
<pdfrwt beam="2">  1       -1 0.72838305E-03 0.90158273E+02</pdfrwt>
<totfact> 0.14052664E+05</totfact>
</mgrwt>
</event>
<event>
 5    1  0.2718303E+000  0.9144994E+02  0.7818608E-02  0.1299378E+00
         -1   -1    0    0    0  501 -0.00000000000E+00  0.00000000000E+00  0.12263181858E+02  0.12263182748E+02  0.46700000000E-02 0. -1.
          1   -1    0    0  501    0  0.00000000000E+00 -0.00000000000E+00 -0.17049186853E+03  0.17049186859E+03  0.46700000000E-02 0.  1.
         23    2    1    2    0    0  0.00000000000E+00  0.00000000000E+00 -0.15822868667E+03  0.18275505134E+03  0.91449939884E+02 0.  0.
        -11    1    3    3    0    0  0.24948679020E+02 -0.36310387166E+02 -0.10358103794E+03  0.11256070461E+03  0.51100000000E-03 0.  1.
         11    1    3    3    0    0 -0.24948679020E+02  0.36310387166E+02 -0.54647648729E+02  0.70194346730E+02  0.51100000000E-03 0. -1.
<mgrwt>
<rscale>  0 0.91449940E+02</rscale>
<asrwt>0</asrwt>
<pdfrwt beam="2">  1        1 0.26229517E-01 0.91449940E+02</pdfrwt>
<pdfrwt beam="1">  1       -1 0.18866436E-02 0.91449940E+02</pdfrwt>
<totfact> 0.11391684E+05</totfact>
</mgrwt>
</event>
<event>
 5    1  0.2718303E+000  0.8979151E+02  0.7818608E-02  0.1303357E+00
          1   -1    0    0  501    0  0.00000000000E+00  0.00000000000E+00  0.14188078009E+03  0.14188078016E+03  0.46700000000E-02 0. -1.
         -1   -1    0    0    0  501 -0.00000000000E+00 -0.00000000000E+00 -0.14206495849E+02  0.14206496616E+02  0.46700000000E-02 0.  1.
         23    2    1    2    0    0  0.00000000000E+00  0.00000000000E+00  0.12767428424E+03  0.15608727678E+03  0.89791509157E+02 0.  0.
        -11    1    3    3    0    0  0.37909733512E+02  0.15618409797E+02  0.32042037603E+02  0.52036283434E+02  0.51100000000E-03 0.  1.
         11    1    3    3    0    0 -0.37909733512E+02 -0.15618409797E+02  0.95632246634E+02  0.10405099335E+03  0.51100000000E-03 0. -1.
<mgrwt>
<rscale>  0 0.89791509E+02</rscale>
<asrwt>0</asrwt>
<pdfrwt beam="1">  1        1 0.21827811E-01 0.89791509E+02</pdfrwt>
<pdfrwt beam="2">  1       -1 0.21856149E-02 0.89791509E+02</pdfrwt>
<totfact> 0.11567733E+05</totfact>
</mgrwt>
</event>
<event>
 5    1  0.2718303E+000  0.9054990E+02  0.7818608E-02  0.1301525E+00
         -1   -1    0    0    0  501 -0.00000000000E+00  0.00000000000E+00  0.81209774290E+01  0.81209787718E+01  0.46700000000E-02 0.  1.
          1   -1    0    0  501    0  0.00000000000E+00 -0.00000000000E+00 -0.25241062065E+03  0.25241062070E+03  0.46700000000E-02 0. -1.
         23    2    1    2    0    0  0.00000000000E+00  0.00000000000E+00 -0.24428964323E+03  0.26053159947E+03  0.90549900800E+02 0.  0.
        -11    1    3    3    0    0 -0.53042890992E+01  0.37790096977E+02 -0.19224469910E+03  0.19599553884E+03  0.51100000000E-03 0. -1.
         11    1    3    3    0    0  0.53042890992E+01 -0.37790096977E+02 -0.52044944122E+02  0.64536060627E+02  0.51100000000E-03 0.  1.
<mgrwt>
<rscale>  0 0.90549901E+02</rscale>
<asrwt>0</asrwt>
<pdfrwt beam="2">  1        1 0.38832397E-01 0.90549901E+02</pdfrwt>
<pdfrwt beam="1">  1       -1 0.12493814E-02 0.90549901E+02</pdfrwt>
<totfact> 0.12620416E+05</totfact>
</mgrwt>
</event>
<event>
 5    1  0.2718303E+000  0.9100935E+02  0.7818608E-02  0.1300426E+00
         -1   -1    0    0    0  501 -0.00000000000E+00  0.00000000000E+00  0.20440455996E+02  0.20440456530E+02  0.46700000000E-02 0.  1.
          1   -1    0    0  501    0  0.00000000000E+00 -0.00000000000E+00 -0.10130279811E+03  0.10130279822E+03  0.46700000000E-02 0. -1.
         23    2    1    2    0    0  0.00000000000E+00  0.00000000000E+00 -0.80862342117E+02  0.12174325475E+03  0.91009349545E+02 0.  0.
        -11    1    3    3    0    0  0.13764534743E+02 -0.26400393675E+02  0.56026828226E+01  0.30295763036E+02  0.51100000000E-03 0.  1.
         11    1    3    3    0    0 -0.13764534743E+02  0.26400393675E+02 -0.86465024940E+02  0.91447491715E+02  0.51100000000E-03 0. -1.
<mgrwt>
<rscale>  0 0.91009350E+02</rscale>
<asrwt>0</asrwt>
<pdfrwt beam="2">  1        1 0.15585046E-01 0.91009350E+02</pdfrwt>
<pdfrwt beam="1">  1       -1 0.31446857E-02 0.91009350E+02</pdfrwt>
<totfact> 0.10520323E+05</totfact>
</mgrwt>
</event>
<event>
 5    1  0.2718303E+000  0.9145268E+02  0.7818608E-02  0.1299371E+00
         -1   -1    0    0    0  501 -0.00000000000E+00  0.00000000000E+00  0.34997394096E+03  0.34997394099E+03  0.46700000000E-02 0.  1.
          1   -1    0    0  501    0  0.00000000000E+00 -0.00000000000E+00 -0.59744388499E+01  0.59744406751E+01  0.46700000000E-02 0. -1.
         23    2    1    2    0    0  0.00000000000E+00  0.00000000000E+00  0.34399950211E+03  0.35594838166E+03  0.91452681528E+02 0.  0.
        -11    1    3    3    0    0 -0.37600661039E+02 -0.21267937143E+02  0.23035142971E+03  0.23436705407E+03  0.51100000000E-03 0.  1.
         11    1    3    3    0    0  0.37600661039E+02  0.21267937143E+02  0.11364807239E+03  0.12158132759E+03  0.51100000000E-03 0. -1.
<mgrwt>
<rscale>  0 0.91452682E+02</rscale>
<asrwt>0</asrwt>
<pdfrwt beam="2">  1        1 0.91914452E-03 0.91452682E+02</pdfrwt>
<pdfrwt beam="1">  1       -1 0.53842149E-01 0.91452682E+02</pdfrwt>
<totfact> 0.56341304E+04</totfact>
</mgrwt>
</event>
<event>
 5    1  0.2718303E+000  0.1109286E+03  0.7818608E-02  0.1258860E+00
         -1   -1    0    0    0  501 -0.00000000000E+00  0.00000000000E+00  0.58520909875E+02  0.58520910061E+02  0.46700000000E-02 0. -1.
          1   -1    0    0  501    0  0.00000000000E+00 -0.00000000000E+00 -0.52567384306E+02  0.52567384513E+02  0.46700000000E-02 0.  1.
         23    2    1    2    0    0  0.00000000000E+00  0.00000000000E+00  0.59535255690E+01  0.11108829457E+03  0.11092864700E+03 0.  0.
        -11    1    3    3    0    0 -0.28619614331E+02 -0.74167185502E+01  0.49971916604E+02  0.58062746128E+02  0.51100000000E-03 0. -1.
         11    1    3    3    0    0  0.28619614331E+02  0.74167185502E+01 -0.44018391035E+02  0.53025548447E+02  0.51100000000E-03 0.  1.
<mgrwt>
<rscale>  0 0.11092865E+03</rscale>
<asrwt>0</asrwt>
<pdfrwt beam="2">  1        1 0.80872900E-02 0.11092865E+03</pdfrwt>
<pdfrwt beam="1">  1       -1 0.90032169E-02 0.11092865E+03</pdfrwt>
<totfact> 0.54182866E+04</totfact>
</mgrwt>
</event>
<event>
 5    1  0.2718303E+000  0.9401882E+02  0.7818608E-02  0.1293401E+00
         -1   -1    0    0    0  501 -0.00000000000E+00  0.00000000000E+00  0.10899481794E+03  0.10899481804E+03  0.46700000000E-02 0.  1.
          1   -1    0    0  501    0  0.00000000000E+00 -0.00000000000E+00 -0.20275132661E+02  0.20275133198E+02  0.46700000000E-02 0. -1.
         23    2    1    2    0    0  0.00000000000E+00  0.00000000000E+00  0.88719685277E+02  0.12926995124E+03  0.94018815866E+02 0.  0.
        -11    1    3    3    0    0  0.34890812752E+02  0.10396252515E+02  0.85249682808E+02  0.92698216272E+02  0.51100000000E-03 0.  1.
         11    1    3    3    0    0 -0.34890812752E+02 -0.10396252515E+02  0.34700024685E+01  0.36571734964E+02  0.51100000000E-03 0. -1.
<mgrwt>
<rscale>  0 0.94018816E+02</rscale>
<asrwt>0</asrwt>
<pdfrwt beam="2">  1        1 0.31192513E-02 0.94018816E+02</pdfrwt>
<pdfrwt beam="1">  1       -1 0.16768433E-01 0.94018816E+02</pdfrwt>
<totfact> 0.73946406E+04</totfact>
</mgrwt>
</event>
<event>
 5    1  0.2718303E+000  0.9075774E+02  0.7818608E-02  0.1301027E+00
          1   -1    0    0  501    0  0.00000000000E+00  0.00000000000E+00  0.26147097372E+03  0.26147097376E+03  0.46700000000E-02 0. -1.
         -1   -1    0    0    0  501 -0.00000000000E+00 -0.00000000000E+00 -0.78756024626E+01  0.78756038472E+01  0.46700000000E-02 0.  1.
         23    2    1    2    0    0  0.00000000000E+00  0.00000000000E+00  0.25359537126E+03  0.26934657761E+03  0.90757735463E+02 0.  0.
        -11    1    3    3    0    0  0.30798426030E+02 -0.30422602695E+02  0.16718136591E+03  0.17269535867E+03  0.51100000000E-03 0. -1.
         11    1    3    3    0    0 -0.30798426030E+02  0.30422602695E+02  0.86414005349E+02  0.96651218934E+02  0.51100000000E-03 0.  1.
<mgrwt>
<rscale>  0 0.90757735E+02</rscale>
<asrwt>0</asrwt>
<pdfrwt beam="1">  1        1 0.40226294E-01 0.90757735E+02</pdfrwt>
<pdfrwt beam="2">  1       -1 0.12116315E-02 0.90757735E+02</pdfrwt>
<totfact> 0.12630071E+05</totfact>
</mgrwt>
</event>
<event>
 5    1  0.2718303E+000  0.9018477E+02  0.7818608E-02  0.1302405E+00
          1   -1    0    0  501    0  0.00000000000E+00  0.00000000000E+00  0.19866636253E+03  0.19866636258E+03  0.46700000000E-02 0. -1.
         -1   -1    0    0    0  501 -0.00000000000E+00 -0.00000000000E+00 -0.10234862782E+02  0.10234863847E+02  0.46700000000E-02 0.  1.
         23    2    1    2    0    0  0.00000000000E+00  0.00000000000E+00  0.18843149975E+03  0.20890122643E+03  0.90184767602E+02 0.  0.
        -11    1    3    3    0    0  0.11229230764E+02 -0.42874693926E+02  0.11345529539E+03  0.12180492213E+03  0.51100000000E-03 0. -1.
         11    1    3    3    0    0 -0.11229230764E+02  0.42874693926E+02  0.74976204360E+02  0.87096304303E+02  0.51100000000E-03 0.  1.
<mgrwt>
<rscale>  0 0.90184768E+02</rscale>
<asrwt>0</asrwt>
<pdfrwt beam="1">  1        1 0.30564056E-01 0.90184768E+02</pdfrwt>
<pdfrwt beam="2">  1       -1 0.15745943E-02 0.90184768E+02</pdfrwt>
<totfact> 0.12176980E+05</totfact>
</mgrwt>
</event>
<event>
 5    1  0.2718303E+000  0.9514222E+02  0.7818608E-02  0.1290856E+00
         -1   -1    0    0    0  501 -0.00000000000E+00  0.00000000000E+00  0.11267729373E+03  0.11267729382E+03  0.46700000000E-02 0.  1.
          1   -1    0    0  501    0  0.00000000000E+00 -0.00000000000E+00 -0.20083995767E+02  0.20083996310E+02  0.46700000000E-02 0. -1.
         23    2    1    2    0    0  0.00000000000E+00  0.00000000000E+00  0.92593297959E+02  0.13276129013E+03  0.95142216343E+02 0.  0.
        -11    1    3    3    0    0  0.35323299305E+02 -0.19605078422E+02  0.11246982678E+02  0.41935536164E+02  0.51100000000E-03 0. -1.
         11    1    3    3    0    0 -0.35323299305E+02  0.19605078422E+02  0.81346315281E+02  0.90825753968E+02  0.51100000000E-03 0.  1.
<mgrwt>
<rscale>  0 0.95142216E+02</rscale>
<asrwt>0</asrwt>
<pdfrwt beam="2">  1        1 0.30898456E-02 0.95142216E+02</pdfrwt>
<pdfrwt beam="1">  1       -1 0.17334968E-01 0.95142216E+02</pdfrwt>
<totfact> 0.71239324E+04</totfact>
</mgrwt>
</event>
<event>
 5    1  0.2718303E+000  0.9148609E+02  0.7818608E-02  0.1299292E+00
         -1   -1    0    0    0  501 -0.00000000000E+00  0.00000000000E+00  0.50547796370E+02  0.50547796586E+02  0.46700000000E-02 0.  1.
          1   -1    0    0  501    0  0.00000000000E+00 -0.00000000000E+00 -0.41395001160E+02  0.41395001423E+02  0.46700000000E-02 0. -1.
         23    2    1    2    0    0  0.00000000000E+00  0.00000000000E+00  0.91527952100E+01  0.91942798009E+02  0.91486088809E+02 0.  0.
        -11    1    3    3    0    0 -0.36478410573E+02  0.16925787167E+02  0.26485903455E+02  0.48152464020E+02  0.51100000000E-03 0. -1.
         11    1    3    3    0    0  0.36478410573E+02 -0.16925787167E+02 -0.17333108245E+02  0.43790333989E+02  0.51100000000E-03 0.  1.
<mgrwt>
<rscale>  0 0.91486089E+02</rscale>
<asrwt>0</asrwt>
<pdfrwt beam="2">  1        1 0.63684618E-02 0.91486089E+02</pdfrwt>
<pdfrwt beam="1">  1       -1 0.77765841E-02 0.91486089E+02</pdfrwt>
<totfact> 0.90269174E+04</totfact>
</mgrwt>
</event>
<event>
 5    1  0.2718303E+000  0.9115690E+02  0.7818608E-02  0.1300074E+00
          1   -1    0    0  501    0  0.00000000000E+00  0.00000000000E+00  0.55633686766E+01  0.55633706367E+01  0.46700000000E-02 0. -1.
         -1   -1    0    0    0  501 -0.00000000000E+00 -0.00000000000E+00 -0.37340592221E+03  0.37340592224E+03  0.46700000000E-02 0.  1.
         23    2    1    2    0    0  0.00000000000E+00  0.00000000000E+00 -0.36784255353E+03  0.37896929288E+03  0.91156901839E+02 0.  0.
        -11    1    3    3    0    0  0.44308364537E+02 -0.52296395987E+01 -0.22265699151E+03  0.22708306006E+03  0.51100000000E-03 0.  1.
         11    1    3    3    0    0 -0.44308364537E+02  0.52296395987E+01 -0.14518556202E+03  0.15188623281E+03  0.51100000000E-03 0. -1.
<mgrwt>
<rscale>  0 0.91156902E+02</rscale>
<asrwt>0</asrwt>
<pdfrwt beam="1">  1        1 0.85590332E-03 0.91156902E+02</pdfrwt>
<pdfrwt beam="2">  1       -1 0.57447045E-01 0.91156902E+02</pdfrwt>
<totfact> 0.55149387E+04</totfact>
</mgrwt>
</event>
<event>
 5    1  0.2718303E+000  0.7749788E+02  0.7818608E-02  0.1336306E+00
          1   -1    0    0  501    0  0.00000000000E+00  0.00000000000E+00  0.22984715069E+03  0.22984715074E+03  0.46700000000E-02 0. -1.
         -1   -1    0    0    0  501 -0.00000000000E+00 -0.00000000000E+00 -0.65325156657E+01  0.65325173349E+01  0.46700000000E-02 0.  1.
         23    2    1    2    0    0  0.00000000000E+00  0.00000000000E+00  0.22331463502E+03  0.23637966807E+03  0.77497879080E+02 0.  0.
        -11    1    3    3    0    0  0.93308335150E+01  0.35286056963E+02  0.15134554141E+03  0.15568443460E+03  0.51100000000E-03 0. -1.
         11    1    3    3    0    0 -0.93308335150E+01 -0.35286056963E+02  0.71969093610E+02  0.80695233473E+02  0.51100000000E-03 0.  1.
<mgrwt>
<rscale>  0 0.77497879E+02</rscale>
<asrwt>0</asrwt>
<pdfrwt beam="1">  1        1 0.35361094E-01 0.77497879E+02</pdfrwt>
<pdfrwt beam="2">  1       -1 0.10050027E-02 0.77497879E+02</pdfrwt>
<totfact> 0.18719656E+05</totfact>
</mgrwt>
</event>
<event>
 5    1  0.2718303E+000  0.9083757E+02  0.7818608E-02  0.1300836E+00
         -1   -1    0    0    0  501 -0.00000000000E+00  0.00000000000E+00  0.22867711184E+03  0.22867711188E+03  0.46700000000E-02 0.  1.
          1   -1    0    0  501    0  0.00000000000E+00 -0.00000000000E+00 -0.90208670995E+01  0.90208683083E+01  0.46700000000E-02 0. -1.
         23    2    1    2    0    0  0.00000000000E+00  0.00000000000E+00  0.21965624474E+03  0.23769798019E+03  0.90837568966E+02 0.  0.
        -11    1    3    3    0    0  0.39889967387E+02  0.10039956942E+02  0.59436017747E+02  0.72281743472E+02  0.51100000000E-03 0. -1.
         11    1    3    3    0    0 -0.39889967387E+02 -0.10039956942E+02  0.16022022699E+03  0.16541623672E+03  0.51100000000E-03 0.  1.
<mgrwt>
<rscale>  0 0.90837569E+02</rscale>
<asrwt>0</asrwt>
<pdfrwt beam="2">  1        1 0.13878259E-02 0.90837569E+02</pdfrwt>
<pdfrwt beam="1">  1       -1 0.35181091E-01 0.90837569E+02</pdfrwt>
<totfact> 0.67334475E+04</totfact>
</mgrwt>
</event>
<event>
 5    1  0.2718303E+000  0.7598340E+02  0.7818608E-02  0.1340853E+00
         -1   -1    0    0    0  501 -0.00000000000E+00  0.00000000000E+00  0.17030186006E+02  0.17030186646E+02  0.46700000000E-02 0.  1.
          1   -1    0    0  501    0  0.00000000000E+00 -0.00000000000E+00 -0.84753586092E+02  0.84753586221E+02  0.46700000000E-02 0. -1.
         23    2    1    2    0    0  0.00000000000E+00  0.00000000000E+00 -0.67723400087E+02  0.10178377287E+03  0.75983402791E+02 0.  0.
        -11    1    3    3    0    0 -0.32871386732E+02  0.15199998113E+02 -0.49240404910E+02  0.61124344449E+02  0.51100000000E-03 0. -1.
         11    1    3    3    0    0  0.32871386732E+02 -0.15199998113E+02 -0.18482995177E+02  0.40659428418E+02  0.51100000000E-03 0.  1.
<mgrwt>
<rscale>  0 0.75983403E+02</rscale>
<asrwt>0</asrwt>
<pdfrwt beam="2">  1        1 0.13039013E-01 0.75983403E+02</pdfrwt>
<pdfrwt beam="1">  1       -1 0.26200287E-02 0.75983403E+02</pdfrwt>
<totfact> 0.16648948E+05</totfact>
</mgrwt>
</event>
<event>
 5    1  0.2718303E+000  0.9067435E+02  0.7818608E-02  0.1301227E+00
         -1   -1    0    0    0  501 -0.00000000000E+00  0.00000000000E+00  0.63658551317E+02  0.63658551488E+02  0.46700000000E-02 0.  1.
          1   -1    0    0  501    0  0.00000000000E+00 -0.00000000000E+00 -0.32288821431E+02  0.32288821768E+02  0.46700000000E-02 0. -1.
         23    2    1    2    0    0  0.00000000000E+00  0.00000000000E+00  0.31369729886E+02  0.95947373257E+02  0.90674354046E+02 0.  0.
        -11    1    3    3    0    0  0.26836457247E+02 -0.27477285768E+02  0.41174348704E+02  0.56307403263E+02  0.51100000000E-03 0.  1.
         11    1    3    3    0    0 -0.26836457247E+02  0.27477285768E+02 -0.98046188172E+01  0.39639969994E+02  0.51100000000E-03 0. -1.
<mgrwt>
<rscale>  0 0.90674354E+02</rscale>
<asrwt>0</asrwt>
<pdfrwt beam="2">  1        1 0.49675111E-02 0.90674354E+02</pdfrwt>
<pdfrwt beam="1">  1       -1 0.97936232E-02 0.90674354E+02</pdfrwt>
<totfact> 0.89103475E+04</totfact>
</mgrwt>
</event>
<event>
 5    1  0.2718303E+000  0.9057553E+02  0.7818608E-02  0.1301464E+00
         -1   -1    0    0    0  501 -0.00000000000E+00  0.00000000000E+00  0.32711092182E+03  0.32711092185E+03  0.46700000000E-02 0.  1.
          1   -1    0    0  501    0  0.00000000000E+00 -0.00000000000E+00 -0.62699873837E+01  0.62699891229E+01  0.46700000000E-02 0. -1.
         23    2    1    2    0    0  0.00000000000E+00  0.00000000000E+00  0.32084093443E+03  0.33338091097E+03  0.90575529771E+02 0.  0.
        -11    1    3    3    0    0 -0.38884321041E+02 -0.14612117773E+02  0.22682384295E+03  0.23059609740E+03  0.51100000000E-03 0.  1.
         11    1    3    3    0    0  0.38884321041E+02  0.14612117773E+02  0.94017091487E+02  0.10278481357E+03  0.51100000000E-03 0. -1.
<mgrwt>
<rscale>  0 0.90575530E+02</rscale>
<asrwt>0</asrwt>
<pdfrwt beam="2">  1        1 0.96461361E-03 0.90575530E+02</pdfrwt>
<pdfrwt beam="1">  1       -1 0.50324756E-01 0.90575530E+02</pdfrwt>
<totfact> 0.59505214E+04</totfact>
</mgrwt>
</event>
<event>
 5    1  0.2718303E+000  0.9213844E+02  0.7818608E-02  0.1297754E+00
         -1   -1    0    0    0  501 -0.00000000000E+00  0.00000000000E+00  0.23691518478E+02  0.23691518938E+02  0.46700000000E-02 0. -1.
          1   -1    0    0  501    0  0.00000000000E+00 -0.00000000000E+00 -0.89583669114E+02  0.89583669236E+02  0.46700000000E-02 0.  1.
         23    2    1    2    0    0  0.00000000000E+00  0.00000000000E+00 -0.65892150636E+02  0.11327518817E+03  0.92138443336E+02 0.  0.
        -11    1    3    3    0    0  0.25415024489E+02  0.30109624920E+02 -0.62294046613E+02  0.73709302169E+02  0.51100000000E-03 0.  1.
         11    1    3    3    0    0 -0.25415024489E+02 -0.30109624920E+02 -0.35981040236E+01  0.39565886005E+02  0.51100000000E-03 0. -1.
<mgrwt>
<rscale>  0 0.92138443E+02</rscale>
<asrwt>0</asrwt>
<pdfrwt beam="2">  1        1 0.13782103E-01 0.92138443E+02</pdfrwt>
<pdfrwt beam="1">  1       -1 0.36448491E-02 0.92138443E+02</pdfrwt>
<totfact> 0.99676913E+04</totfact>
</mgrwt>
</event>
<event>
 5    1  0.2718303E+000  0.9295442E+02  0.7818608E-02  0.1295851E+00
          1   -1    0    0  501    0  0.00000000000E+00  0.00000000000E+00  0.26785635326E+02  0.26785635734E+02  0.46700000000E-02 0. -1.
         -1   -1    0    0    0  501 -0.00000000000E+00 -0.00000000000E+00 -0.80645133275E+02  0.80645133411E+02  0.46700000000E-02 0.  1.
         23    2    1    2    0    0  0.00000000000E+00  0.00000000000E+00 -0.53859497949E+02  0.10743076914E+03  0.92954422378E+02 0.  0.
        -11    1    3    3    0    0  0.38567746472E+02  0.21075559356E+02 -0.94601245189E+01  0.44957137656E+02  0.51100000000E-03 0.  1.
         11    1    3    3    0    0 -0.38567746472E+02 -0.21075559356E+02 -0.44399373430E+02  0.62473631488E+02  0.51100000000E-03 0. -1.
<mgrwt>
<rscale>  0 0.92954422E+02</rscale>
<asrwt>0</asrwt>
<pdfrwt beam="1">  1        1 0.41208671E-02 0.92954422E+02</pdfrwt>
<pdfrwt beam="2">  1       -1 0.12406944E-01 0.92954422E+02</pdfrwt>
<totfact> 0.80453147E+04</totfact>
</mgrwt>
</event>
<event>
 5    1  0.2718303E+000  0.9175036E+02  0.7818608E-02  0.1298667E+00
         -1   -1    0    0    0  501 -0.00000000000E+00  0.00000000000E+00  0.31125454559E+02  0.31125454909E+02  0.46700000000E-02 0.  1.
          1   -1    0    0  501    0  0.00000000000E+00 -0.00000000000E+00 -0.67614501232E+02  0.67614501393E+02  0.46700000000E-02 0. -1.
         23    2    1    2    0    0  0.00000000000E+00  0.00000000000E+00 -0.36489046673E+02  0.98739956302E+02  0.91750359364E+02 0.  0.
        -11    1    3    3    0    0 -0.43552839486E+02 -0.12358028979E+02 -0.26222891301E+02  0.52318359454E+02  0.51100000000E-03 0.  1.
         11    1    3    3    0    0  0.43552839486E+02  0.12358028979E+02 -0.10266155372E+02  0.46421596848E+02  0.51100000000E-03 0. -1.
<mgrwt>
<rscale>  0 0.91750359E+02</rscale>
<asrwt>0</asrwt>
<pdfrwt beam="2">  1        1 0.10402231E-01 0.91750359E+02</pdfrwt>
<pdfrwt beam="1">  1       -1 0.47885315E-02 0.91750359E+02</pdfrwt>
<totfact> 0.96454636E+04</totfact>
</mgrwt>
</event>
<event>
 5    1  0.2718303E+000  0.9102266E+02  0.7818608E-02  0.1300394E+00
         -1   -1    0    0    0  501 -0.00000000000E+00  0.00000000000E+00  0.15672004504E+02  0.15672005200E+02  0.46700000000E-02 0.  1.
          1   -1    0    0  501    0  0.00000000000E+00 -0.00000000000E+00 -0.13216441166E+03  0.13216441174E+03  0.46700000000E-02 0. -1.
         23    2    1    2    0    0  0.00000000000E+00  0.00000000000E+00 -0.11649240716E+03  0.14783641694E+03  0.91022663385E+02 0.  0.
        -11    1    3    3    0    0 -0.18765171252E+02 -0.30318621941E+02 -0.12309682145E+02  0.37721065245E+02  0.51100000000E-03 0.  1.
         11    1    3    3    0    0  0.18765171252E+02  0.30318621941E+02 -0.10418272501E+03  0.11011535170E+03  0.51100000000E-03 0. -1.
<mgrwt>
<rscale>  0 0.91022663E+02</rscale>
<asrwt>0</asrwt>
<pdfrwt beam="2">  1        1 0.20332986E-01 0.91022663E+02</pdfrwt>
<pdfrwt beam="1">  1       -1 0.24110778E-02 0.91022663E+02</pdfrwt>
<totfact> 0.11009250E+05</totfact>
</mgrwt>
</event>
<event>
 5    1  0.2718303E+000  0.8977123E+02  0.7818608E-02  0.1303407E+00
          1   -1    0    0  501    0  0.00000000000E+00  0.00000000000E+00  0.44151025850E+02  0.44151026097E+02  0.46700000000E-02 0. -1.
         -1   -1    0    0    0  501 -0.00000000000E+00 -0.00000000000E+00 -0.45632426035E+02  0.45632426274E+02  0.46700000000E-02 0.  1.
         23    2    1    2    0    0  0.00000000000E+00  0.00000000000E+00 -0.14814001853E+01  0.89783452371E+02  0.89771230208E+02 0.  0.
        -11    1    3    3    0    0 -0.23152759859E+02  0.34880933252E+02 -0.16928967223E+02  0.45158827765E+02  0.51100000000E-03 0.  1.
         11    1    3    3    0    0  0.23152759859E+02 -0.34880933252E+02  0.15447567038E+02  0.44624624606E+02  0.51100000000E-03 0. -1.
<mgrwt>
<rscale>  0 0.89771230E+02</rscale>
<asrwt>0</asrwt>
<pdfrwt beam="1">  1        1 0.67924655E-02 0.89771230E+02</pdfrwt>
<pdfrwt beam="2">  1       -1 0.70203733E-02 0.89771230E+02</pdfrwt>
<totfact> 0.96127162E+04</totfact>
</mgrwt>
</event>
<event>
 5    1  0.2718303E+000  0.9182388E+02  0.7818608E-02  0.1298494E+00
         -1   -1    0    0    0  501 -0.00000000000E+00  0.00000000000E+00  0.88535253456E+02  0.88535253580E+02  0.46700000000E-02 0.  1.
          1   -1    0    0  501    0  0.00000000000E+00 -0.00000000000E+00 -0.23808666825E+02  0.23808667283E+02  0.46700000000E-02 0. -1.
         23    2    1    2    0    0  0.00000000000E+00  0.00000000000E+00  0.64726586631E+02  0.11234392086E+03  0.91823883265E+02 0.  0.
        -11    1    3    3    0    0 -0.35302055348E+02  0.24171188118E+02  0.52741533185E+02  0.67912817419E+02  0.51100000000E-03 0.  1.
         11    1    3    3    0    0  0.35302055348E+02 -0.24171188118E+02  0.11985053446E+02  0.44431103444E+02  0.51100000000E-03 0. -1.
<mgrwt>
<rscale>  0 0.91823883E+02</rscale>
<asrwt>0</asrwt>
<pdfrwt beam="2">  1        1 0.36628719E-02 0.91823883E+02</pdfrwt>
<pdfrwt beam="1">  1       -1 0.13620808E-01 0.91823883E+02</pdfrwt>
<totfact> 0.81684848E+04</totfact>
</mgrwt>
</event>
<event>
 5    1  0.2718303E+000  0.9265155E+02  0.7818608E-02  0.1296555E+00
         -1   -1    0    0    0  501 -0.00000000000E+00  0.00000000000E+00  0.63466680104E+01  0.63466697285E+01  0.46700000000E-02 0.  1.
          1   -1    0    0  501    0  0.00000000000E+00 -0.00000000000E+00 -0.33814232218E+03  0.33814232222E+03  0.46700000000E-02 0. -1.
         23    2    1    2    0    0  0.00000000000E+00  0.00000000000E+00 -0.33179565417E+03  0.34448899195E+03  0.92651548517E+02 0.  0.
        -11    1    3    3    0    0 -0.39348433189E+02  0.20350838770E+02 -0.21628087821E+03  0.22077108985E+03  0.51100000000E-03 0.  1.
         11    1    3    3    0    0  0.39348433189E+02 -0.20350838770E+02 -0.11551477597E+03  0.12371790210E+03  0.51100000000E-03 0. -1.
<mgrwt>
<rscale>  0 0.92651549E+02</rscale>
<asrwt>0</asrwt>
<pdfrwt beam="2">  1        1 0.52021882E-01 0.92651549E+02</pdfrwt>
<pdfrwt beam="1">  1       -1 0.97641086E-03 0.92651549E+02</pdfrwt>
<totfact> 0.12553383E+05</totfact>
</mgrwt>
</event>
<event>
 5    1  0.2718303E+000  0.9217265E+02  0.7818608E-02  0.1297674E+00
         -1   -1    0    0    0  501 -0.00000000000E+00  0.00000000000E+00  0.13652879022E+02  0.13652879821E+02  0.46700000000E-02 0.  1.
          1   -1    0    0  501    0  0.00000000000E+00 -0.00000000000E+00 -0.15556787765E+03  0.15556787772E+03  0.46700000000E-02 0. -1.
         23    2    1    2    0    0  0.00000000000E+00  0.00000000000E+00 -0.14191499863E+03  0.16922075754E+03  0.92172652925E+02 0.  0.
        -11    1    3    3    0    0 -0.13454878205E+01  0.45321218500E+02 -0.55804138743E+02  0.71902191100E+02  0.51100000000E-03 0.  1.
         11    1    3    3    0    0  0.13454878205E+01 -0.45321218500E+02 -0.86110859886E+02  0.97318566443E+02  0.51100000000E-03 0. -1.
<mgrwt>
<rscale>  0 0.92172653E+02</rscale>
<asrwt>0</asrwt>
<pdfrwt beam="2">  1        1 0.23933519E-01 0.92172653E+02</pdfrwt>
<pdfrwt beam="1">  1       -1 0.21004431E-02 0.92172653E+02</pdfrwt>
<totfact> 0.10962714E+05</totfact>
</mgrwt>
</event>
<event>
 5    1  0.2718303E+000  0.1075437E+03  0.7818608E-02  0.1265187E+00
          1   -1    0    0  501    0  0.00000000000E+00  0.00000000000E+00  0.88224056691E+02  0.88224056815E+02  0.46700000000E-02 0. -1.
         -1   -1    0    0    0  501 -0.00000000000E+00 -0.00000000000E+00 -0.32773482234E+02  0.32773482567E+02  0.46700000000E-02 0.  1.
         23    2    1    2    0    0  0.00000000000E+00  0.00000000000E+00  0.55450574457E+02  0.12099753938E+03  0.10754365778E+03 0.  0.
        -11    1    3    3    0    0 -0.16696436086E+02 -0.21730567915E+02  0.79777756779E+02  0.84353298909E+02  0.51100000000E-03 0. -1.
         11    1    3    3    0    0  0.16696436086E+02  0.21730567915E+02 -0.24327182322E+02  0.36644240473E+02  0.51100000000E-03 0.  1.
<mgrwt>
<rscale>  0 0.10754366E+03</rscale>
<asrwt>0</asrwt>
<pdfrwt beam="1">  1        1 0.13572932E-01 0.10754366E+03</pdfrwt>
<pdfrwt beam="2">  1       -1 0.50420743E-02 0.10754366E+03</pdfrwt>
<totfact> 0.64785830E+04</totfact>
</mgrwt>
</event>
<event>
 5    1  0.2718303E+000  0.9203234E+02  0.7818608E-02  0.1298003E+00
         -1   -1    0    0    0  501 -0.00000000000E+00  0.00000000000E+00  0.30143897754E+02  0.30143898116E+02  0.46700000000E-02 0.  1.
          1   -1    0    0  501    0  0.00000000000E+00 -0.00000000000E+00 -0.70245981325E+02  0.70245981480E+02  0.46700000000E-02 0. -1.
         23    2    1    2    0    0  0.00000000000E+00  0.00000000000E+00 -0.40102083571E+02  0.10038987960E+03  0.92032335723E+02 0.  0.
        -11    1    3    3    0    0 -0.24771584363E+02 -0.13824832546E+02 -0.59572890080E+02  0.65982472063E+02  0.51100000000E-03 0. -1.
         11    1    3    3    0    0  0.24771584363E+02  0.13824832546E+02  0.19470806509E+02  0.34407407534E+02  0.51100000000E-03 0.  1.
<mgrwt>
<rscale>  0 0.92032336E+02</rscale>
<asrwt>0</asrwt>
<pdfrwt beam="2">  1        1 0.10807074E-01 0.92032336E+02</pdfrwt>
<pdfrwt beam="1">  1       -1 0.46375228E-02 0.92032336E+02</pdfrwt>
<totfact> 0.96206463E+04</totfact>
</mgrwt>
</event>
<event>
 5    1  0.2718303E+000  0.9174778E+02  0.7818608E-02  0.1298674E+00
         -1   -1    0    0    0  501 -0.00000000000E+00  0.00000000000E+00  0.38423797385E+02  0.38423797668E+02  0.46700000000E-02 0.  1.
          1   -1    0    0  501    0  0.00000000000E+00 -0.00000000000E+00 -0.54768497143E+02  0.54768497342E+02  0.46700000000E-02 0. -1.
         23    2    1    2    0    0  0.00000000000E+00  0.00000000000E+00 -0.16344699759E+02  0.93192295011E+02  0.91747777298E+02 0.  0.
        -11    1    3    3    0    0 -0.49594892600E+00  0.20869556022E+02  0.33319652228E+02  0.39318997428E+02  0.51100000000E-03 0.  1.
         11    1    3    3    0    0  0.49594892600E+00 -0.20869556022E+02 -0.49664351987E+02  0.53873297583E+02  0.51100000000E-03 0. -1.
<mgrwt>
<rscale>  0 0.91747777E+02</rscale>
<asrwt>0</asrwt>
<pdfrwt beam="2">  1        1 0.84259227E-02 0.91747777E+02</pdfrwt>
<pdfrwt beam="1">  1       -1 0.59113535E-02 0.91747777E+02</pdfrwt>
<totfact> 0.93414838E+04</totfact>
</mgrwt>
</event>
<event>
 5    1  0.2718303E+000  0.9226741E+02  0.7818608E-02  0.1297452E+00
         -1   -1    0    0    0  501 -0.00000000000E+00  0.00000000000E+00  0.30808903994E+02  0.30808904348E+02  0.46700000000E-02 0. -1.
          1   -1    0    0  501    0  0.00000000000E+00 -0.00000000000E+00 -0.69081279865E+02  0.69081280023E+02  0.46700000000E-02 0.  1.
         23    2    1    2    0    0  0.00000000000E+00  0.00000000000E+00 -0.38272375871E+02  0.99890184371E+02  0.92267405831E+02 0.  0.
        -11    1    3    3    0    0 -0.76537481886E+01 -0.36519499341E+02 -0.48508121975E+02  0.61198787498E+02  0.51100000000E-03 0.  1.
         11    1    3    3    0    0  0.76537481886E+01  0.36519499341E+02  0.10235746104E+02  0.38691396873E+02  0.51100000000E-03 0. -1.
<mgrwt>
<rscale>  0 0.92267406E+02</rscale>
<asrwt>0</asrwt>
<pdfrwt beam="2">  1        1 0.10627889E-01 0.92267406E+02</pdfrwt>
<pdfrwt beam="1">  1       -1 0.47398314E-02 0.92267406E+02</pdfrwt>
<totfact> 0.95282526E+04</totfact>
</mgrwt>
</event>
<event>
 5    1  0.2718303E+000  0.9082371E+02  0.7818608E-02  0.1300869E+00
         -1   -1    0    0    0  501 -0.00000000000E+00  0.00000000000E+00  0.79651481121E+02  0.79651481258E+02  0.46700000000E-02 0.  1.
          1   -1    0    0  501    0  0.00000000000E+00 -0.00000000000E+00 -0.25890750520E+02  0.25890750941E+02  0.46700000000E-02 0. -1.
         23    2    1    2    0    0  0.00000000000E+00  0.00000000000E+00  0.53760730601E+02  0.10554223220E+03  0.90823711787E+02 0.  0.
        -11    1    3    3    0    0 -0.38373059593E+02  0.11079407077E+02  0.17683477889E+01  0.39979645044E+02  0.51100000000E-03 0. -1.
         11    1    3    3    0    0  0.38373059593E+02 -0.11079407077E+02  0.51992382812E+02  0.65562587155E+02  0.51100000000E-03 0.  1.
<mgrwt>
<rscale>  0 0.90823712E+02</rscale>
<asrwt>0</asrwt>
<pdfrwt beam="2">  1        1 0.39831925E-02 0.90823712E+02</pdfrwt>
<pdfrwt beam="1">  1       -1 0.12254074E-01 0.90823712E+02</pdfrwt>
<totfact> 0.85558455E+04</totfact>
</mgrwt>
</event>
<event>
 5    1  0.2718303E+000  0.9428805E+02  0.7818608E-02  0.1292788E+00
          1   -1    0    0  501    0  0.00000000000E+00  0.00000000000E+00  0.15271614636E+03  0.15271614643E+03  0.46700000000E-02 0. -1.
         -1   -1    0    0    0  501 -0.00000000000E+00 -0.00000000000E+00 -0.14553531234E+02  0.14553531983E+02  0.46700000000E-02 0.  1.
         23    2    1    2    0    0  0.00000000000E+00  0.00000000000E+00  0.13816261513E+03  0.16726967841E+03  0.94288053849E+02 0.  0.
        -11    1    3    3    0    0  0.18048557283E+02 -0.25599222301E+02  0.65738361764E+01  0.32004467262E+02  0.51100000000E-03 0.  1.
         11    1    3    3    0    0 -0.18048557283E+02  0.25599222301E+02  0.13158877895E+03  0.13526521115E+03  0.51100000000E-03 0. -1.
<mgrwt>
<rscale>  0 0.94288054E+02</rscale>
<asrwt>0</asrwt>
<pdfrwt beam="1">  1        1 0.23494792E-01 0.94288054E+02</pdfrwt>
<pdfrwt beam="2">  1       -1 0.22390048E-02 0.94288054E+02</pdfrwt>
<totfact> 0.10274556E+05</totfact>
</mgrwt>
</event>
<event>
 5    1  0.2718303E+000  0.8859380E+02  0.7818608E-02  0.1306293E+00
          1   -1    0    0  501    0  0.00000000000E+00  0.00000000000E+00  0.30435570861E+02  0.30435571220E+02  0.46700000000E-02 0. -1.
         -1   -1    0    0    0  501 -0.00000000000E+00 -0.00000000000E+00 -0.64471125856E+02  0.64471126025E+02  0.46700000000E-02 0.  1.
         23    2    1    2    0    0  0.00000000000E+00  0.00000000000E+00 -0.34035554994E+02  0.94906697244E+02  0.88593804400E+02 0.  0.
        -11    1    3    3    0    0  0.32495313547E+02  0.26252067705E+02 -0.32801974877E+02  0.53113896651E+02  0.51100000000E-03 0.  1.
         11    1    3    3    0    0 -0.32495313547E+02 -0.26252067705E+02 -0.12335801171E+01  0.41792800594E+02  0.51100000000E-03 0. -1.
<mgrwt>
<rscale>  0 0.88593804E+02</rscale>
<asrwt>0</asrwt>
<pdfrwt beam="1">  1        1 0.46823956E-02 0.88593804E+02</pdfrwt>
<pdfrwt beam="2">  1       -1 0.99186348E-02 0.88593804E+02</pdfrwt>
<totfact> 0.94324232E+04</totfact>
</mgrwt>
</event>
<event>
 5    1  0.2718303E+000  0.9268947E+02  0.7818608E-02  0.1296466E+00
          1   -1    0    0  501    0  0.00000000000E+00  0.00000000000E+00  0.27230970712E+02  0.27230971112E+02  0.46700000000E-02 0. -1.
         -1   -1    0    0    0  501 -0.00000000000E+00 -0.00000000000E+00 -0.78874684844E+02  0.78874684982E+02  0.46700000000E-02 0.  1.
         23    2    1    2    0    0  0.00000000000E+00  0.00000000000E+00 -0.51643714132E+02  0.10610565609E+03  0.92689465669E+02 0.  0.
        -11    1    3    3    0    0 -0.38955690975E+02  0.14116534804E+02 -0.49587674705E+02  0.64620119909E+02  0.51100000000E-03 0.  1.
         11    1    3    3    0    0  0.38955690975E+02 -0.14116534804E+02 -0.20560394271E+01  0.41485536185E+02  0.51100000000E-03 0. -1.
<mgrwt>
<rscale>  0 0.92689466E+02</rscale>
<asrwt>0</asrwt>
<pdfrwt beam="1">  1        1 0.41893802E-02 0.92689466E+02</pdfrwt>
<pdfrwt beam="2">  1       -1 0.12134567E-01 0.92689466E+02</pdfrwt>
<totfact> 0.81350784E+04</totfact>
</mgrwt>
</event>
<event>
 5    1  0.2718303E+000  0.1014963E+03  0.7818608E-02  0.1277181E+00
         -1   -1    0    0    0  501 -0.00000000000E+00  0.00000000000E+00  0.68107710842E+02  0.68107711002E+02  0.46700000000E-02 0.  1.
          1   -1    0    0  501    0  0.00000000000E+00 -0.00000000000E+00 -0.37813236046E+02  0.37813236334E+02  0.46700000000E-02 0. -1.
         23    2    1    2    0    0  0.00000000000E+00  0.00000000000E+00  0.30294474796E+02  0.10592094734E+03  0.10149626536E+03 0.  0.
        -11    1    3    3    0    0  0.56140710263E+01  0.34112149356E+02 -0.23623618860E+02  0.41871612048E+02  0.51100000000E-03 0. -1.
         11    1    3    3    0    0 -0.56140710263E+01 -0.34112149356E+02  0.53918093656E+02  0.64049335289E+02  0.51100000000E-03 0.  1.
<mgrwt>
<rscale>  0 0.10149627E+03</rscale>
<asrwt>0</asrwt>
<pdfrwt beam="2">  1        1 0.58174210E-02 0.10149627E+03</pdfrwt>
<pdfrwt beam="1">  1       -1 0.10478109E-01 0.10149627E+03</pdfrwt>
<totfact> 0.66131613E+04</totfact>
</mgrwt>
</event>
<event>
 5    1  0.2718303E+000  0.9087401E+02  0.7818608E-02  0.1300749E+00
         -1   -1    0    0    0  501 -0.00000000000E+00  0.00000000000E+00  0.43994345234E+02  0.43994345482E+02  0.46700000000E-02 0.  1.
          1   -1    0    0  501    0  0.00000000000E+00 -0.00000000000E+00 -0.46926969727E+02  0.46926969960E+02  0.46700000000E-02 0. -1.
         23    2    1    2    0    0  0.00000000000E+00  0.00000000000E+00 -0.29326244934E+01  0.90921315441E+02  0.90874007918E+02 0.  0.
        -11    1    3    3    0    0 -0.19383692854E+02 -0.43020156794E+01  0.39424101560E+02  0.44141756553E+02  0.51100000000E-03 0.  1.
         11    1    3    3    0    0  0.19383692854E+02  0.43020156794E+01 -0.42356726053E+02  0.46779558888E+02  0.51100000000E-03 0. -1.
<mgrwt>
<rscale>  0 0.90874008E+02</rscale>
<asrwt>0</asrwt>
<pdfrwt beam="2">  1        1 0.72195338E-02 0.90874008E+02</pdfrwt>
<pdfrwt beam="1">  1       -1 0.67683609E-02 0.90874008E+02</pdfrwt>
<totfact> 0.93745229E+04</totfact>
</mgrwt>
</event>
<event>
 5    1  0.2718303E+000  0.9193356E+02  0.7818608E-02  0.1298236E+00
         -1   -1    0    0    0  501 -0.00000000000E+00  0.00000000000E+00  0.37515339195E+02  0.37515339485E+02  0.46700000000E-02 0.  1.
          1   -1    0    0  501    0  0.00000000000E+00 -0.00000000000E+00 -0.56322158916E+02  0.56322159109E+02  0.46700000000E-02 0. -1.
         23    2    1    2    0    0  0.00000000000E+00  0.00000000000E+00 -0.18806819721E+02  0.93837498594E+02  0.91933561197E+02 0.  0.
        -11    1    3    3    0    0  0.95511200627E+01  0.25259179641E+02 -0.47371828014E+02  0.54528342541E+02  0.51100000000E-03 0. -1.
         11    1    3    3    0    0 -0.95511200627E+01 -0.25259179641E+02  0.28565008293E+02  0.39309156053E+02  0.51100000000E-03 0.  1.
<mgrwt>
<rscale>  0 0.91933561E+02</rscale>
<asrwt>0</asrwt>
<pdfrwt beam="2">  1        1 0.86649475E-02 0.91933561E+02</pdfrwt>
<pdfrwt beam="1">  1       -1 0.57715907E-02 0.91933561E+02</pdfrwt>
<totfact> 0.93283234E+04</totfact>
</mgrwt>
</event>
<event>
 5    1  0.2718303E+000  0.9367582E+02  0.7818608E-02  0.1294187E+00
          1   -1    0    0  501    0  0.00000000000E+00  0.00000000000E+00  0.35273432336E+02  0.35273432645E+02  0.46700000000E-02 0. -1.
         -1   -1    0    0    0  501 -0.00000000000E+00 -0.00000000000E+00 -0.62193831408E+02  0.62193831584E+02  0.46700000000E-02 0.  1.
         23    2    1    2    0    0  0.00000000000E+00  0.00000000000E+00 -0.26920399073E+02  0.97467264228E+02  0.93675822441E+02 0.  0.
        -11    1    3    3    0    0  0.42903631344E+02 -0.11219764776E+02 -0.29142916386E+02  0.53065188965E+02  0.51100000000E-03 0.  1.
         11    1    3    3    0    0 -0.42903631344E+02  0.11219764776E+02  0.22225173138E+01  0.44402075263E+02  0.51100000000E-03 0. -1.
<mgrwt>
<rscale>  0 0.93675822E+02</rscale>
<asrwt>0</asrwt>
<pdfrwt beam="1">  1        1 0.54266819E-02 0.93675822E+02</pdfrwt>
<pdfrwt beam="2">  1       -1 0.95682818E-02 0.93675822E+02</pdfrwt>
<totfact> 0.82327571E+04</totfact>
</mgrwt>
</event>
<event>
 5    1  0.2718303E+000  0.8963681E+02  0.7818608E-02  0.1303734E+00
          1   -1    0    0  501    0  0.00000000000E+00  0.00000000000E+00  0.92441287962E+01  0.92441299758E+01  0.46700000000E-02 0. -1.
         -1   -1    0    0    0  501 -0.00000000000E+00 -0.00000000000E+00 -0.21729350206E+03  0.21729350211E+03  0.46700000000E-02 0.  1.
         23    2    1    2    0    0  0.00000000000E+00  0.00000000000E+00 -0.20804937327E+03  0.22653763209E+03  0.89636806256E+02 0.  0.
        -11    1    3    3    0    0  0.29171534577E+02 -0.10297548879E+02 -0.18598318578E+03  0.18853849298E+03  0.51100000000E-03 0.  1.
         11    1    3    3    0    0 -0.29171534577E+02  0.10297548879E+02 -0.22066187487E+02  0.37999139108E+02  0.51100000000E-03 0. -1.
<mgrwt>
<rscale>  0 0.89636806E+02</rscale>
<asrwt>0</asrwt>
<pdfrwt beam="1">  1        1 0.14221739E-02 0.89636806E+02</pdfrwt>
<pdfrwt beam="2">  1       -1 0.33429766E-01 0.89636806E+02</pdfrwt>
<totfact> 0.70820749E+04</totfact>
</mgrwt>
</event>
<event>
 5    1  0.2718303E+000  0.9024936E+02  0.7818608E-02  0.1302249E+00
         -1   -1    0    0    0  501 -0.00000000000E+00  0.00000000000E+00  0.21566629170E+02  0.21566629676E+02  0.46700000000E-02 0.  1.
          1   -1    0    0  501    0  0.00000000000E+00 -0.00000000000E+00 -0.94416078172E+02  0.94416078288E+02  0.46700000000E-02 0. -1.
         23    2    1    2    0    0  0.00000000000E+00  0.00000000000E+00 -0.72849449002E+02  0.11598270796E+03  0.90249356378E+02 0.  0.
        -11    1    3    3    0    0 -0.25532061241E+01  0.16221552346E+02  0.17590434374E+02  0.24064101972E+02  0.51100000000E-03 0.  1.
         11    1    3    3    0    0  0.25532061241E+01 -0.16221552346E+02 -0.90439883376E+02  0.91918605991E+02  0.51100000000E-03 0. -1.
<mgrwt>
<rscale>  0 0.90249356E+02</rscale>
<asrwt>0</asrwt>
<pdfrwt beam="2">  1        1 0.14525550E-01 0.90249356E+02</pdfrwt>
<pdfrwt beam="1">  1       -1 0.33179431E-02 0.90249356E+02</pdfrwt>
<totfact> 0.10639084E+05</totfact>
</mgrwt>
</event>
<event>
 5    1  0.2718303E+000  0.8959331E+02  0.7818608E-02  0.1303840E+00
         -1   -1    0    0    0  501 -0.00000000000E+00  0.00000000000E+00  0.90981442418E+01  0.90981454403E+01  0.46700000000E-02 0.  1.
          1   -1    0    0  501    0  0.00000000000E+00 -0.00000000000E+00 -0.22056586146E+03  0.22056586151E+03  0.46700000000E-02 0. -1.
         23    2    1    2    0    0  0.00000000000E+00  0.00000000000E+00 -0.21146771722E+03  0.22966400695E+03  0.89593307020E+02 0.  0.
        -11    1    3    3    0    0 -0.38553400868E+02  0.17565286636E+02 -0.68424532038E+02  0.80478696547E+02  0.51100000000E-03 0.  1.
         11    1    3    3    0    0  0.38553400868E+02 -0.17565286636E+02 -0.14304318518E+03  0.14918531040E+03  0.51100000000E-03 0. -1.
<mgrwt>
<rscale>  0 0.89593307E+02</rscale>
<asrwt>0</asrwt>
<pdfrwt beam="2">  1        1 0.33933206E-01 0.89593307E+02</pdfrwt>
<pdfrwt beam="1">  1       -1 0.13997148E-02 0.89593307E+02</pdfrwt>
<totfact> 0.12647023E+05</totfact>
</mgrwt>
</event>
<event>
 5    1  0.2718303E+000  0.9317311E+02  0.7818608E-02  0.1295345E+00
          1   -1    0    0  501    0  0.00000000000E+00  0.00000000000E+00  0.13138987657E+03  0.13138987665E+03  0.46700000000E-02 0. -1.
         -1   -1    0    0    0  501 -0.00000000000E+00 -0.00000000000E+00 -0.16518068232E+02  0.16518068892E+02  0.46700000000E-02 0.  1.
         23    2    1    2    0    0  0.00000000000E+00  0.00000000000E+00  0.11487180834E+03  0.14790794554E+03  0.93173107732E+02 0.  0.
        -11    1    3    3    0    0 -0.29669152181E+02  0.24643684661E+02  0.15956958209E+02  0.41739601105E+02  0.51100000000E-03 0.  1.
         11    1    3    3    0    0  0.29669152181E+02 -0.24643684661E+02  0.98914850127E+02  0.10616834444E+03  0.51100000000E-03 0. -1.
<mgrwt>
<rscale>  0 0.93173108E+02</rscale>
<asrwt>0</asrwt>
<pdfrwt beam="1">  1        1 0.20213827E-01 0.93173108E+02</pdfrwt>
<pdfrwt beam="2">  1       -1 0.25412413E-02 0.93173108E+02</pdfrwt>
<totfact> 0.10322955E+05</totfact>
</mgrwt>
</event>
<event>
 5    1  0.2718303E+000  0.9093504E+02  0.7818608E-02  0.1300603E+00
         -1   -1    0    0    0  501 -0.00000000000E+00  0.00000000000E+00  0.25471064774E+02  0.25471065202E+02  0.46700000000E-02 0.  1.
          1   -1    0    0  501    0  0.00000000000E+00 -0.00000000000E+00 -0.81162499523E+02  0.81162499657E+02  0.46700000000E-02 0. -1.
         23    2    1    2    0    0  0.00000000000E+00  0.00000000000E+00 -0.55691434749E+02  0.10663356486E+03  0.90935038628E+02 0.  0.
        -11    1    3    3    0    0 -0.10751299055E+02  0.23501294361E+02  0.16020752205E+02  0.30406673108E+02  0.51100000000E-03 0.  1.
         11    1    3    3    0    0  0.10751299055E+02 -0.23501294361E+02 -0.71712186954E+02  0.76226891751E+02  0.51100000000E-03 0. -1.
<mgrwt>
<rscale>  0 0.90935039E+02</rscale>
<asrwt>0</asrwt>
<pdfrwt beam="2">  1        1 0.12486538E-01 0.90935039E+02</pdfrwt>
<pdfrwt beam="1">  1       -1 0.39186254E-02 0.90935039E+02</pdfrwt>
<totfact> 0.10171251E+05</totfact>
</mgrwt>
</event>
<event>
 5    1  0.2718303E+000  0.8410485E+02  0.7818608E-02  0.1317790E+00
         -1   -1    0    0    0  501 -0.00000000000E+00  0.00000000000E+00  0.13711643203E+02  0.13711643998E+02  0.46700000000E-02 0.  1.
          1   -1    0    0  501    0  0.00000000000E+00 -0.00000000000E+00 -0.12897115661E+03  0.12897115670E+03  0.46700000000E-02 0. -1.
         23    2    1    2    0    0  0.00000000000E+00  0.00000000000E+00 -0.11525951341E+03  0.14268280070E+03  0.84104852315E+02 0.  0.
        -11    1    3    3    0    0  0.15684640983E+02 -0.18002308541E+02 -0.11635653222E+03  0.11878103244E+03  0.51100000000E-03 0. -1.
         11    1    3    3    0    0 -0.15684640983E+02  0.18002308541E+02  0.10970188094E+01  0.23901768263E+02  0.51100000000E-03 0.  1.
<mgrwt>
<rscale>  0 0.84104852E+02</rscale>
<asrwt>0</asrwt>
<pdfrwt beam="2">  1        1 0.19841716E-01 0.84104852E+02</pdfrwt>
<pdfrwt beam="1">  1       -1 0.21094837E-02 0.84104852E+02</pdfrwt>
<totfact> 0.13560618E+05</totfact>
</mgrwt>
</event>
<event>
 5    1  0.2718303E+000  0.9171622E+02  0.7818608E-02  0.1298748E+00
          1   -1    0    0  501    0  0.00000000000E+00  0.00000000000E+00  0.23187923020E+02  0.23187923490E+02  0.46700000000E-02 0. -1.
         -1   -1    0    0    0  501 -0.00000000000E+00 -0.00000000000E+00 -0.90692313767E+02  0.90692313887E+02  0.46700000000E-02 0.  1.
         23    2    1    2    0    0  0.00000000000E+00  0.00000000000E+00 -0.67504390747E+02  0.11388023738E+03  0.91716223728E+02 0.  0.
        -11    1    3    3    0    0  0.56905125156E+01  0.40667323818E+02 -0.84043117916E+01  0.41914742229E+02  0.51100000000E-03 0. -1.
         11    1    3    3    0    0 -0.56905125156E+01 -0.40667323818E+02 -0.59100078956E+02  0.71965495149E+02  0.51100000000E-03 0.  1.
<mgrwt>
<rscale>  0 0.91716224E+02</rscale>
<asrwt>0</asrwt>
<pdfrwt beam="1">  1        1 0.35673729E-02 0.91716224E+02</pdfrwt>
<pdfrwt beam="2">  1       -1 0.13952664E-01 0.91716224E+02</pdfrwt>
<totfact> 0.81582293E+04</totfact>
</mgrwt>
</event>
<event>
 5    1  0.2718303E+000  0.8494558E+02  0.7818608E-02  0.1315575E+00
          1   -1    0    0  501    0  0.00000000000E+00  0.00000000000E+00  0.86865548212E+02  0.86865548338E+02  0.46700000000E-02 0.  1.
         -1   -1    0    0    0  501 -0.00000000000E+00 -0.00000000000E+00 -0.20767009355E+02  0.20767009880E+02  0.46700000000E-02 0. -1.
         23    2    1    2    0    0  0.00000000000E+00  0.00000000000E+00  0.66098538857E+02  0.10763255822E+03  0.84945575220E+02 0.  0.
        -11    1    3    3    0    0  0.16488729914E+02 -0.67510120840E+01  0.81901333686E+02  0.83816960325E+02  0.51100000000E-03 0.  1.
         11    1    3    3    0    0 -0.16488729914E+02  0.67510120840E+01 -0.15802794828E+02  0.23815597893E+02  0.51100000000E-03 0. -1.
<mgrwt>
<rscale>  0 0.84945575E+02</rscale>
<asrwt>0</asrwt>
<pdfrwt beam="1">  1        1 0.13363931E-01 0.84945575E+02</pdfrwt>
<pdfrwt beam="2">  1       -1 0.31949246E-02 0.84945575E+02</pdfrwt>
<totfact> 0.12377139E+05</totfact>
</mgrwt>
</event>
<event>
 5    1  0.2718303E+000  0.9169290E+02  0.7818608E-02  0.1298803E+00
         -1   -1    0    0    0  501 -0.00000000000E+00  0.00000000000E+00  0.14218625808E+03  0.14218625815E+03  0.46700000000E-02 0.  1.
          1   -1    0    0  501    0  0.00000000000E+00 -0.00000000000E+00 -0.14782701280E+02  0.14782702018E+02  0.46700000000E-02 0. -1.
         23    2    1    2    0    0  0.00000000000E+00  0.00000000000E+00  0.12740355680E+03  0.15696896017E+03  0.91692901432E+02 0.  0.
        -11    1    3    3    0    0  0.45325894388E+02 -0.64989618499E+00  0.51960851650E+02  0.68954979310E+02  0.51100000000E-03 0. -1.
         11    1    3    3    0    0 -0.45325894388E+02  0.64989618499E+00  0.75442705147E+02  0.88013980863E+02  0.51100000000E-03 0.  1.
<mgrwt>
<rscale>  0 0.91692901E+02</rscale>
<asrwt>0</asrwt>
<pdfrwt beam="2">  1        1 0.22742619E-02 0.91692901E+02</pdfrwt>
<pdfrwt beam="1">  1       -1 0.21874808E-01 0.91692901E+02</pdfrwt>
<totfact> 0.74613973E+04</totfact>
</mgrwt>
</event>
<event>
 5    1  0.2718303E+000  0.9050210E+02  0.7818608E-02  0.1301640E+00
          1   -1    0    0  501    0  0.00000000000E+00  0.00000000000E+00  0.22123671187E+03  0.22123671192E+03  0.46700000000E-02 0. -1.
         -1   -1    0    0    0  501 -0.00000000000E+00 -0.00000000000E+00 -0.92555046857E+01  0.92555058639E+01  0.46700000000E-02 0.  1.
         23    2    1    2    0    0  0.00000000000E+00  0.00000000000E+00  0.21198120718E+03  0.23049221778E+03  0.90502100855E+02 0.  0.
        -11    1    3    3    0    0  0.33807893170E+02  0.18723677879E+02  0.46039836847E+02  0.60110035195E+02  0.51100000000E-03 0.  1.
         11    1    3    3    0    0 -0.33807893170E+02 -0.18723677879E+02  0.16594137034E+03  0.17038218259E+03  0.51100000000E-03 0. -1.
<mgrwt>
<rscale>  0 0.90502101E+02</rscale>
<asrwt>0</asrwt>
<pdfrwt beam="1">  1        1 0.34036419E-01 0.90502101E+02</pdfrwt>
<pdfrwt beam="2">  1       -1 0.14239238E-02 0.90502101E+02</pdfrwt>
<totfact> 0.12317856E+05</totfact>
</mgrwt>
</event>
<event>
 5    1  0.2718303E+000  0.7533207E+02  0.7818608E-02  0.1342846E+00
         -1   -1    0    0    0  501 -0.00000000000E+00  0.00000000000E+00  0.91464718292E+02  0.91464718411E+02  0.46700000000E-02 0.  1.
          1   -1    0    0  501    0  0.00000000000E+00 -0.00000000000E+00 -0.15511229794E+02  0.15511230497E+02  0.46700000000E-02 0. -1.
         23    2    1    2    0    0  0.00000000000E+00  0.00000000000E+00  0.75953488498E+02  0.10697594891E+03  0.75332073048E+02 0.  0.
        -11    1    3    3    0    0  0.15470957162E+02 -0.26624216205E+02  0.71732272797E+01  0.31617314780E+02  0.51100000000E-03 0. -1.
         11    1    3    3    0    0 -0.15470957162E+02  0.26624216205E+02  0.68780261218E+02  0.75358634127E+02  0.51100000000E-03 0.  1.
<mgrwt>
<rscale>  0 0.75332073E+02</rscale>
<asrwt>0</asrwt>
<pdfrwt beam="2">  1        1 0.23863431E-02 0.75332073E+02</pdfrwt>
<pdfrwt beam="1">  1       -1 0.14071495E-01 0.75332073E+02</pdfrwt>
<totfact> 0.13481441E+05</totfact>
</mgrwt>
</event>
<event>
 5    1  0.2718303E+000  0.9074450E+02  0.7818608E-02  0.1301059E+00
         -1   -1    0    0    0  501 -0.00000000000E+00  0.00000000000E+00  0.43992805458E+02  0.43992805706E+02  0.46700000000E-02 0.  1.
          1   -1    0    0  501    0  0.00000000000E+00 -0.00000000000E+00 -0.46794945822E+02  0.46794946055E+02  0.46700000000E-02 0. -1.
         23    2    1    2    0    0  0.00000000000E+00  0.00000000000E+00 -0.28021403639E+01  0.90787751761E+02  0.90744497790E+02 0.  0.
        -11    1    3    3    0    0 -0.42668376707E+02  0.10081133753E+02 -0.13086592175E+02  0.45754546480E+02  0.51100000000E-03 0. -1.
         11    1    3    3    0    0  0.42668376707E+02 -0.10081133753E+02  0.10284451811E+02  0.45033205281E+02  0.51100000000E-03 0.  1.
<mgrwt>
<rscale>  0 0.90744498E+02</rscale>
<asrwt>0</asrwt>
<pdfrwt beam="2">  1        1 0.71992224E-02 0.90744498E+02</pdfrwt>
<pdfrwt beam="1">  1       -1 0.67681240E-02 0.90744498E+02</pdfrwt>
<totfact> 0.94080457E+04</totfact>
</mgrwt>
</event>
<event>
 5    1  0.2718303E+000  0.9290401E+02  0.7818608E-02  0.1295968E+00
          1   -1    0    0  501    0  0.00000000000E+00  0.00000000000E+00  0.26308026214E+03  0.26308026218E+03  0.46700000000E-02 0. -1.
         -1   -1    0    0    0  501 -0.00000000000E+00 -0.00000000000E+00 -0.82020170200E+01  0.82020183495E+01  0.46700000000E-02 0.  1.
         23    2    1    2    0    0  0.00000000000E+00  0.00000000000E+00  0.25487824512E+03  0.27128228053E+03  0.92904014415E+02 0.  0.
        -11    1    3    3    0    0  0.15217257094E+02  0.41824648378E+02  0.88599150564E+02  0.99149763521E+02  0.51100000000E-03 0.  1.
         11    1    3    3    0    0 -0.15217257094E+02 -0.41824648378E+02  0.16627909455E+03  0.17213251701E+03  0.51100000000E-03 0. -1.
<mgrwt>
<rscale>  0 0.92904014E+02</rscale>
<asrwt>0</asrwt>
<pdfrwt beam="1">  1        1 0.40473889E-01 0.92904014E+02</pdfrwt>
<pdfrwt beam="2">  1       -1 0.12618488E-02 0.92904014E+02</pdfrwt>
<totfact> 0.11879452E+05</totfact>
</mgrwt>
</event>
<event>
 5    1  0.2718303E+000  0.8485212E+02  0.7818608E-02  0.1315820E+00
          1   -1    0    0  501    0  0.00000000000E+00  0.00000000000E+00  0.35773497972E+03  0.35773497975E+03  0.46700000000E-02 0. -1.
         -1   -1    0    0    0  501 -0.00000000000E+00 -0.00000000000E+00 -0.50315749566E+01  0.50315771238E+01  0.46700000000E-02 0.  1.
         23    2    1    2    0    0  0.00000000000E+00  0.00000000000E+00  0.35270340477E+03  0.36276655688E+03  0.84852124633E+02 0.  0.
        -11    1    3    3    0    0  0.39681696227E+02  0.12861329599E+02  0.20944577680E+03  0.21355932252E+03  0.51100000000E-03 0.  1.
         11    1    3    3    0    0 -0.39681696227E+02 -0.12861329599E+02  0.14325762796E+03  0.14920723436E+03  0.51100000000E-03 0. -1.
<mgrwt>
<rscale>  0 0.84852125E+02</rscale>
<asrwt>0</asrwt>
<pdfrwt beam="1">  1        1 0.55036145E-01 0.84852125E+02</pdfrwt>
<pdfrwt beam="2">  1       -1 0.77408871E-03 0.84852125E+02</pdfrwt>
<totfact> 0.16009416E+05</totfact>
</mgrwt>
</event>
<event>
 5    1  0.2718303E+000  0.9253791E+02  0.7818608E-02  0.1296820E+00
          1   -1    0    0  501    0  0.00000000000E+00  0.00000000000E+00  0.59499020156E+01  0.59499038483E+01  0.46700000000E-02 0. -1.
         -1   -1    0    0    0  501 -0.00000000000E+00 -0.00000000000E+00 -0.35980693260E+03  0.35980693263E+03  0.46700000000E-02 0.  1.
         23    2    1    2    0    0  0.00000000000E+00  0.00000000000E+00 -0.35385703058E+03  0.36575683648E+03  0.92537912969E+02 0.  0.
        -11    1    3    3    0    0  0.42596097392E+02 -0.95715091111E+01 -0.23749030602E+03  0.24146984647E+03  0.51100000000E-03 0.  1.
         11    1    3    3    0    0 -0.42596097392E+02  0.95715091111E+01 -0.11636672456E+03  0.12428699001E+03  0.51100000000E-03 0. -1.
<mgrwt>
<rscale>  0 0.92537913E+02</rscale>
<asrwt>0</asrwt>
<pdfrwt beam="1">  1        1 0.91536996E-03 0.92537913E+02</pdfrwt>
<pdfrwt beam="2">  1       -1 0.55354896E-01 0.92537913E+02</pdfrwt>
<totfact> 0.53943536E+04</totfact>
</mgrwt>
</event>
<event>
 5    1  0.2718303E+000  0.9209402E+02  0.7818608E-02  0.1297859E+00
          1   -1    0    0  501    0  0.00000000000E+00  0.00000000000E+00  0.59030222183E+02  0.59030222368E+02  0.46700000000E-02 0. -1.
         -1   -1    0    0    0  501 -0.00000000000E+00 -0.00000000000E+00 -0.35919350227E+02  0.35919350531E+02  0.46700000000E-02 0.  1.
         23    2    1    2    0    0  0.00000000000E+00  0.00000000000E+00  0.23110871956E+02  0.94949572899E+02  0.92094022559E+02 0.  0.
        -11    1    3    3    0    0  0.41463930027E+02 -0.19200715209E+02  0.56866344457E+01  0.46046311138E+02  0.51100000000E-03 0.  1.
         11    1    3    3    0    0 -0.41463930027E+02  0.19200715209E+02  0.17424237510E+02  0.48903261761E+02  0.51100000000E-03 0. -1.
<mgrwt>
<rscale>  0 0.92094023E+02</rscale>
<asrwt>0</asrwt>
<pdfrwt beam="1">  1        1 0.90815725E-02 0.92094023E+02</pdfrwt>
<pdfrwt beam="2">  1       -1 0.55260540E-02 0.92094023E+02</pdfrwt>
<totfact> 0.93495605E+04</totfact>
</mgrwt>
</event>
<event>
 5    1  0.2718303E+000  0.9431396E+02  0.7818608E-02  0.1292729E+00
         -1   -1    0    0    0  501 -0.00000000000E+00  0.00000000000E+00  0.11525657106E+02  0.11525658052E+02  0.46700000000E-02 0.  1.
          1   -1    0    0  501    0  0.00000000000E+00 -0.00000000000E+00 -0.19294175762E+03  0.19294175768E+03  0.46700000000E-02 0. -1.
         23    2    1    2    0    0  0.00000000000E+00  0.00000000000E+00 -0.18141610052E+03  0.20446741573E+03  0.94313957446E+02 0.  0.
        -11    1    3    3    0    0  0.26704083954E+02  0.33251466439E+02 -0.47078336382E+02  0.63522735118E+02  0.51100000000E-03 0.  1.
         11    1    3    3    0    0 -0.26704083954E+02 -0.33251466439E+02 -0.13433776413E+03  0.14094468061E+03  0.51100000000E-03 0. -1.
<mgrwt>
<rscale>  0 0.94313957E+02</rscale>
<asrwt>0</asrwt>
<pdfrwt beam="2">  1        1 0.29683345E-01 0.94313957E+02</pdfrwt>
<pdfrwt beam="1">  1       -1 0.17731782E-02 0.94313957E+02</pdfrwt>
<totfact> 0.10735559E+05</totfact>
</mgrwt>
</event>
<event>
 5    1  0.2718303E+000  0.8927683E+02  0.7818608E-02  0.1304612E+00
          1   -1    0    0  501    0  0.00000000000E+00  0.00000000000E+00  0.14311210721E+02  0.14311211483E+02  0.46700000000E-02 0. -1.
         -1   -1    0    0    0  501 -0.00000000000E+00 -0.00000000000E+00 -0.13923268084E+03  0.13923268092E+03  0.46700000000E-02 0.  1.
         23    2    1    2    0    0  0.00000000000E+00  0.00000000000E+00 -0.12492147012E+03  0.15354389240E+03  0.89276834607E+02 0.  0.
        -11    1    3    3    0    0 -0.16892091703E+02  0.37823444840E+02 -0.33855507415E+02  0.53499075920E+02  0.51100000000E-03 0. -1.
         11    1    3    3    0    0  0.16892091703E+02 -0.37823444840E+02 -0.91065962706E+02  0.10004481648E+03  0.51100000000E-03 0.  1.
<mgrwt>
<rscale>  0 0.89276835E+02</rscale>
<asrwt>0</asrwt>
<pdfrwt beam="1">  1        1 0.22017249E-02 0.89276835E+02</pdfrwt>
<pdfrwt beam="2">  1       -1 0.21420412E-01 0.89276835E+02</pdfrwt>
<totfact> 0.80336396E+04</totfact>
</mgrwt>
</event>
<event>
 5    1  0.2718303E+000  0.9405971E+02  0.7818608E-02  0.1293308E+00
          1   -1    0    0  501    0  0.00000000000E+00  0.00000000000E+00  0.63273491842E+02  0.63273492015E+02  0.46700000000E-02 0. -1.
         -1   -1    0    0    0  501 -0.00000000000E+00 -0.00000000000E+00 -0.34956304290E+02  0.34956304602E+02  0.46700000000E-02 0.  1.
         23    2    1    2    0    0  0.00000000000E+00  0.00000000000E+00  0.28317187552E+02  0.98229796617E+02  0.94059714185E+02 0.  0.
        -11    1    3    3    0    0  0.29566160960E+02  0.14669410246E+02 -0.20829850897E+02  0.39028606938E+02  0.51100000000E-03 0.  1.
         11    1    3    3    0    0 -0.29566160960E+02 -0.14669410246E+02  0.49147038449E+02  0.59201189679E+02  0.51100000000E-03 0. -1.
<mgrwt>
<rscale>  0 0.94059714E+02</rscale>
<asrwt>0</asrwt>
<pdfrwt beam="1">  1        1 0.97343834E-02 0.94059714E+02</pdfrwt>
<pdfrwt beam="2">  1       -1 0.53778930E-02 0.94059714E+02</pdfrwt>
<totfact> 0.89105758E+04</totfact>
</mgrwt>
</event>
<event>
 5    1  0.2718303E+000  0.9265165E+02  0.7818608E-02  0.1296554E+00
          1   -1    0    0  501    0  0.00000000000E+00  0.00000000000E+00  0.97074460214E+01  0.97074471447E+01  0.46700000000E-02 0. -1.
         -1   -1    0    0    0  501 -0.00000000000E+00 -0.00000000000E+00 -0.22107583709E+03  0.22107583714E+03  0.46700000000E-02 0.  1.
         23    2    1    2    0    0  0.00000000000E+00  0.00000000000E+00 -0.21136839107E+03  0.23078328429E+03  0.92651646300E+02 0.  0.
        -11    1    3    3    0    0 -0.28970898925E+02 -0.29644556945E+02 -0.54154516105E+02  0.68196952687E+02  0.51100000000E-03 0. -1.
         11    1    3    3    0    0  0.28970898925E+02  0.29644556945E+02 -0.15721387497E+03  0.16258633160E+03  0.51100000000E-03 0.  1.
<mgrwt>
<rscale>  0 0.92651646E+02</rscale>
<asrwt>0</asrwt>
<pdfrwt beam="1">  1        1 0.14934535E-02 0.92651646E+02</pdfrwt>
<pdfrwt beam="2">  1       -1 0.34011664E-01 0.92651646E+02</pdfrwt>
<totfact> 0.64624332E+04</totfact>
</mgrwt>
</event>
<event>
 5    1  0.2718303E+000  0.8532507E+02  0.7818608E-02  0.1314585E+00
         -1   -1    0    0    0  501 -0.00000000000E+00  0.00000000000E+00  0.11334797444E+02  0.11334798406E+02  0.46700000000E-02 0.  1.
          1   -1    0    0  501    0  0.00000000000E+00 -0.00000000000E+00 -0.16057559910E+03  0.16057559917E+03  0.46700000000E-02 0. -1.
         23    2    1    2    0    0  0.00000000000E+00  0.00000000000E+00 -0.14924080165E+03  0.17191039757E+03  0.85325072019E+02 0.  0.
        -11    1    3    3    0    0 -0.32351282104E+02  0.22127734062E+02 -0.10856493566E+03  0.11542351287E+03  0.51100000000E-03 0.  1.
         11    1    3    3    0    0  0.32351282104E+02 -0.22127734062E+02 -0.40675865994E+02  0.56486884700E+02  0.51100000000E-03 0. -1.
<mgrwt>
<rscale>  0 0.85325072E+02</rscale>
<asrwt>0</asrwt>
<pdfrwt beam="2">  1        1 0.24703937E-01 0.85325072E+02</pdfrwt>
<pdfrwt beam="1">  1       -1 0.17438152E-02 0.85325072E+02</pdfrwt>
<totfact> 0.13566138E+05</totfact>
</mgrwt>
</event>
<event>
 5    1  0.2718303E+000  0.9091481E+02  0.7818608E-02  0.1300651E+00
         -1   -1    0    0    0  501 -0.00000000000E+00  0.00000000000E+00  0.13713764092E+02  0.13713764887E+02  0.46700000000E-02 0. -1.
          1   -1    0    0  501    0  0.00000000000E+00 -0.00000000000E+00 -0.15067894972E+03  0.15067894980E+03  0.46700000000E-02 0.  1.
         23    2    1    2    0    0  0.00000000000E+00  0.00000000000E+00 -0.13696518563E+03  0.16439271468E+03  0.90914809388E+02 0.  0.
        -11    1    3    3    0    0 -0.24923570009E+02  0.76510194951E+01 -0.13581619732E+03  0.13829592148E+03  0.51100000000E-03 0.  1.
         11    1    3    3    0    0  0.24923570009E+02 -0.76510194951E+01 -0.11489883078E+01  0.26096793207E+02  0.51100000000E-03 0. -1.
<mgrwt>
<rscale>  0 0.90914809E+02</rscale>
<asrwt>0</asrwt>
<pdfrwt beam="2">  1        1 0.23181376E-01 0.90914809E+02</pdfrwt>
<pdfrwt beam="1">  1       -1 0.21098100E-02 0.90914809E+02</pdfrwt>
<totfact> 0.11310048E+05</totfact>
</mgrwt>
</event>
<event>
 5    1  0.2718303E+000  0.9505842E+02  0.7818608E-02  0.1291045E+00
         -1   -1    0    0    0  501 -0.00000000000E+00  0.00000000000E+00  0.22490527215E+02  0.22490527699E+02  0.46700000000E-02 0.  1.
          1   -1    0    0  501    0  0.00000000000E+00 -0.00000000000E+00 -0.10044343028E+03  0.10044343038E+03  0.46700000000E-02 0. -1.
         23    2    1    2    0    0  0.00000000000E+00  0.00000000000E+00 -0.77952903061E+02  0.12293395808E+03  0.95058418641E+02 0.  0.
        -11    1    3    3    0    0  0.32824184074E+02  0.25272528714E+02 -0.88435891157E+01  0.42359613271E+02  0.51100000000E-03 0.  1.
         11    1    3    3    0    0 -0.32824184074E+02 -0.25272528714E+02 -0.69109313945E+02  0.80574344813E+02  0.51100000000E-03 0. -1.
<mgrwt>
<rscale>  0 0.95058419E+02</rscale>
<asrwt>0</asrwt>
<pdfrwt beam="2">  1        1 0.15452835E-01 0.95058419E+02</pdfrwt>
<pdfrwt beam="1">  1       -1 0.34600812E-02 0.95058419E+02</pdfrwt>
<totfact> 0.93262808E+04</totfact>
</mgrwt>
</event>
<event>
 5    1  0.2718303E+000  0.9316524E+02  0.7818608E-02  0.1295363E+00
          1   -1    0    0  501    0  0.00000000000E+00  0.00000000000E+00  0.33826687811E+02  0.33826688133E+02  0.46700000000E-02 0. -1.
         -1   -1    0    0    0  501 -0.00000000000E+00 -0.00000000000E+00 -0.64148774392E+02  0.64148774562E+02  0.46700000000E-02 0.  1.
         23    2    1    2    0    0  0.00000000000E+00  0.00000000000E+00 -0.30322086582E+02  0.97975462695E+02  0.93165242208E+02 0.  0.
        -11    1    3    3    0    0 -0.29841000311E+02 -0.33781587175E+02 -0.27955586193E+01  0.45160780328E+02  0.51100000000E-03 0.  1.
         11    1    3    3    0    0  0.29841000311E+02  0.33781587175E+02 -0.27526527962E+02  0.52814682367E+02  0.51100000000E-03 0. -1.
<mgrwt>
<rscale>  0 0.93165242E+02</rscale>
<asrwt>0</asrwt>
<pdfrwt beam="1">  1        1 0.52041059E-02 0.93165242E+02</pdfrwt>
<pdfrwt beam="2">  1       -1 0.98690422E-02 0.93165242E+02</pdfrwt>
<totfact> 0.83067899E+04</totfact>
</mgrwt>
</event>
<event>
 5    1  0.2718303E+000  0.9025780E+02  0.7818608E-02  0.1302229E+00
         -1   -1    0    0    0  501 -0.00000000000E+00  0.00000000000E+00  0.75335338604E+02  0.75335338749E+02  0.46700000000E-02 0.  1.
          1   -1    0    0  501    0  0.00000000000E+00 -0.00000000000E+00 -0.27034028676E+02  0.27034029080E+02  0.46700000000E-02 0. -1.
         23    2    1    2    0    0  0.00000000000E+00  0.00000000000E+00  0.48301309928E+02  0.10236936783E+03  0.90257802593E+02 0.  0.
        -11    1    3    3    0    0 -0.31914256367E+02  0.28109849059E+02  0.41274061309E+02  0.59264082805E+02  0.51100000000E-03 0.  1.
         11    1    3    3    0    0  0.31914256367E+02 -0.28109849059E+02  0.70272486194E+01  0.43105285024E+02  0.51100000000E-03 0. -1.
<mgrwt>
<rscale>  0 0.90257803E+02</rscale>
<asrwt>0</asrwt>
<pdfrwt beam="2">  1        1 0.41590814E-02 0.90257803E+02</pdfrwt>
<pdfrwt beam="1">  1       -1 0.11590052E-01 0.90257803E+02</pdfrwt>
<totfact> 0.87746136E+04</totfact>
</mgrwt>
</event>
<event>
 5    1  0.2718303E+000  0.8093339E+02  0.7818608E-02  0.1326423E+00
          1   -1    0    0  501    0  0.00000000000E+00  0.00000000000E+00  0.14749584514E+02  0.14749585253E+02  0.46700000000E-02 0. -1.
         -1   -1    0    0    0  501 -0.00000000000E+00 -0.00000000000E+00 -0.11102368562E+03  0.11102368572E+03  0.46700000000E-02 0.  1.
         23    2    1    2    0    0  0.00000000000E+00  0.00000000000E+00 -0.96274101109E+02  0.12577327097E+03  0.80933387099E+02 0.  0.
        -11    1    3    3    0    0 -0.98526700558E+01  0.29962337667E+02 -0.87387833260E+01  0.32728933988E+02  0.51100000000E-03 0. -1.
         11    1    3    3    0    0  0.98526700558E+01 -0.29962337667E+02 -0.87535317783E+02  0.93044336987E+02  0.51100000000E-03 0.  1.
<mgrwt>
<rscale>  0 0.80933387E+02</rscale>
<asrwt>0</asrwt>
<pdfrwt beam="1">  1        1 0.22691670E-02 0.80933387E+02</pdfrwt>
<pdfrwt beam="2">  1       -1 0.17080567E-01 0.80933387E+02</pdfrwt>
<totfact> 0.10838690E+05</totfact>
</mgrwt>
</event>
<event>
 5    1  0.2718303E+000  0.9358635E+02  0.7818608E-02  0.1294392E+00
         -1   -1    0    0    0  501 -0.00000000000E+00  0.00000000000E+00  0.78889079631E+02  0.78889079769E+02  0.46700000000E-02 0.  1.
          1   -1    0    0  501    0  0.00000000000E+00 -0.00000000000E+00 -0.27755438949E+02  0.27755439342E+02  0.46700000000E-02 0. -1.
         23    2    1    2    0    0  0.00000000000E+00  0.00000000000E+00  0.51133640682E+02  0.10664451911E+03  0.93586346478E+02 0.  0.
        -11    1    3    3    0    0  0.18736572107E+02  0.58545643879E+01 -0.22836631060E+02  0.30113896741E+02  0.51100000000E-03 0. -1.
         11    1    3    3    0    0 -0.18736572107E+02 -0.58545643879E+01  0.73970271742E+02  0.76530622370E+02  0.51100000000E-03 0.  1.
<mgrwt>
<rscale>  0 0.93586346E+02</rscale>
<asrwt>0</asrwt>
<pdfrwt beam="2">  1        1 0.42700677E-02 0.93586346E+02</pdfrwt>
<pdfrwt beam="1">  1       -1 0.12136781E-01 0.93586346E+02</pdfrwt>
<totfact> 0.79365684E+04</totfact>
</mgrwt>
</event>
<event>
 5    1  0.2718303E+000  0.9107720E+02  0.7818608E-02  0.1300264E+00
          1   -1    0    0  501    0  0.00000000000E+00  0.00000000000E+00  0.21377904777E+02  0.21377905287E+02  0.46700000000E-02 0. -1.
         -1   -1    0    0    0  501 -0.00000000000E+00 -0.00000000000E+00 -0.97005020717E+02  0.97005020829E+02  0.46700000000E-02 0.  1.
         23    2    1    2    0    0  0.00000000000E+00  0.00000000000E+00 -0.75627115940E+02  0.11838292612E+03  0.91077200938E+02 0.  0.
        -11    1    3    3    0    0 -0.34433783391E+02 -0.13117787826E+00  0.92120593907E+00  0.34446353463E+02  0.51100000000E-03 0. -1.
         11    1    3    3    0    0  0.34433783391E+02  0.13117787826E+00 -0.76548321879E+02  0.83936572654E+02  0.51100000000E-03 0.  1.
<mgrwt>
<rscale>  0 0.91077201E+02</rscale>
<asrwt>0</asrwt>
<pdfrwt beam="1">  1        1 0.32889085E-02 0.91077201E+02</pdfrwt>
<pdfrwt beam="2">  1       -1 0.14923849E-01 0.91077201E+02</pdfrwt>
<totfact> 0.82059545E+04</totfact>
</mgrwt>
</event>
<event>
 5    1  0.2718303E+000  0.9359046E+02  0.7818608E-02  0.1294383E+00
          1   -1    0    0  501    0  0.00000000000E+00  0.00000000000E+00  0.30553243288E+03  0.30553243292E+03  0.46700000000E-02 0. -1.
         -1   -1    0    0    0  501 -0.00000000000E+00 -0.00000000000E+00 -0.71671382880E+01  0.71671398095E+01  0.46700000000E-02 0.  1.
         23    2    1    2    0    0  0.00000000000E+00  0.00000000000E+00  0.29836529459E+03  0.31269957273E+03  0.93590457663E+02 0.  0.
        -11    1    3    3    0    0  0.26939486881E+01 -0.46566529524E+02  0.16172615966E+03  0.16831829891E+03  0.51100000000E-03 0. -1.
         11    1    3    3    0    0 -0.26939486881E+01  0.46566529524E+02  0.13663913494E+03  0.14438127382E+03  0.51100000000E-03 0.  1.
<mgrwt>
<rscale>  0 0.93590458E+02</rscale>
<asrwt>0</asrwt>
<pdfrwt beam="1">  1        1 0.47004990E-01 0.93590458E+02</pdfrwt>
<pdfrwt beam="2">  1       -1 0.11026368E-02 0.93590458E+02</pdfrwt>
<totfact> 0.11990753E+05</totfact>
</mgrwt>
</event>
<event>
 5    1  0.2718303E+000  0.9091881E+02  0.7818608E-02  0.1300642E+00
          1   -1    0    0  501    0  0.00000000000E+00  0.00000000000E+00  0.85071950989E+01  0.85071963807E+01  0.46700000000E-02 0. -1.
         -1   -1    0    0    0  501 -0.00000000000E+00 -0.00000000000E+00 -0.24291875225E+03  0.24291875230E+03  0.46700000000E-02 0.  1.
         23    2    1    2    0    0  0.00000000000E+00  0.00000000000E+00 -0.23441155715E+03  0.25142594868E+03  0.90918807414E+02 0.  0.
        -11    1    3    3    0    0 -0.36216224880E+02  0.22652783058E+02 -0.16020682276E+03  0.16580406986E+03  0.51100000000E-03 0.  1.
         11    1    3    3    0    0  0.36216224880E+02 -0.22652783058E+02 -0.74204734398E+02  0.85621878817E+02  0.51100000000E-03 0. -1.
<mgrwt>
<rscale>  0 0.90918807E+02</rscale>
<asrwt>0</asrwt>
<pdfrwt beam="1">  1        1 0.13087995E-02 0.90918807E+02</pdfrwt>
<pdfrwt beam="2">  1       -1 0.37372111E-01 0.90918807E+02</pdfrwt>
<totfact> 0.65877109E+04</totfact>
</mgrwt>
</event>
<event>
 5    1  0.2718303E+000  0.8966051E+02  0.7818608E-02  0.1303676E+00
          1   -1    0    0  501    0  0.00000000000E+00  0.00000000000E+00  0.86218082212E+01  0.86218094860E+01  0.46700000000E-02 0. -1.
         -1   -1    0    0    0  501 -0.00000000000E+00 -0.00000000000E+00 -0.23310092069E+03  0.23310092074E+03  0.46700000000E-02 0.  1.
         23    2    1    2    0    0  0.00000000000E+00  0.00000000000E+00 -0.22447911247E+03  0.24172273022E+03  0.89660506198E+02 0.  0.
        -11    1    3    3    0    0  0.42774857634E+02 -0.10363617218E+02 -0.89259040396E+02  0.99520195438E+02  0.51100000000E-03 0.  1.
         11    1    3    3    0    0 -0.42774857634E+02  0.10363617218E+02 -0.13522007207E+03  0.14220253479E+03  0.51100000000E-03 0. -1.
<mgrwt>
<rscale>  0 0.89660506E+02</rscale>
<asrwt>0</asrwt>
<pdfrwt beam="1">  1        1 0.13264323E-02 0.89660506E+02</pdfrwt>
<pdfrwt beam="2">  1       -1 0.35861675E-01 0.89660506E+02</pdfrwt>
<totfact> 0.69238425E+04</totfact>
</mgrwt>
</event>
<event>
 5    1  0.2718303E+000  0.9163787E+02  0.7818608E-02  0.1298933E+00
         -1   -1    0    0    0  501 -0.00000000000E+00  0.00000000000E+00  0.22917361414E+02  0.22917361890E+02  0.46700000000E-02 0.  1.
          1   -1    0    0  501    0  0.00000000000E+00 -0.00000000000E+00 -0.91606304537E+02  0.91606304656E+02  0.46700000000E-02 0. -1.
         23    2    1    2    0    0  0.00000000000E+00  0.00000000000E+00 -0.68688943123E+02  0.11452366655E+03  0.91637870402E+02 0.  0.
        -11    1    3    3    0    0 -0.13624108522E+01  0.19770452084E+02  0.17284350809E+02  0.26295925960E+02  0.51100000000E-03 0.  1.
         11    1    3    3    0    0  0.13624108522E+01 -0.19770452084E+02 -0.85973293933E+02  0.88227740586E+02  0.51100000000E-03 0. -1.
<mgrwt>
<rscale>  0 0.91637870E+02</rscale>
<asrwt>0</asrwt>
<pdfrwt beam="2">  1        1 0.14093277E-01 0.91637870E+02</pdfrwt>
<pdfrwt beam="1">  1       -1 0.35257480E-02 0.91637870E+02</pdfrwt>
<totfact> 0.10154460E+05</totfact>
</mgrwt>
</event>
<event>
 5    1  0.2718303E+000  0.9061537E+02  0.7818608E-02  0.1301368E+00
         -1   -1    0    0    0  501 -0.00000000000E+00  0.00000000000E+00  0.17176541979E+03  0.17176541986E+03  0.46700000000E-02 0.  1.
          1   -1    0    0  501    0  0.00000000000E+00 -0.00000000000E+00 -0.11951103735E+02  0.11951104648E+02  0.46700000000E-02 0. -1.
         23    2    1    2    0    0  0.00000000000E+00  0.00000000000E+00  0.15981431606E+03  0.18371652451E+03  0.90615372642E+02 0.  0.
        -11    1    3    3    0    0 -0.27496550548E+02  0.30453785070E+02  0.11886832442E+03  0.12575043486E+03  0.51100000000E-03 0.  1.
         11    1    3    3    0    0  0.27496550548E+02 -0.30453785070E+02  0.40945991643E+02  0.57966089647E+02  0.51100000000E-03 0. -1.
<mgrwt>
<rscale>  0 0.90615373E+02</rscale>
<asrwt>0</asrwt>
<pdfrwt beam="2">  1        1 0.18386315E-02 0.90615373E+02</pdfrwt>
<pdfrwt beam="1">  1       -1 0.26425448E-01 0.90615373E+02</pdfrwt>
<totfact> 0.73517963E+04</totfact>
</mgrwt>
</event>
<event>
 5    1  0.2718303E+000  0.8667701E+02  0.7818608E-02  0.1311104E+00
          1   -1    0    0  501    0  0.00000000000E+00  0.00000000000E+00  0.24065563678E+03  0.24065563683E+03  0.46700000000E-02 0. -1.
         -1   -1    0    0    0  501 -0.00000000000E+00 -0.00000000000E+00 -0.78046200631E+01  0.78046214602E+01  0.46700000000E-02 0.  1.
         23    2    1    2    0    0  0.00000000000E+00  0.00000000000E+00  0.23285101672E+03  0.24846025829E+03  0.86677009416E+02 0.  0.
        -11    1    3    3    0    0  0.30617945878E+02 -0.14494163494E+02  0.38940338991E+02  0.51612880041E+02  0.51100000000E-03 0.  1.
         11    1    3    3    0    0 -0.30617945878E+02  0.14494163494E+02  0.19391067773E+03  0.19684737825E+03  0.51100000000E-03 0. -1.
<mgrwt>
<rscale>  0 0.86677009E+02</rscale>
<asrwt>0</asrwt>
<pdfrwt beam="1">  1        1 0.37023948E-01 0.86677009E+02</pdfrwt>
<pdfrwt beam="2">  1       -1 0.12007108E-02 0.86677009E+02</pdfrwt>
<totfact> 0.14047656E+05</totfact>
</mgrwt>
</event>
<event>
 5    1  0.2718303E+000  0.9258880E+02  0.7818608E-02  0.1296701E+00
          1   -1    0    0  501    0  0.00000000000E+00  0.00000000000E+00  0.42470546329E+01  0.42470572005E+01  0.46700000000E-02 0. -1.
         -1   -1    0    0    0  501 -0.00000000000E+00 -0.00000000000E+00 -0.50462522218E+03  0.50462522220E+03  0.46700000000E-02 0.  1.
         23    2    1    2    0    0  0.00000000000E+00  0.00000000000E+00 -0.50037816755E+03  0.50887227940E+03  0.92588801624E+02 0.  0.
        -11    1    3    3    0    0 -0.46151289062E+02 -0.25185273921E+01 -0.26461249607E+03  0.26861879596E+03  0.51100000000E-03 0.  1.
         11    1    3    3    0    0  0.46151289062E+02  0.25185273921E+01 -0.23576567147E+03  0.24025348345E+03  0.51100000000E-03 0. -1.
<mgrwt>
<rscale>  0 0.92588802E+02</rscale>
<asrwt>0</asrwt>
<pdfrwt beam="1">  1        1 0.65339362E-03 0.92588802E+02</pdfrwt>
<pdfrwt beam="2">  1       -1 0.77634602E-01 0.92588802E+02</pdfrwt>
<totfact> 0.44925221E+04</totfact>
</mgrwt>
</event>
<event>
 5    1  0.2718303E+000  0.8846268E+02  0.7818608E-02  0.1306618E+00
          1   -1    0    0  501    0  0.00000000000E+00  0.00000000000E+00  0.27030599277E+03  0.27030599281E+03  0.46700000000E-02 0. -1.
         -1   -1    0    0    0  501 -0.00000000000E+00 -0.00000000000E+00 -0.72377647110E+01  0.72377662176E+01  0.46700000000E-02 0.  1.
         23    2    1    2    0    0  0.00000000000E+00  0.00000000000E+00  0.26306822806E+03  0.27754375903E+03  0.88462678917E+02 0.  0.
        -11    1    3    3    0    0 -0.35810379032E+02 -0.25946500619E+02  0.13435298500E+03  0.14144372987E+03  0.51100000000E-03 0. -1.
         11    1    3    3    0    0  0.35810379032E+02  0.25946500619E+02  0.12871524306E+03  0.13610002916E+03  0.51100000000E-03 0.  1.
<mgrwt>
<rscale>  0 0.88462679E+02</rscale>
<asrwt>0</asrwt>
<pdfrwt beam="1">  1        1 0.41585533E-01 0.88462679E+02</pdfrwt>
<pdfrwt beam="2">  1       -1 0.11135025E-02 0.88462679E+02</pdfrwt>
<totfact> 0.13609182E+05</totfact>
</mgrwt>
</event>
<event>
 5    1  0.2718303E+000  0.9188085E+02  0.7818608E-02  0.1298360E+00
          1   -1    0    0  501    0  0.00000000000E+00  0.00000000000E+00  0.70717534238E+02  0.70717534392E+02  0.46700000000E-02 0. -1.
         -1   -1    0    0    0  501 -0.00000000000E+00 -0.00000000000E+00 -0.29844404755E+02  0.29844405121E+02  0.46700000000E-02 0.  1.
         23    2    1    2    0    0  0.00000000000E+00  0.00000000000E+00  0.40873129482E+02  0.10056193951E+03  0.91880852003E+02 0.  0.
        -11    1    3    3    0    0  0.43882590601E+01  0.33736581054E+02 -0.13352791489E+02  0.36547376918E+02  0.51100000000E-03 0.  1.
         11    1    3    3    0    0 -0.43882590601E+01 -0.33736581054E+02  0.54225920971E+02  0.64014562595E+02  0.51100000000E-03 0. -1.
<mgrwt>
<rscale>  0 0.91880852E+02</rscale>
<asrwt>0</asrwt>
<pdfrwt beam="1">  1        1 0.10879621E-01 0.91880852E+02</pdfrwt>
<pdfrwt beam="2">  1       -1 0.45914469E-02 0.91880852E+02</pdfrwt>
<totfact> 0.96745889E+04</totfact>
</mgrwt>
</event>
<event>
 5    1  0.2718303E+000  0.9309650E+02  0.7818608E-02  0.1295522E+00
         -1   -1    0    0    0  501 -0.00000000000E+00  0.00000000000E+00  0.13122736284E+02  0.13122737115E+02  0.46700000000E-02 0.  1.
          1   -1    0    0  501    0  0.00000000000E+00 -0.00000000000E+00 -0.16511339717E+03  0.16511339724E+03  0.46700000000E-02 0. -1.
         23    2    1    2    0    0  0.00000000000E+00  0.00000000000E+00 -0.15199066089E+03  0.17823613435E+03  0.93096501500E+02 0.  0.
        -11    1    3    3    0    0 -0.36126765778E+02  0.59144702902E+01 -0.13103985965E+03  0.13605722686E+03  0.51100000000E-03 0. -1.
         11    1    3    3    0    0  0.36126765778E+02 -0.59144702902E+01 -0.20950801243E+02  0.42178907493E+02  0.51100000000E-03 0.  1.
<mgrwt>
<rscale>  0 0.93096502E+02</rscale>
<asrwt>0</asrwt>
<pdfrwt beam="2">  1        1 0.25402060E-01 0.93096502E+02</pdfrwt>
<pdfrwt beam="1">  1       -1 0.20188827E-02 0.93096502E+02</pdfrwt>
<totfact> 0.10791048E+05</totfact>
</mgrwt>
</event>
<event>
 5    1  0.2718303E+000  0.9146295E+02  0.7818608E-02  0.1299347E+00
          1   -1    0    0  501    0  0.00000000000E+00  0.00000000000E+00  0.32544244779E+03  0.32544244783E+03  0.46700000000E-02 0. -1.
         -1   -1    0    0    0  501 -0.00000000000E+00 -0.00000000000E+00 -0.64262284524E+01  0.64262301493E+01  0.46700000000E-02 0.  1.
         23    2    1    2    0    0  0.00000000000E+00  0.00000000000E+00  0.31901621934E+03  0.33186867798E+03  0.91462949980E+02 0.  0.
        -11    1    3    3    0    0 -0.44924671907E+02 -0.81059612657E+01  0.16940190729E+03  0.17544497413E+03  0.51100000000E-03 0. -1.
         11    1    3    3    0    0  0.44924671907E+02  0.81059612657E+01  0.14961431205E+03  0.15642370385E+03  0.51100000000E-03 0.  1.
<mgrwt>
<rscale>  0 0.91462950E+02</rscale>
<asrwt>0</asrwt>
<pdfrwt beam="1">  1        1 0.50068065E-01 0.91462950E+02</pdfrwt>
<pdfrwt beam="2">  1       -1 0.98865075E-03 0.91462950E+02</pdfrwt>
<totfact> 0.12901724E+05</totfact>
</mgrwt>
</event>
<event>
 5    1  0.2718303E+000  0.8852938E+02  0.7818608E-02  0.1306453E+00
         -1   -1    0    0    0  501 -0.00000000000E+00  0.00000000000E+00  0.96935539430E+01  0.96935550679E+01  0.46700000000E-02 0.  1.
          1   -1    0    0  501    0  0.00000000000E+00 -0.00000000000E+00 -0.20213047220E+03  0.20213047226E+03  0.46700000000E-02 0. -1.
         23    2    1    2    0    0  0.00000000000E+00  0.00000000000E+00 -0.19243691826E+03  0.21182402733E+03  0.88529379546E+02 0.  0.
        -11    1    3    3    0    0  0.92671010577E+01 -0.31591654354E+02 -0.16701364322E+03  0.17022769695E+03  0.51100000000E-03 0. -1.
         11    1    3    3    0    0 -0.92671010577E+01  0.31591654354E+02 -0.25423275045E+02  0.41596330380E+02  0.51100000000E-03 0.  1.
<mgrwt>
<rscale>  0 0.88529380E+02</rscale>
<asrwt>0</asrwt>
<pdfrwt beam="2">  1        1 0.31096993E-01 0.88529380E+02</pdfrwt>
<pdfrwt beam="1">  1       -1 0.14913162E-02 0.88529380E+02</pdfrwt>
<totfact> 0.12838143E+05</totfact>
</mgrwt>
</event>
<event>
 5    1  0.2718303E+000  0.9109381E+02  0.7818608E-02  0.1300224E+00
          1   -1    0    0  501    0  0.00000000000E+00  0.00000000000E+00  0.35770544061E+03  0.35770544064E+03  0.46700000000E-02 0. -1.
         -1   -1    0    0    0  501 -0.00000000000E+00 -0.00000000000E+00 -0.57995213301E+01  0.57995232103E+01  0.46700000000E-02 0.  1.
         23    2    1    2    0    0  0.00000000000E+00  0.00000000000E+00  0.35190591928E+03  0.36350496385E+03  0.91093812742E+02 0.  0.
        -11    1    3    3    0    0 -0.38208723618E+02 -0.24224219406E+02  0.15491255332E+03  0.16138345189E+03  0.51100000000E-03 0. -1.
         11    1    3    3    0    0  0.38208723618E+02  0.24224219406E+02  0.19699336595E+03  0.20212151196E+03  0.51100000000E-03 0.  1.
<mgrwt>
<rscale>  0 0.91093813E+02</rscale>
<asrwt>0</asrwt>
<pdfrwt beam="1">  1        1 0.55031613E-01 0.91093813E+02</pdfrwt>
<pdfrwt beam="2">  1       -1 0.89223408E-03 0.91093813E+02</pdfrwt>
<totfact> 0.13266400E+05</totfact>
</mgrwt>
</event>
<event>
 5    1  0.2718303E+000  0.8625120E+02  0.7818608E-02  0.1312193E+00
          1   -1    0    0  501    0  0.00000000000E+00  0.00000000000E+00  0.14494821867E+02  0.14494822619E+02  0.46700000000E-02 0. -1.
         -1   -1    0    0    0  501 -0.00000000000E+00 -0.00000000000E+00 -0.12830908386E+03  0.12830908394E+03  0.46700000000E-02 0.  1.
         23    2    1    2    0    0  0.00000000000E+00  0.00000000000E+00 -0.11381426199E+03  0.14280390656E+03  0.86251199973E+02 0.  0.
        -11    1    3    3    0    0 -0.17191127079E+02  0.30154830034E+02 -0.99279742549E+02  0.10517279071E+03  0.51100000000E-03 0.  1.
         11    1    3    3    0    0  0.17191127079E+02 -0.30154830034E+02 -0.14534519441E+02  0.37631115852E+02  0.51100000000E-03 0. -1.
<mgrwt>
<rscale>  0 0.86251200E+02</rscale>
<asrwt>0</asrwt>
<pdfrwt beam="1">  1        1 0.22299727E-02 0.86251200E+02</pdfrwt>
<pdfrwt beam="2">  1       -1 0.19739858E-01 0.86251200E+02</pdfrwt>
<totfact> 0.89387913E+04</totfact>
</mgrwt>
</event>
<event>
 5    1  0.2718303E+000  0.8956651E+02  0.7818608E-02  0.1303905E+00
          1   -1    0    0  501    0  0.00000000000E+00  0.00000000000E+00  0.16672516702E+03  0.16672516709E+03  0.46700000000E-02 0. -1.
         -1   -1    0    0    0  501 -0.00000000000E+00 -0.00000000000E+00 -0.12029016566E+02  0.12029017473E+02  0.46700000000E-02 0.  1.
         23    2    1    2    0    0  0.00000000000E+00  0.00000000000E+00  0.15469615046E+03  0.17875418456E+03  0.89566508985E+02 0.  0.
        -11    1    3    3    0    0  0.27196032526E+02  0.27848559733E+02  0.12154316600E+03  0.12762408733E+03  0.51100000000E-03 0. -1.
         11    1    3    3    0    0 -0.27196032526E+02 -0.27848559733E+02  0.33152984452E+02  0.51130097229E+02  0.51100000000E-03 0.  1.
<mgrwt>
<rscale>  0 0.89566509E+02</rscale>
<asrwt>0</asrwt>
<pdfrwt beam="1">  1        1 0.25650023E-01 0.89566509E+02</pdfrwt>
<pdfrwt beam="2">  1       -1 0.18506182E-02 0.89566509E+02</pdfrwt>
<totfact> 0.11996478E+05</totfact>
</mgrwt>
</event>
<event>
 5    1  0.2718303E+000  0.9009223E+02  0.7818608E-02  0.1302629E+00
          1   -1    0    0  501    0  0.00000000000E+00  0.00000000000E+00  0.51374212350E+02  0.51374212562E+02  0.46700000000E-02 0. -1.
         -1   -1    0    0    0  501 -0.00000000000E+00 -0.00000000000E+00 -0.39497489626E+02  0.39497489902E+02  0.46700000000E-02 0.  1.
         23    2    1    2    0    0  0.00000000000E+00  0.00000000000E+00  0.11876722724E+02  0.90871702464E+02  0.90092229221E+02 0.  0.
        -11    1    3    3    0    0  0.96406916698E+01  0.18849040116E+02  0.46043194775E+02  0.50677460814E+02  0.51100000000E-03 0. -1.
         11    1    3    3    0    0 -0.96406916698E+01 -0.18849040116E+02 -0.34166472051E+02  0.40194241650E+02  0.51100000000E-03 0.  1.
<mgrwt>
<rscale>  0 0.90092229E+02</rscale>
<asrwt>0</asrwt>
<pdfrwt beam="1">  1        1 0.79037250E-02 0.90092229E+02</pdfrwt>
<pdfrwt beam="2">  1       -1 0.60765369E-02 0.90092229E+02</pdfrwt>
<totfact> 0.97339251E+04</totfact>
</mgrwt>
</event>
<event>
 5    1  0.2718303E+000  0.9098208E+02  0.7818608E-02  0.1300491E+00
         -1   -1    0    0    0  501 -0.00000000000E+00  0.00000000000E+00  0.33328895847E+02  0.33328896174E+02  0.46700000000E-02 0.  1.
          1   -1    0    0  501    0  0.00000000000E+00 -0.00000000000E+00 -0.62091307792E+02  0.62091307967E+02  0.46700000000E-02 0. -1.
         23    2    1    2    0    0  0.00000000000E+00  0.00000000000E+00 -0.28762411945E+02  0.95420204141E+02  0.90982080750E+02 0.  0.
        -11    1    3    3    0    0  0.31763281567E+02  0.26450449428E+02  0.55429244316E+01  0.41704392363E+02  0.51100000000E-03 0. -1.
         11    1    3    3    0    0 -0.31763281567E+02 -0.26450449428E+02 -0.34305336376E+02  0.53715811778E+02  0.51100000000E-03 0.  1.
<mgrwt>
<rscale>  0 0.90982081E+02</rscale>
<asrwt>0</asrwt>
<pdfrwt beam="2">  1        1 0.95525090E-02 0.90982081E+02</pdfrwt>
<pdfrwt beam="1">  1       -1 0.51275225E-02 0.90982081E+02</pdfrwt>
<totfact> 0.97448878E+04</totfact>
</mgrwt>
</event>
<event>
 5    1  0.2718303E+000  0.9167331E+02  0.7818608E-02  0.1298849E+00
         -1   -1    0    0    0  501 -0.00000000000E+00  0.00000000000E+00  0.11875060739E+03  0.11875060748E+03  0.46700000000E-02 0.  1.
          1   -1    0    0  501    0  0.00000000000E+00 -0.00000000000E+00 -0.17692531855E+02  0.17692532471E+02  0.46700000000E-02 0. -1.
         23    2    1    2    0    0  0.00000000000E+00  0.00000000000E+00  0.10105807554E+03  0.13644313995E+03  0.91673310234E+02 0.  0.
        -11    1    3    3    0    0 -0.98830140597E+01  0.29620784233E+02  0.58711221233E+00  0.31231546976E+02  0.51100000000E-03 0. -1.
         11    1    3    3    0    0  0.98830140597E+01 -0.29620784233E+02  0.10047096332E+03  0.10521159298E+03  0.51100000000E-03 0.  1.
<mgrwt>
<rscale>  0 0.91673310E+02</rscale>
<asrwt>0</asrwt>
<pdfrwt beam="2">  1        1 0.27219281E-02 0.91673310E+02</pdfrwt>
<pdfrwt beam="1">  1       -1 0.18269324E-01 0.91673310E+02</pdfrwt>
<totfact> 0.77600409E+04</totfact>
</mgrwt>
</event>
<event>
 5    1  0.2718303E+000  0.9185322E+02  0.7818608E-02  0.1298425E+00
          1   -1    0    0  501    0  0.00000000000E+00  0.00000000000E+00  0.26404297994E+02  0.26404298407E+02  0.46700000000E-02 0. -1.
         -1   -1    0    0    0  501 -0.00000000000E+00 -0.00000000000E+00 -0.79882962707E+02  0.79882962844E+02  0.46700000000E-02 0.  1.
         23    2    1    2    0    0  0.00000000000E+00  0.00000000000E+00 -0.53478664713E+02  0.10628726125E+03  0.91853221635E+02 0.  0.
        -11    1    3    3    0    0  0.28390650480E+02 -0.36098533882E+02 -0.27140842162E+02  0.53345651150E+02  0.51100000000E-03 0.  1.
         11    1    3    3    0    0 -0.28390650480E+02  0.36098533882E+02 -0.26337822551E+02  0.52941610101E+02  0.51100000000E-03 0. -1.
<mgrwt>
<rscale>  0 0.91853222E+02</rscale>
<asrwt>0</asrwt>
<pdfrwt beam="1">  1        1 0.40621998E-02 0.91853222E+02</pdfrwt>
<pdfrwt beam="2">  1       -1 0.12289687E-01 0.91853222E+02</pdfrwt>
<totfact> 0.83082962E+04</totfact>
</mgrwt>
</event>
<event>
 5    1  0.2718303E+000  0.9071039E+02  0.7818608E-02  0.1301140E+00
         -1   -1    0    0    0  501 -0.00000000000E+00  0.00000000000E+00  0.61945106423E+01  0.61945124026E+01  0.46700000000E-02 0.  1.
          1   -1    0    0  501    0  0.00000000000E+00 -0.00000000000E+00 -0.33208326631E+03  0.33208326635E+03  0.46700000000E-02 0. -1.
         23    2    1    2    0    0  0.00000000000E+00  0.00000000000E+00 -0.32588875567E+03  0.33827777875E+03  0.90710388173E+02 0.  0.
        -11    1    3    3    0    0  0.32704950620E+02 -0.29789853271E+02 -0.12564401944E+03  0.13320461243E+03  0.51100000000E-03 0.  1.
         11    1    3    3    0    0 -0.32704950620E+02  0.29789853271E+02 -0.20024473623E+03  0.20507316632E+03  0.51100000000E-03 0. -1.
<mgrwt>
<rscale>  0 0.90710388E+02</rscale>
<asrwt>0</asrwt>
<pdfrwt beam="2">  1        1 0.51089720E-01 0.90710388E+02</pdfrwt>
<pdfrwt beam="1">  1       -1 0.95300203E-03 0.90710388E+02</pdfrwt>
<totfact> 0.13237754E+05</totfact>
</mgrwt>
</event>
<event>
 5    1  0.2718303E+000  0.9150315E+02  0.7818608E-02  0.1299252E+00
         -1   -1    0    0    0  501 -0.00000000000E+00  0.00000000000E+00  0.30516226912E+02  0.30516227269E+02  0.46700000000E-02 0.  1.
          1   -1    0    0  501    0  0.00000000000E+00 -0.00000000000E+00 -0.68593223385E+02  0.68593223544E+02  0.46700000000E-02 0. -1.
         23    2    1    2    0    0  0.00000000000E+00  0.00000000000E+00 -0.38076996473E+02  0.99109450813E+02  0.91503145192E+02 0.  0.
        -11    1    3    3    0    0 -0.18586352008E+02  0.41799246242E+02 -0.19861194726E+02  0.49870798305E+02  0.51100000000E-03 0. -1.
         11    1    3    3    0    0  0.18586352008E+02 -0.41799246242E+02 -0.18215801746E+02  0.49238652508E+02  0.51100000000E-03 0.  1.
<mgrwt>
<rscale>  0 0.91503145E+02</rscale>
<asrwt>0</asrwt>
<pdfrwt beam="2">  1        1 0.10552804E-01 0.91503145E+02</pdfrwt>
<pdfrwt beam="1">  1       -1 0.46948042E-02 0.91503145E+02</pdfrwt>
<totfact> 0.97392551E+04</totfact>
</mgrwt>
</event>
<event>
 5    1  0.2718303E+000  0.9177738E+02  0.7818608E-02  0.1298604E+00
          1   -1    0    0  501    0  0.00000000000E+00  0.00000000000E+00  0.23447288263E+03  0.23447288267E+03  0.46700000000E-02 0. -1.
         -1   -1    0    0    0  501 -0.00000000000E+00 -0.00000000000E+00 -0.89808751383E+01  0.89808763525E+01  0.46700000000E-02 0.  1.
         23    2    1    2    0    0  0.00000000000E+00  0.00000000000E+00  0.22549200749E+03  0.24345375903E+03  0.91777379253E+02 0.  0.
        -11    1    3    3    0    0  0.36129795151E+02 -0.23327946249E+02  0.70285561170E+02  0.82399121859E+02  0.51100000000E-03 0.  1.
         11    1    3    3    0    0 -0.36129795151E+02  0.23327946249E+02  0.15520644632E+03  0.16105463717E+03  0.51100000000E-03 0. -1.
<mgrwt>
<rscale>  0 0.91777379E+02</rscale>
<asrwt>0</asrwt>
<pdfrwt beam="1">  1        1 0.36072744E-01 0.91777379E+02</pdfrwt>
<pdfrwt beam="2">  1       -1 0.13816735E-02 0.91777379E+02</pdfrwt>
<totfact> 0.12000555E+05</totfact>
</mgrwt>
</event>
<event>
 5    1  0.2718303E+000  0.9589689E+02  0.7818608E-02  0.1289169E+00
         -1   -1    0    0    0  501 -0.00000000000E+00  0.00000000000E+00  0.66804715756E+02  0.66804715920E+02  0.46700000000E-02 0.  1.
          1   -1    0    0  501    0  0.00000000000E+00 -0.00000000000E+00 -0.34414534011E+02  0.34414534328E+02  0.46700000000E-02 0. -1.
         23    2    1    2    0    0  0.00000000000E+00  0.00000000000E+00  0.32390181745E+02  0.10121925025E+03  0.95896886014E+02 0.  0.
        -11    1    3    3    0    0  0.13382982132E+02  0.18090200331E+02  0.60885224019E+02  0.64910477297E+02  0.51100000000E-03 0.  1.
         11    1    3    3    0    0 -0.13382982132E+02 -0.18090200331E+02 -0.28495042274E+02  0.36308772951E+02  0.51100000000E-03 0. -1.
<mgrwt>
<rscale>  0 0.95896886E+02</rscale>
<asrwt>0</asrwt>
<pdfrwt beam="2">  1        1 0.52945438E-02 0.95896886E+02</pdfrwt>
<pdfrwt beam="1">  1       -1 0.10277648E-01 0.95896886E+02</pdfrwt>
<totfact> 0.76668980E+04</totfact>
</mgrwt>
</event>
<event>
 5    1  0.2718303E+000  0.8649432E+02  0.7818608E-02  0.1311570E+00
          1   -1    0    0  501    0  0.00000000000E+00  0.00000000000E+00  0.10952869626E+03  0.10952869636E+03  0.46700000000E-02 0. -1.
         -1   -1    0    0    0  501 -0.00000000000E+00 -0.00000000000E+00 -0.17076043566E+02  0.17076044204E+02  0.46700000000E-02 0.  1.
         23    2    1    2    0    0  0.00000000000E+00  0.00000000000E+00  0.92452652698E+02  0.12660474057E+03  0.86494319716E+02 0.  0.
        -11    1    3    3    0    0  0.42791676152E+02  0.53022169644E+01  0.41354973398E+02  0.59745082456E+02  0.51100000000E-03 0.  1.
         11    1    3    3    0    0 -0.42791676152E+02 -0.53022169644E+01  0.51097679301E+02  0.66859658112E+02  0.51100000000E-03 0. -1.
<mgrwt>
<rscale>  0 0.86494320E+02</rscale>
<asrwt>0</asrwt>
<pdfrwt beam="1">  1        1 0.16850568E-01 0.86494320E+02</pdfrwt>
<pdfrwt beam="2">  1       -1 0.26270838E-02 0.86494320E+02</pdfrwt>
<totfact> 0.12233670E+05</totfact>
</mgrwt>
</event>
<event>
 5    1  0.2718303E+000  0.7783275E+02  0.7818608E-02  0.1335317E+00
          1   -1    0    0  501    0  0.00000000000E+00  0.00000000000E+00  0.11755706266E+03  0.11755706276E+03  0.46700000000E-02 0. -1.
         -1   -1    0    0    0  501 -0.00000000000E+00 -0.00000000000E+00 -0.12882970102E+02  0.12882970949E+02  0.46700000000E-02 0.  1.
         23    2    1    2    0    0  0.00000000000E+00  0.00000000000E+00  0.10467409256E+03  0.13044003371E+03  0.77832748503E+02 0.  0.
        -11    1    3    3    0    0  0.58680132500E+01 -0.20279458826E+02 -0.24522308341E+01  0.21253316591E+02  0.51100000000E-03 0.  1.
         11    1    3    3    0    0 -0.58680132500E+01  0.20279458826E+02  0.10712632340E+03  0.10918671712E+03  0.51100000000E-03 0. -1.
<mgrwt>
<rscale>  0 0.77832749E+02</rscale>
<asrwt>0</asrwt>
<pdfrwt beam="1">  1        1 0.18085703E-01 0.77832749E+02</pdfrwt>
<pdfrwt beam="2">  1       -1 0.19819954E-02 0.77832749E+02</pdfrwt>
<totfact> 0.16422003E+05</totfact>
</mgrwt>
</event>
<event>
 5    1  0.2718303E+000  0.9204658E+02  0.7818608E-02  0.1297970E+00
         -1   -1    0    0    0  501 -0.00000000000E+00  0.00000000000E+00  0.52321001280E+02  0.52321001488E+02  0.46700000000E-02 0.  1.
          1   -1    0    0  501    0  0.00000000000E+00 -0.00000000000E+00 -0.40483615387E+02  0.40483615657E+02  0.46700000000E-02 0. -1.
         23    2    1    2    0    0  0.00000000000E+00  0.00000000000E+00  0.11837385892E+02  0.92804617145E+02  0.92046582004E+02 0.  0.
        -11    1    3    3    0    0  0.43360998180E+02  0.98141923973E+01 -0.60809503001E+01  0.44871733780E+02  0.51100000000E-03 0.  1.
         11    1    3    3    0    0 -0.43360998180E+02 -0.98141923973E+01  0.17918336193E+02  0.47932883366E+02  0.51100000000E-03 0. -1.
<mgrwt>
<rscale>  0 0.92046582E+02</rscale>
<asrwt>0</asrwt>
<pdfrwt beam="2">  1        1 0.62282486E-02 0.92046582E+02</pdfrwt>
<pdfrwt beam="1">  1       -1 0.80493848E-02 0.92046582E+02</pdfrwt>
<totfact> 0.88423033E+04</totfact>
</mgrwt>
</event>
<event>
 5    1  0.2718303E+000  0.9321582E+02  0.7818608E-02  0.1295246E+00
          1   -1    0    0  501    0  0.00000000000E+00  0.00000000000E+00  0.34808114328E+02  0.34808114641E+02  0.46700000000E-02 0.  1.
         -1   -1    0    0    0  501 -0.00000000000E+00 -0.00000000000E+00 -0.62407780032E+02  0.62407780206E+02  0.46700000000E-02 0. -1.
         23    2    1    2    0    0  0.00000000000E+00  0.00000000000E+00 -0.27599665704E+02  0.97215894847E+02  0.93215817671E+02 0.  0.
        -11    1    3    3    0    0  0.37348163033E+02  0.27611818281E+02 -0.97607361970E+01  0.47461244844E+02  0.51100000000E-03 0.  1.
         11    1    3    3    0    0 -0.37348163033E+02 -0.27611818281E+02 -0.17838929507E+02  0.49754650004E+02  0.51100000000E-03 0. -1.
<mgrwt>
<rscale>  0 0.93215818E+02</rscale>
<asrwt>0</asrwt>
<pdfrwt beam="1">  1        1 0.53550946E-02 0.93215818E+02</pdfrwt>
<pdfrwt beam="2">  1       -1 0.96011969E-02 0.93215818E+02</pdfrwt>
<totfact> 0.83318452E+04</totfact>
</mgrwt>
</event>
<event>
 5    1  0.2718303E+000  0.9094524E+02  0.7818608E-02  0.1300579E+00
         -1   -1    0    0    0  501 -0.00000000000E+00  0.00000000000E+00  0.12829712018E+03  0.12829712027E+03  0.46700000000E-02 0.  1.
          1   -1    0    0  501    0  0.00000000000E+00 -0.00000000000E+00 -0.16116956314E+02  0.16116956991E+02  0.46700000000E-02 0. -1.
         23    2    1    2    0    0  0.00000000000E+00  0.00000000000E+00  0.11218016387E+03  0.14441407726E+03  0.90945239264E+02 0.  0.
        -11    1    3    3    0    0 -0.32876977478E+02  0.30711100682E+02  0.66586217768E+02  0.80360386697E+02  0.51100000000E-03 0.  1.
         11    1    3    3    0    0  0.32876977478E+02 -0.30711100682E+02  0.45593946101E+02  0.64053690561E+02  0.51100000000E-03 0. -1.
<mgrwt>
<rscale>  0 0.90945239E+02</rscale>
<asrwt>0</asrwt>
<pdfrwt beam="2">  1        1 0.24795317E-02 0.90945239E+02</pdfrwt>
<pdfrwt beam="1">  1       -1 0.19738020E-01 0.90945239E+02</pdfrwt>
<totfact> 0.77954264E+04</totfact>
</mgrwt>
</event>
<event>
 5    1  0.2718303E+000  0.9125018E+02  0.7818608E-02  0.1299852E+00
         -1   -1    0    0    0  501 -0.00000000000E+00  0.00000000000E+00  0.10932458220E+03  0.10932458230E+03  0.46700000000E-02 0.  1.
          1   -1    0    0  501    0  0.00000000000E+00 -0.00000000000E+00 -0.19040996536E+02  0.19040997109E+02  0.46700000000E-02 0. -1.
         23    2    1    2    0    0  0.00000000000E+00  0.00000000000E+00  0.90283585665E+02  0.12836557941E+03  0.91250184309E+02 0.  0.
        -11    1    3    3    0    0  0.36377896637E+00 -0.29823536821E+02 -0.34280082298E+01  0.30022107260E+02  0.51100000000E-03 0. -1.
         11    1    3    3    0    0 -0.36377896637E+00  0.29823536821E+02  0.93711593894E+02  0.98343472148E+02  0.51100000000E-03 0.  1.
<mgrwt>
<rscale>  0 0.91250184E+02</rscale>
<asrwt>0</asrwt>
<pdfrwt beam="2">  1        1 0.29293841E-02 0.91250184E+02</pdfrwt>
<pdfrwt beam="1">  1       -1 0.16819166E-01 0.91250184E+02</pdfrwt>
<totfact> 0.79837285E+04</totfact>
</mgrwt>
</event>
<event>
 5    1  0.2718303E+000  0.8015792E+02  0.7818608E-02  0.1328604E+00
          1   -1    0    0  501    0  0.00000000000E+00  0.00000000000E+00  0.40702606284E+02  0.40702606552E+02  0.46700000000E-02 0. -1.
         -1   -1    0    0    0  501 -0.00000000000E+00 -0.00000000000E+00 -0.39464866117E+02  0.39464866393E+02  0.46700000000E-02 0.  1.
         23    2    1    2    0    0  0.00000000000E+00  0.00000000000E+00  0.12377401674E+01  0.80167472945E+02  0.80157917373E+02 0.  0.
        -11    1    3    3    0    0 -0.25688801981E+02  0.13526381078E+01  0.31356533799E+02  0.40558308510E+02  0.51100000000E-03 0. -1.
         11    1    3    3    0    0  0.25688801981E+02 -0.13526381078E+01 -0.30118793632E+02  0.39609164434E+02  0.51100000000E-03 0.  1.
<mgrwt>
<rscale>  0 0.80157917E+02</rscale>
<asrwt>0</asrwt>
<pdfrwt beam="1">  1        1 0.62619394E-02 0.80157917E+02</pdfrwt>
<pdfrwt beam="2">  1       -1 0.60715179E-02 0.80157917E+02</pdfrwt>
<totfact> 0.13021817E+05</totfact>
</mgrwt>
</event>
<event>
 5    1  0.2718303E+000  0.8857173E+02  0.7818608E-02  0.1306348E+00
         -1   -1    0    0    0  501 -0.00000000000E+00  0.00000000000E+00  0.88811476768E+02  0.88811476891E+02  0.46700000000E-02 0.  1.
          1   -1    0    0  501    0  0.00000000000E+00 -0.00000000000E+00 -0.22083157915E+02  0.22083158409E+02  0.46700000000E-02 0. -1.
         23    2    1    2    0    0  0.00000000000E+00  0.00000000000E+00  0.66728318853E+02  0.11089463530E+03  0.88571731390E+02 0.  0.
        -11    1    3    3    0    0 -0.18949381556E+02 -0.31799906143E+02  0.29285842107E+01  0.37133404069E+02  0.51100000000E-03 0. -1.
         11    1    3    3    0    0  0.18949381556E+02  0.31799906143E+02  0.63799734642E+02  0.73761231231E+02  0.51100000000E-03 0.  1.
<mgrwt>
<rscale>  0 0.88571731E+02</rscale>
<asrwt>0</asrwt>
<pdfrwt beam="2">  1        1 0.33974090E-02 0.88571731E+02</pdfrwt>
<pdfrwt beam="1">  1       -1 0.13663304E-01 0.88571731E+02</pdfrwt>
<totfact> 0.89552245E+04</totfact>
</mgrwt>
</event>
<event>
 5    1  0.2718303E+000  0.6749445E+02  0.7818608E-02  0.1368827E+00
         -1   -1    0    0    0  501 -0.00000000000E+00  0.00000000000E+00  0.24682224397E+02  0.24682224839E+02  0.46700000000E-02 0.  1.
          1   -1    0    0  501    0  0.00000000000E+00 -0.00000000000E+00 -0.46141518442E+02  0.46141518678E+02  0.46700000000E-02 0. -1.
         23    2    1    2    0    0  0.00000000000E+00  0.00000000000E+00 -0.21459294045E+02  0.70823743517E+02  0.67494454179E+02 0.  0.
        -11    1    3    3    0    0  0.55176296198E+01 -0.33016432607E+02 -0.62351120385E+01  0.34050046712E+02  0.51100000000E-03 0. -1.
         11    1    3    3    0    0 -0.55176296198E+01  0.33016432607E+02 -0.15224182006E+02  0.36773696805E+02  0.51100000000E-03 0.  1.
<mgrwt>
<rscale>  0 0.67494454E+02</rscale>
<asrwt>0</asrwt>
<pdfrwt beam="2">  1        1 0.70986952E-02 0.67494454E+02</pdfrwt>
<pdfrwt beam="1">  1       -1 0.37972654E-02 0.67494454E+02</pdfrwt>
<totfact> 0.21104918E+05</totfact>
</mgrwt>
</event>
<event>
 5    1  0.2718303E+000  0.8984776E+02  0.7818608E-02  0.1303221E+00
         -1   -1    0    0    0  501 -0.00000000000E+00  0.00000000000E+00  0.21311217746E+02  0.21311218257E+02  0.46700000000E-02 0.  1.
          1   -1    0    0  501    0  0.00000000000E+00 -0.00000000000E+00 -0.94699184198E+02  0.94699184313E+02  0.46700000000E-02 0. -1.
         23    2    1    2    0    0  0.00000000000E+00  0.00000000000E+00 -0.73387966452E+02  0.11601040257E+03  0.89847759485E+02 0.  0.
        -11    1    3    3    0    0  0.22143188707E+02 -0.26607888135E+02  0.27674986859E+00  0.34617583796E+02  0.51100000000E-03 0.  1.
         11    1    3    3    0    0 -0.22143188707E+02  0.26607888135E+02 -0.73664716320E+02  0.81392818774E+02  0.51100000000E-03 0. -1.
<mgrwt>
<rscale>  0 0.89847759E+02</rscale>
<asrwt>0</asrwt>
<pdfrwt beam="2">  1        1 0.14569105E-01 0.89847759E+02</pdfrwt>
<pdfrwt beam="1">  1       -1 0.32786490E-02 0.89847759E+02</pdfrwt>
<totfact> 0.10774355E+05</totfact>
</mgrwt>
</event>
<event>
 5    1  0.2718303E+000  0.8999297E+02  0.7818608E-02  0.1302869E+00
          1   -1    0    0  501    0  0.00000000000E+00  0.00000000000E+00  0.59562438536E+02  0.59562438719E+02  0.46700000000E-02 0. -1.
         -1   -1    0    0    0  501 -0.00000000000E+00 -0.00000000000E+00 -0.33992623863E+02  0.33992624184E+02  0.46700000000E-02 0.  1.
         23    2    1    2    0    0  0.00000000000E+00  0.00000000000E+00  0.25569814674E+02  0.93555062903E+02  0.89992968461E+02 0.  0.
        -11    1    3    3    0    0  0.26476379781E+02  0.36341045771E+02  0.14589502620E+02  0.47270750798E+02  0.51100000000E-03 0.  1.
         11    1    3    3    0    0 -0.26476379781E+02 -0.36341045771E+02  0.10980312053E+02  0.46284312105E+02  0.51100000000E-03 0. -1.
<mgrwt>
<rscale>  0 0.89992968E+02</rscale>
<asrwt>0</asrwt>
<pdfrwt beam="1">  1        1 0.91634521E-02 0.89992968E+02</pdfrwt>
<pdfrwt beam="2">  1       -1 0.52296345E-02 0.89992968E+02</pdfrwt>
<totfact> 0.99813121E+04</totfact>
</mgrwt>
</event>
<event>
 5    1  0.2718303E+000  0.9202501E+02  0.7818608E-02  0.1298021E+00
          1   -1    0    0  501    0  0.00000000000E+00  0.00000000000E+00  0.53831357200E+02  0.53831357403E+02  0.46700000000E-02 0. -1.
         -1   -1    0    0    0  501 -0.00000000000E+00 -0.00000000000E+00 -0.39329315355E+02  0.39329315633E+02  0.46700000000E-02 0.  1.
         23    2    1    2    0    0  0.00000000000E+00  0.00000000000E+00  0.14502041845E+02  0.93160673036E+02  0.92025006290E+02 0.  0.
        -11    1    3    3    0    0  0.34333914239E+02 -0.79738747280E+01  0.37192190577E+02  0.51241188367E+02  0.51100000000E-03 0. -1.
         11    1    3    3    0    0 -0.34333914239E+02  0.79738747280E+01 -0.22690148732E+02  0.41919484668E+02  0.51100000000E-03 0.  1.
<mgrwt>
<rscale>  0 0.92025006E+02</rscale>
<asrwt>0</asrwt>
<pdfrwt beam="1">  1        1 0.82817472E-02 0.92025006E+02</pdfrwt>
<pdfrwt beam="2">  1       -1 0.60506640E-02 0.92025006E+02</pdfrwt>
<totfact> 0.92390228E+04</totfact>
</mgrwt>
</event>
<event>
 5    1  0.2718303E+000  0.8921663E+02  0.7818608E-02  0.1304760E+00
          1   -1    0    0  501    0  0.00000000000E+00  0.00000000000E+00  0.29887756150E+02  0.29887756515E+02  0.46700000000E-02 0. -1.
         -1   -1    0    0    0  501 -0.00000000000E+00 -0.00000000000E+00 -0.66579160472E+02  0.66579160636E+02  0.46700000000E-02 0.  1.
         23    2    1    2    0    0  0.00000000000E+00  0.00000000000E+00 -0.36691404322E+02  0.96466917151E+02  0.89216629355E+02 0.  0.
        -11    1    3    3    0    0 -0.19746346914E+01 -0.38613385022E+02  0.57111699376E+01  0.39083374309E+02  0.51100000000E-03 0. -1.
         11    1    3    3    0    0  0.19746346914E+01  0.38613385022E+02 -0.42402574260E+02  0.57383542842E+02  0.51100000000E-03 0.  1.
<mgrwt>
<rscale>  0 0.89216629E+02</rscale>
<asrwt>0</asrwt>
<pdfrwt beam="1">  1        1 0.45981164E-02 0.89216629E+02</pdfrwt>
<pdfrwt beam="2">  1       -1 0.10242948E-01 0.89216629E+02</pdfrwt>
<totfact> 0.92194525E+04</totfact>
</mgrwt>
</event>
<event>
 5    1  0.2718303E+000  0.9199756E+02  0.7818608E-02  0.1298085E+00
         -1   -1    0    0    0  501 -0.00000000000E+00  0.00000000000E+00  0.12845598337E+02  0.12845599186E+02  0.46700000000E-02 0.  1.
          1   -1    0    0  501    0  0.00000000000E+00 -0.00000000000E+00 -0.16471692678E+03  0.16471692685E+03  0.46700000000E-02 0. -1.
         23    2    1    2    0    0  0.00000000000E+00  0.00000000000E+00 -0.15187132845E+03  0.17756252604E+03  0.91997555664E+02 0.  0.
        -11    1    3    3    0    0  0.82318393006E+01  0.33350615087E+02 -0.16890998567E+02  0.38279662196E+02  0.51100000000E-03 0.  1.
         11    1    3    3    0    0 -0.82318393006E+01 -0.33350615087E+02 -0.13498032988E+03  0.13928286384E+03  0.51100000000E-03 0. -1.
<mgrwt>
<rscale>  0 0.91997556E+02</rscale>
<asrwt>0</asrwt>
<pdfrwt beam="2">  1        1 0.25341064E-01 0.91997556E+02</pdfrwt>
<pdfrwt beam="1">  1       -1 0.19762461E-02 0.91997556E+02</pdfrwt>
<totfact> 0.11137418E+05</totfact>
</mgrwt>
</event>
<event>
 5    1  0.2718303E+000  0.9008713E+02  0.7818608E-02  0.1302641E+00
          1   -1    0    0  501    0  0.00000000000E+00  0.00000000000E+00  0.42227124673E+02  0.42227124931E+02  0.46700000000E-02 0. -1.
         -1   -1    0    0    0  501 -0.00000000000E+00 -0.00000000000E+00 -0.48047854226E+02  0.48047854453E+02  0.46700000000E-02 0.  1.
         23    2    1    2    0    0  0.00000000000E+00  0.00000000000E+00 -0.58207295534E+01  0.90274979384E+02  0.90087130103E+02 0.  0.
        -11    1    3    3    0    0  0.14392910334E+02  0.49673615710E+01 -0.45390884954E+02  0.47876538993E+02  0.51100000000E-03 0.  1.
         11    1    3    3    0    0 -0.14392910334E+02 -0.49673615710E+01  0.39570155400E+02  0.42398440390E+02  0.51100000000E-03 0. -1.
<mgrwt>
<rscale>  0 0.90087130E+02</rscale>
<asrwt>0</asrwt>
<pdfrwt beam="1">  1        1 0.64964808E-02 0.90087130E+02</pdfrwt>
<pdfrwt beam="2">  1       -1 0.73919776E-02 0.90087130E+02</pdfrwt>
<totfact> 0.94554848E+04</totfact>
</mgrwt>
</event>
<event>
 5    1  0.2718303E+000  0.9197719E+02  0.7818608E-02  0.1298133E+00
          1   -1    0    0  501    0  0.00000000000E+00  0.00000000000E+00  0.11023847775E+02  0.11023848764E+02  0.46700000000E-02 0. -1.
         -1   -1    0    0    0  501 -0.00000000000E+00 -0.00000000000E+00 -0.19185232238E+03  0.19185232243E+03  0.46700000000E-02 0.  1.
         23    2    1    2    0    0  0.00000000000E+00  0.00000000000E+00 -0.18082847460E+03  0.20287617120E+03  0.91977190721E+02 0.  0.
        -11    1    3    3    0    0 -0.22594422057E+02  0.31310745780E+02 -0.14551671140E+03  0.15055226337E+03  0.51100000000E-03 0.  1.
         11    1    3    3    0    0  0.22594422057E+02 -0.31310745780E+02 -0.35311763198E+02  0.52323907823E+02  0.51100000000E-03 0. -1.
<mgrwt>
<rscale>  0 0.91977191E+02</rscale>
<asrwt>0</asrwt>
<pdfrwt beam="1">  1        1 0.16959768E-02 0.91977191E+02</pdfrwt>
<pdfrwt beam="2">  1       -1 0.29515740E-01 0.91977191E+02</pdfrwt>
<totfact> 0.68660705E+04</totfact>
</mgrwt>
</event>
<event>
 5    1  0.2718303E+000  0.9143627E+02  0.7818608E-02  0.1299410E+00
         -1   -1    0    0    0  501 -0.00000000000E+00  0.00000000000E+00  0.17649635630E+02  0.17649636248E+02  0.46700000000E-02 0. -1.
          1   -1    0    0  501    0  0.00000000000E+00 -0.00000000000E+00 -0.11842442703E+03  0.11842442712E+03  0.46700000000E-02 0.  1.
         23    2    1    2    0    0  0.00000000000E+00  0.00000000000E+00 -0.10077479140E+03  0.13607406337E+03  0.91436273657E+02 0.  0.
        -11    1    3    3    0    0  0.35251445927E+00 -0.35573063239E+02 -0.93121389325E+02  0.99685306063E+02  0.51100000000E-03 0.  1.
         11    1    3    3    0    0 -0.35251445927E+00  0.35573063239E+02 -0.76534020726E+01  0.36388757305E+02  0.51100000000E-03 0. -1.
<mgrwt>
<rscale>  0 0.91436274E+02</rscale>
<asrwt>0</asrwt>
<pdfrwt beam="2">  1        1 0.18219142E-01 0.91436274E+02</pdfrwt>
<pdfrwt beam="1">  1       -1 0.27153287E-02 0.91436274E+02</pdfrwt>
<totfact> 0.10666571E+05</totfact>
</mgrwt>
</event>
<event>
 5    1  0.2718303E+000  0.9749572E+02  0.7818608E-02  0.1285652E+00
         -1   -1    0    0    0  501 -0.00000000000E+00  0.00000000000E+00  0.22066331677E+02  0.22066332171E+02  0.46700000000E-02 0.  1.
          1   -1    0    0  501    0  0.00000000000E+00 -0.00000000000E+00 -0.10769138113E+03  0.10769138123E+03  0.46700000000E-02 0. -1.
         23    2    1    2    0    0  0.00000000000E+00  0.00000000000E+00 -0.85625049449E+02  0.12975771340E+03  0.97495718332E+02 0.  0.
        -11    1    3    3    0    0 -0.28080892050E+02 -0.39556899821E+02 -0.49204889736E+02  0.69097076609E+02  0.51100000000E-03 0. -1.
         11    1    3    3    0    0  0.28080892050E+02  0.39556899821E+02 -0.36420159713E+02  0.60660636788E+02  0.51100000000E-03 0.  1.
<mgrwt>
<rscale>  0 0.97495718E+02</rscale>
<asrwt>0</asrwt>
<pdfrwt beam="2">  1        1 0.16567905E-01 0.97495718E+02</pdfrwt>
<pdfrwt beam="1">  1       -1 0.33948204E-02 0.97495718E+02</pdfrwt>
<totfact> 0.88054138E+04</totfact>
</mgrwt>
</event>
<event>
 5    1  0.2718303E+000  0.9161615E+02  0.7818608E-02  0.1298984E+00
         -1   -1    0    0    0  501 -0.00000000000E+00  0.00000000000E+00  0.42283726622E+01  0.42283752411E+01  0.46700000000E-02 0.  1.
          1   -1    0    0  501    0  0.00000000000E+00 -0.00000000000E+00 -0.49626157192E+03  0.49626157194E+03  0.46700000000E-02 0. -1.
         23    2    1    2    0    0  0.00000000000E+00  0.00000000000E+00 -0.49203319925E+03  0.50048994718E+03  0.91616145190E+02 0.  0.
        -11    1    3    3    0    0  0.37710882117E+02  0.25923578673E+02 -0.23477183982E+03  0.23919021580E+03  0.51100000000E-03 0.  1.
         11    1    3    3    0    0 -0.37710882117E+02 -0.25923578673E+02 -0.25726135943E+03  0.26129973138E+03  0.51100000000E-03 0. -1.
<mgrwt>
<rscale>  0 0.91616145E+02</rscale>
<asrwt>0</asrwt>
<pdfrwt beam="2">  1        1 0.76347888E-01 0.91616145E+02</pdfrwt>
<pdfrwt beam="1">  1       -1 0.65051946E-03 0.91616145E+02</pdfrwt>
<totfact> 0.13737857E+05</totfact>
</mgrwt>
</event>
<event>
 5    1  0.2718303E+000  0.9350616E+02  0.7818608E-02  0.1294576E+00
         -1   -1    0    0    0  501 -0.00000000000E+00  0.00000000000E+00  0.26569744935E+02  0.26569745345E+02  0.46700000000E-02 0. -1.
          1   -1    0    0  501    0  0.00000000000E+00 -0.00000000000E+00 -0.82268397168E+02  0.82268397300E+02  0.46700000000E-02 0.  1.
         23    2    1    2    0    0  0.00000000000E+00  0.00000000000E+00 -0.55698652233E+02  0.10883814265E+03  0.93506157198E+02 0.  0.
        -11    1    3    3    0    0  0.40323950751E+02 -0.21114843671E+01 -0.55279749249E+02  0.68456775031E+02  0.51100000000E-03 0.  1.
         11    1    3    3    0    0 -0.40323950751E+02  0.21114843671E+01 -0.41890298410E+00  0.40381367614E+02  0.51100000000E-03 0. -1.
<mgrwt>
<rscale>  0 0.93506157E+02</rscale>
<asrwt>0</asrwt>
<pdfrwt beam="2">  1        1 0.12656676E-01 0.93506157E+02</pdfrwt>
<pdfrwt beam="1">  1       -1 0.40876531E-02 0.93506157E+02</pdfrwt>
<totfact> 0.94410280E+04</totfact>
</mgrwt>
</event>
<event>
 5    1  0.2718303E+000  0.9129745E+02  0.7818608E-02  0.1299740E+00
         -1   -1    0    0    0  501 -0.00000000000E+00  0.00000000000E+00  0.29196757714E+02  0.29196758087E+02  0.46700000000E-02 0.  1.
          1   -1    0    0  501    0  0.00000000000E+00 -0.00000000000E+00 -0.71371152860E+02  0.71371153013E+02  0.46700000000E-02 0. -1.
         23    2    1    2    0    0  0.00000000000E+00  0.00000000000E+00 -0.42174395146E+02  0.10056791110E+03  0.91297454165E+02 0.  0.
        -11    1    3    3    0    0 -0.68644933933E+01 -0.44121784636E+02 -0.10639780949E+02  0.45902702403E+02  0.51100000000E-03 0.  1.
         11    1    3    3    0    0  0.68644933933E+01  0.44121784636E+02 -0.31534614197E+02  0.54665208697E+02  0.51100000000E-03 0. -1.
<mgrwt>
<rscale>  0 0.91297454E+02</rscale>
<asrwt>0</asrwt>
<pdfrwt beam="2">  1        1 0.10980177E-01 0.91297454E+02</pdfrwt>
<pdfrwt beam="1">  1       -1 0.44918089E-02 0.91297454E+02</pdfrwt>
<totfact> 0.98602981E+04</totfact>
</mgrwt>
</event>
<event>
 5    1  0.2718303E+000  0.9795251E+02  0.7818608E-02  0.1284661E+00
         -1   -1    0    0    0  501 -0.00000000000E+00  0.00000000000E+00  0.62583149089E+02  0.62583149263E+02  0.46700000000E-02 0.  1.
          1   -1    0    0  501    0  0.00000000000E+00 -0.00000000000E+00 -0.38327784016E+02  0.38327784301E+02  0.46700000000E-02 0. -1.
         23    2    1    2    0    0  0.00000000000E+00  0.00000000000E+00  0.24255365073E+02  0.10091093356E+03  0.97952507768E+02 0.  0.
        -11    1    3    3    0    0  0.19324272706E+02 -0.43099574864E+02  0.25467616569E+02  0.53661907934E+02  0.51100000000E-03 0.  1.
         11    1    3    3    0    0 -0.19324272706E+02  0.43099574864E+02 -0.12122514959E+01  0.47249025631E+02  0.51100000000E-03 0. -1.
<mgrwt>
<rscale>  0 0.97952508E+02</rscale>
<asrwt>0</asrwt>
<pdfrwt beam="2">  1        1 0.58965822E-02 0.97952508E+02</pdfrwt>
<pdfrwt beam="1">  1       -1 0.96281768E-02 0.97952508E+02</pdfrwt>
<totfact> 0.73424029E+04</totfact>
</mgrwt>
</event>
<event>
 5    1  0.2718303E+000  0.9427745E+02  0.7818608E-02  0.1292812E+00
          1   -1    0    0  501    0  0.00000000000E+00  0.00000000000E+00  0.10754827375E+03  0.10754827385E+03  0.46700000000E-02 0. -1.
         -1   -1    0    0    0  501 -0.00000000000E+00 -0.00000000000E+00 -0.20661039954E+02  0.20661040482E+02  0.46700000000E-02 0.  1.
         23    2    1    2    0    0  0.00000000000E+00  0.00000000000E+00  0.86887233799E+02  0.12820931434E+03  0.94277446324E+02 0.  0.
        -11    1    3    3    0    0  0.32104287250E+02  0.27623522524E+02  0.71588107418E+02  0.83178130422E+02  0.51100000000E-03 0. -1.
         11    1    3    3    0    0 -0.32104287250E+02 -0.27623522524E+02  0.15299126380E+02  0.45031183914E+02  0.51100000000E-03 0.  1.
<mgrwt>
<rscale>  0 0.94277446E+02</rscale>
<asrwt>0</asrwt>
<pdfrwt beam="1">  1        1 0.16545888E-01 0.94277446E+02</pdfrwt>
<pdfrwt beam="2">  1       -1 0.31786216E-02 0.94277446E+02</pdfrwt>
<totfact> 0.96513639E+04</totfact>
</mgrwt>
</event>
<event>
 5    1  0.2718303E+000  0.9082923E+02  0.7818608E-02  0.1300856E+00
         -1   -1    0    0    0  501 -0.00000000000E+00  0.00000000000E+00  0.51254988475E+02  0.51254988688E+02  0.46700000000E-02 0.  1.
          1   -1    0    0  501    0  0.00000000000E+00 -0.00000000000E+00 -0.40239732738E+02  0.40239733009E+02  0.46700000000E-02 0. -1.
         23    2    1    2    0    0  0.00000000000E+00  0.00000000000E+00  0.11015255737E+02  0.91494721697E+02  0.90829225690E+02 0.  0.
        -11    1    3    3    0    0  0.13538370698E+02 -0.17878952779E+02  0.45288019408E+02  0.50536611835E+02  0.51100000000E-03 0.  1.
         11    1    3    3    0    0 -0.13538370698E+02  0.17878952779E+02 -0.34272763670E+02  0.40958109862E+02  0.51100000000E-03 0. -1.
<mgrwt>
<rscale>  0 0.90829226E+02</rscale>
<asrwt>0</asrwt>
<pdfrwt beam="2">  1        1 0.61907282E-02 0.90829226E+02</pdfrwt>
<pdfrwt beam="1">  1       -1 0.78853829E-02 0.90829226E+02</pdfrwt>
<totfact> 0.91729733E+04</totfact>
</mgrwt>
</event>
<event>
 5    1  0.2718303E+000  0.9208639E+02  0.7818608E-02  0.1297876E+00
          1   -1    0    0  501    0  0.00000000000E+00  0.00000000000E+00  0.16901174128E+03  0.16901174135E+03  0.46700000000E-02 0. -1.
         -1   -1    0    0    0  501 -0.00000000000E+00 -0.00000000000E+00 -0.12543364920E+02  0.12543365789E+02  0.46700000000E-02 0.  1.
         23    2    1    2    0    0  0.00000000000E+00  0.00000000000E+00  0.15646837636E+03  0.18155510714E+03  0.92086394900E+02 0.  0.
        -11    1    3    3    0    0 -0.42440601600E+02  0.17499666508E+02  0.71254416836E+02  0.84762225732E+02  0.51100000000E-03 0. -1.
         11    1    3    3    0    0  0.42440601600E+02 -0.17499666508E+02  0.85213959528E+02  0.96792881405E+02  0.51100000000E-03 0.  1.
<mgrwt>
<rscale>  0 0.92086395E+02</rscale>
<asrwt>0</asrwt>
<pdfrwt beam="1">  1        1 0.26001804E-01 0.92086395E+02</pdfrwt>
<pdfrwt beam="2">  1       -1 0.19297487E-02 0.92086395E+02</pdfrwt>
<totfact> 0.11162406E+05</totfact>
</mgrwt>
</event>
<event>
 5    1  0.2718303E+000  0.9119217E+02  0.7818608E-02  0.1299990E+00
          1   -1    0    0  501    0  0.00000000000E+00  0.00000000000E+00  0.29597553396E+02  0.29597553764E+02  0.46700000000E-02 0. -1.
         -1   -1    0    0    0  501 -0.00000000000E+00 -0.00000000000E+00 -0.70242391024E+02  0.70242391180E+02  0.46700000000E-02 0.  1.
         23    2    1    2    0    0  0.00000000000E+00  0.00000000000E+00 -0.40644837628E+02  0.99839944944E+02  0.91192169514E+02 0.  0.
        -11    1    3    3    0    0 -0.17778206038E+02 -0.29862343380E+01 -0.66175037848E+02  0.68586571863E+02  0.51100000000E-03 0.  1.
         11    1    3    3    0    0  0.17778206038E+02  0.29862343380E+01  0.25530200220E+02  0.31253373081E+02  0.51100000000E-03 0. -1.
<mgrwt>
<rscale>  0 0.91192170E+02</rscale>
<asrwt>0</asrwt>
<pdfrwt beam="1">  1        1 0.45534698E-02 0.91192170E+02</pdfrwt>
<pdfrwt beam="2">  1       -1 0.10806522E-01 0.91192170E+02</pdfrwt>
<totfact> 0.86453783E+04</totfact>
</mgrwt>
</event>
<event>
 5    1  0.2718303E+000  0.9188177E+02  0.7818608E-02  0.1298358E+00
         -1   -1    0    0    0  501 -0.00000000000E+00  0.00000000000E+00  0.11883482833E+03  0.11883482842E+03  0.46700000000E-02 0.  1.
          1   -1    0    0  501    0  0.00000000000E+00 -0.00000000000E+00 -0.17760490805E+02  0.17760491419E+02  0.46700000000E-02 0. -1.
         23    2    1    2    0    0  0.00000000000E+00  0.00000000000E+00  0.10107433752E+03  0.13659531984E+03  0.91881770206E+02 0.  0.
        -11    1    3    3    0    0 -0.16263037496E+02 -0.40632825114E+02  0.71299768637E+02  0.83661041550E+02  0.51100000000E-03 0.  1.
         11    1    3    3    0    0  0.16263037496E+02  0.40632825114E+02  0.29774568888E+02  0.52934278290E+02  0.51100000000E-03 0. -1.
<mgrwt>
<rscale>  0 0.91881770E+02</rscale>
<asrwt>0</asrwt>
<pdfrwt beam="2">  1        1 0.27323834E-02 0.91881770E+02</pdfrwt>
<pdfrwt beam="1">  1       -1 0.18282280E-01 0.91881770E+02</pdfrwt>
<totfact> 0.77134483E+04</totfact>
</mgrwt>
</event>
<event>
 5    1  0.2718303E+000  0.8876862E+02  0.7818608E-02  0.1305861E+00
          1   -1    0    0  501    0  0.00000000000E+00  0.00000000000E+00  0.25389788520E+02  0.25389788949E+02  0.46700000000E-02 0. -1.
         -1   -1    0    0    0  501 -0.00000000000E+00 -0.00000000000E+00 -0.77588954059E+02  0.77588954199E+02  0.46700000000E-02 0.  1.
         23    2    1    2    0    0  0.00000000000E+00  0.00000000000E+00 -0.52199165539E+02  0.10297874315E+03  0.88768624285E+02 0.  0.
        -11    1    3    3    0    0  0.22936587284E+02 -0.37684991138E+02 -0.20449434830E+02  0.48625353247E+02  0.51100000000E-03 0.  1.
         11    1    3    3    0    0 -0.22936587284E+02  0.37684991138E+02 -0.31749730710E+02  0.54353389901E+02  0.51100000000E-03 0. -1.
<mgrwt>
<rscale>  0 0.88768624E+02</rscale>
<asrwt>0</asrwt>
<pdfrwt beam="1">  1        1 0.39061214E-02 0.88768624E+02</pdfrwt>
<pdfrwt beam="2">  1       -1 0.11936762E-01 0.88768624E+02</pdfrwt>
<totfact> 0.91108861E+04</totfact>
</mgrwt>
</event>
<event>
 5    1  0.2718303E+000  0.9027976E+02  0.7818608E-02  0.1302176E+00
          1   -1    0    0  501    0  0.00000000000E+00  0.00000000000E+00  0.24433138763E+03  0.24433138768E+03  0.46700000000E-02 0. -1.
         -1   -1    0    0    0  501 -0.00000000000E+00 -0.00000000000E+00 -0.83395285590E+01  0.83395298666E+01  0.46700000000E-02 0.  1.
         23    2    1    2    0    0  0.00000000000E+00  0.00000000000E+00  0.23599185907E+03  0.25267091754E+03  0.90279759766E+02 0.  0.
        -11    1    3    3    0    0  0.36189074601E+02  0.41092164186E+01  0.19262744403E+03  0.19604047279E+03  0.51100000000E-03 0. -1.
         11    1    3    3    0    0 -0.36189074601E+02 -0.41092164186E+01  0.43364415045E+02  0.56630444749E+02  0.51100000000E-03 0.  1.
<mgrwt>
<rscale>  0 0.90279760E+02</rscale>
<asrwt>0</asrwt>
<pdfrwt beam="1">  1        1 0.37589452E-01 0.90279760E+02</pdfrwt>
<pdfrwt beam="2">  1       -1 0.12830043E-02 0.90279760E+02</pdfrwt>
<totfact> 0.12641183E+05</totfact>
</mgrwt>
</event>
<event>
 5    1  0.2718303E+000  0.8843932E+02  0.7818608E-02  0.1306676E+00
          1   -1    0    0  501    0  0.00000000000E+00  0.00000000000E+00  0.43818855092E+02  0.43818855341E+02  0.46700000000E-02 0. -1.
         -1   -1    0    0    0  501 -0.00000000000E+00 -0.00000000000E+00 -0.44624129938E+02  0.44624130183E+02  0.46700000000E-02 0.  1.
         23    2    1    2    0    0  0.00000000000E+00  0.00000000000E+00 -0.80527484620E+00  0.88442985524E+02  0.88439319427E+02 0.  0.
        -11    1    3    3    0    0 -0.30235997731E+02  0.12867712728E+02 -0.29994144793E+02  0.44490923926E+02  0.51100000000E-03 0.  1.
         11    1    3    3    0    0  0.30235997731E+02 -0.12867712728E+02  0.29188869947E+02  0.43952061598E+02  0.51100000000E-03 0. -1.
<mgrwt>
<rscale>  0 0.88439319E+02</rscale>
<asrwt>0</asrwt>
<pdfrwt beam="1">  1        1 0.67413623E-02 0.88439319E+02</pdfrwt>
<pdfrwt beam="2">  1       -1 0.68652508E-02 0.88439319E+02</pdfrwt>
<totfact> 0.10012179E+05</totfact>
</mgrwt>
</event>
<event>
 5    1  0.2718303E+000  0.8930221E+02  0.7818608E-02  0.1304550E+00
         -1   -1    0    0    0  501 -0.00000000000E+00  0.00000000000E+00  0.11649203327E+02  0.11649204263E+02  0.46700000000E-02 0.  1.
          1   -1    0    0  501    0  0.00000000000E+00 -0.00000000000E+00 -0.17114657798E+03  0.17114657804E+03  0.46700000000E-02 0. -1.
         23    2    1    2    0    0  0.00000000000E+00  0.00000000000E+00 -0.15949737465E+03  0.18279578231E+03  0.89302214463E+02 0.  0.
        -11    1    3    3    0    0  0.43303997851E+02  0.10681433724E+02 -0.75458847612E+02  0.87654816978E+02  0.51100000000E-03 0. -1.
         11    1    3    3    0    0 -0.43303997851E+02 -0.10681433724E+02 -0.84038527040E+02  0.95140965328E+02  0.51100000000E-03 0.  1.
<mgrwt>
<rscale>  0 0.89302214E+02</rscale>
<asrwt>0</asrwt>
<pdfrwt beam="2">  1        1 0.26330241E-01 0.89302214E+02</pdfrwt>
<pdfrwt beam="1">  1       -1 0.17921853E-02 0.89302214E+02</pdfrwt>
<totfact> 0.12151300E+05</totfact>
</mgrwt>
</event>
<event>
 5    1  0.2718303E+000  0.9168892E+02  0.7818608E-02  0.1298813E+00
          1   -1    0    0  501    0  0.00000000000E+00  0.00000000000E+00  0.41112843322E+02  0.41112843587E+02  0.46700000000E-02 0. -1.
         -1   -1    0    0    0  501 -0.00000000000E+00 -0.00000000000E+00 -0.51120631647E+02  0.51120631860E+02  0.46700000000E-02 0.  1.
         23    2    1    2    0    0  0.00000000000E+00  0.00000000000E+00 -0.10007788325E+02  0.92233475447E+02  0.91688920628E+02 0.  0.
        -11    1    3    3    0    0 -0.18101935962E+02  0.20342431735E+02  0.32096308313E+02  0.42091182236E+02  0.51100000000E-03 0. -1.
         11    1    3    3    0    0  0.18101935962E+02 -0.20342431735E+02 -0.42104096639E+02  0.50142293211E+02  0.51100000000E-03 0.  1.
<mgrwt>
<rscale>  0 0.91688921E+02</rscale>
<asrwt>0</asrwt>
<pdfrwt beam="1">  1        1 0.63250529E-02 0.91688921E+02</pdfrwt>
<pdfrwt beam="2">  1       -1 0.78647126E-02 0.91688921E+02</pdfrwt>
<totfact> 0.89612859E+04</totfact>
</mgrwt>
</event>
<event>
 5    1  0.2718303E+000  0.9286497E+02  0.7818608E-02  0.1296058E+00
          1   -1    0    0  501    0  0.00000000000E+00  0.00000000000E+00  0.39413931673E+02  0.39413931949E+02  0.46700000000E-02 0. -1.
         -1   -1    0    0    0  501 -0.00000000000E+00 -0.00000000000E+00 -0.54700848261E+02  0.54700848460E+02  0.46700000000E-02 0.  1.
         23    2    1    2    0    0  0.00000000000E+00  0.00000000000E+00 -0.15286916589E+02  0.94114780410E+02  0.92864966875E+02 0.  0.
        -11    1    3    3    0    0 -0.31829129026E+02  0.30569114797E+02  0.69872900263E+01  0.44680940637E+02  0.51100000000E-03 0.  1.
         11    1    3    3    0    0  0.31829129026E+02 -0.30569114797E+02 -0.22274206615E+02  0.49433839772E+02  0.51100000000E-03 0. -1.
<mgrwt>
<rscale>  0 0.92864967E+02</rscale>
<asrwt>0</asrwt>
<pdfrwt beam="1">  1        1 0.60636818E-02 0.92864967E+02</pdfrwt>
<pdfrwt beam="2">  1       -1 0.84155151E-02 0.92864967E+02</pdfrwt>
<totfact> 0.85877252E+04</totfact>
</mgrwt>
</event>
<event>
 5    1  0.2718303E+000  0.9384864E+02  0.7818608E-02  0.1293790E+00
          1   -1    0    0  501    0  0.00000000000E+00  0.00000000000E+00  0.36197389562E+02  0.36197389863E+02  0.46700000000E-02 0.  1.
         -1   -1    0    0    0  501 -0.00000000000E+00 -0.00000000000E+00 -0.60830129369E+02  0.60830129548E+02  0.46700000000E-02 0. -1.
         23    2    1    2    0    0  0.00000000000E+00  0.00000000000E+00 -0.24632739807E+02  0.97027519411E+02  0.93848642253E+02 0.  0.
        -11    1    3    3    0    0 -0.43191215269E+02 -0.84604748621E+01 -0.29141231877E+02  0.52785150439E+02  0.51100000000E-03 0. -1.
         11    1    3    3    0    0  0.43191215269E+02  0.84604748621E+01  0.45084920704E+01  0.44242368972E+02  0.51100000000E-03 0.  1.
<mgrwt>
<rscale>  0 0.93848642E+02</rscale>
<asrwt>0</asrwt>
<pdfrwt beam="1">  1        1 0.55688292E-02 0.93848642E+02</pdfrwt>
<pdfrwt beam="2">  1       -1 0.93584814E-02 0.93848642E+02</pdfrwt>
<totfact> 0.82232870E+04</totfact>
</mgrwt>
</event>
<event>
 5    1  0.2718303E+000  0.8893501E+02  0.7818608E-02  0.1305451E+00
          1   -1    0    0  501    0  0.00000000000E+00  0.00000000000E+00  0.30692852614E+02  0.30692852969E+02  0.46700000000E-02 0. -1.
         -1   -1    0    0    0  501 -0.00000000000E+00 -0.00000000000E+00 -0.64424090006E+02  0.64424090175E+02  0.46700000000E-02 0.  1.
         23    2    1    2    0    0  0.00000000000E+00  0.00000000000E+00 -0.33731237393E+02  0.95116943144E+02  0.88935012774E+02 0.  0.
        -11    1    3    3    0    0 -0.18362845763E+02  0.30956145679E+02  0.11062375551E+02  0.37654391682E+02  0.51100000000E-03 0.  1.
         11    1    3    3    0    0  0.18362845763E+02 -0.30956145679E+02 -0.44793612943E+02  0.57462551463E+02  0.51100000000E-03 0. -1.
<mgrwt>
<rscale>  0 0.88935013E+02</rscale>
<asrwt>0</asrwt>
<pdfrwt beam="1">  1        1 0.47219774E-02 0.88935013E+02</pdfrwt>
<pdfrwt beam="2">  1       -1 0.99113985E-02 0.88935013E+02</pdfrwt>
<totfact> 0.93418770E+04</totfact>
</mgrwt>
</event>
<event>
 5    1  0.2718303E+000  0.9361487E+02  0.7818608E-02  0.1294327E+00
         -1   -1    0    0    0  501 -0.00000000000E+00  0.00000000000E+00  0.27338234630E+02  0.27338235029E+02  0.46700000000E-02 0.  1.
          1   -1    0    0  501    0  0.00000000000E+00 -0.00000000000E+00 -0.80141815138E+02  0.80141815274E+02  0.46700000000E-02 0. -1.
         23    2    1    2    0    0  0.00000000000E+00  0.00000000000E+00 -0.52803580507E+02  0.10748005030E+03  0.93614865799E+02 0.  0.
        -11    1    3    3    0    0 -0.16430578640E+01 -0.15442084227E+02  0.24294437335E+02  0.28833613893E+02  0.51100000000E-03 0.  1.
         11    1    3    3    0    0  0.16430578640E+01  0.15442084227E+02 -0.77098017843E+02  0.78646436410E+02  0.51100000000E-03 0. -1.
<mgrwt>
<rscale>  0 0.93614866E+02</rscale>
<asrwt>0</asrwt>
<pdfrwt beam="2">  1        1 0.12329510E-01 0.93614866E+02</pdfrwt>
<pdfrwt beam="1">  1       -1 0.42058823E-02 0.93614866E+02</pdfrwt>
<totfact> 0.93713320E+04</totfact>
</mgrwt>
</event>
<event>
 5    1  0.2718303E+000  0.9155709E+02  0.7818608E-02  0.1299124E+00
          1   -1    0    0  501    0  0.00000000000E+00  0.00000000000E+00  0.95848809610E+01  0.95848820987E+01  0.46700000000E-02 0. -1.
         -1   -1    0    0    0  501 -0.00000000000E+00 -0.00000000000E+00 -0.21864384258E+03  0.21864384263E+03  0.46700000000E-02 0.  1.
         23    2    1    2    0    0  0.00000000000E+00  0.00000000000E+00 -0.20905896162E+03  0.22822872473E+03  0.91557093433E+02 0.  0.
        -11    1    3    3    0    0 -0.41940816797E+02 -0.13694175266E+02 -0.74090104214E+02  0.86231700044E+02  0.51100000000E-03 0. -1.
         11    1    3    3    0    0  0.41940816797E+02  0.13694175266E+02 -0.13496885740E+03  0.14199702468E+03  0.51100000000E-03 0.  1.
<mgrwt>
<rscale>  0 0.91557093E+02</rscale>
<asrwt>0</asrwt>
<pdfrwt beam="1">  1        1 0.14745973E-02 0.91557093E+02</pdfrwt>
<pdfrwt beam="2">  1       -1 0.33637511E-01 0.91557093E+02</pdfrwt>
<totfact> 0.66888464E+04</totfact>
</mgrwt>
</event>
<event>
 5    1  0.2718303E+000  0.9443784E+02  0.7818608E-02  0.1292447E+00
         -1   -1    0    0    0  501 -0.00000000000E+00  0.00000000000E+00  0.98778028841E+02  0.98778028951E+02  0.46700000000E-02 0.  1.
          1   -1    0    0  501    0  0.00000000000E+00 -0.00000000000E+00 -0.22572088405E+02  0.22572088889E+02  0.46700000000E-02 0. -1.
         23    2    1    2    0    0  0.00000000000E+00  0.00000000000E+00  0.76205940435E+02  0.12135011784E+03  0.94437840626E+02 0.  0.
        -11    1    3    3    0    0 -0.36896323611E+02 -0.25540270281E+02  0.19218566841E+02  0.48815954499E+02  0.51100000000E-03 0. -1.
         11    1    3    3    0    0  0.36896323611E+02  0.25540270281E+02  0.56987373594E+02  0.72534163340E+02  0.51100000000E-03 0.  1.
<mgrwt>
<rscale>  0 0.94437841E+02</rscale>
<asrwt>0</asrwt>
<pdfrwt beam="2">  1        1 0.34726291E-02 0.94437841E+02</pdfrwt>
<pdfrwt beam="1">  1       -1 0.15196620E-01 0.94437841E+02</pdfrwt>
<totfact> 0.74492312E+04</totfact>
</mgrwt>
</event>
<event>
 5    1  0.2718303E+000  0.8534506E+02  0.7818608E-02  0.1314533E+00
          1   -1    0    0  501    0  0.00000000000E+00  0.00000000000E+00  0.35498707333E+02  0.35498707640E+02  0.46700000000E-02 0. -1.
         -1   -1    0    0    0  501 -0.00000000000E+00 -0.00000000000E+00 -0.51296084296E+02  0.51296084508E+02  0.46700000000E-02 0.  1.
         23    2    1    2    0    0  0.00000000000E+00  0.00000000000E+00 -0.15797376963E+02  0.86794792148E+02  0.85345057415E+02 0.  0.
        -11    1    3    3    0    0  0.10278503514E+02 -0.14446386497E+02 -0.47372960394E+02  0.50582043198E+02  0.51100000000E-03 0.  1.
         11    1    3    3    0    0 -0.10278503514E+02  0.14446386497E+02  0.31575583431E+02  0.36212748951E+02  0.51100000000E-03 0. -1.
<mgrwt>
<rscale>  0 0.85345057E+02</rscale>
<asrwt>0</asrwt>
<pdfrwt beam="1">  1        1 0.54613396E-02 0.85345057E+02</pdfrwt>
<pdfrwt beam="2">  1       -1 0.78917054E-02 0.85345057E+02</pdfrwt>
<totfact> 0.10728586E+05</totfact>
</mgrwt>
</event>
<event>
 5    1  0.2718303E+000  0.8980216E+02  0.7818608E-02  0.1303331E+00
          1   -1    0    0  501    0  0.00000000000E+00  0.00000000000E+00  0.51648015263E+02  0.51648015474E+02  0.46700000000E-02 0. -1.
         -1   -1    0    0    0  501 -0.00000000000E+00 -0.00000000000E+00 -0.39035518719E+02  0.39035518998E+02  0.46700000000E-02 0.  1.
         23    2    1    2    0    0  0.00000000000E+00  0.00000000000E+00  0.12612496544E+02  0.90683534472E+02  0.89802162308E+02 0.  0.
        -11    1    3    3    0    0 -0.38868595091E+02 -0.17301170609E+02  0.20800127433E+02  0.47357612802E+02  0.51100000000E-03 0. -1.
         11    1    3    3    0    0  0.38868595091E+02  0.17301170609E+02 -0.81876308892E+01  0.43325921671E+02  0.51100000000E-03 0.  1.
<mgrwt>
<rscale>  0 0.89802162E+02</rscale>
<asrwt>0</asrwt>
<pdfrwt beam="1">  1        1 0.79458485E-02 0.89802162E+02</pdfrwt>
<pdfrwt beam="2">  1       -1 0.60054645E-02 0.89802162E+02</pdfrwt>
<totfact> 0.98294102E+04</totfact>
</mgrwt>
</event>
<event>
 5    1  0.2718303E+000  0.9125995E+02  0.7818608E-02  0.1299829E+00
         -1   -1    0    0    0  501 -0.00000000000E+00  0.00000000000E+00  0.42739915886E+02  0.42739916141E+02  0.46700000000E-02 0.  1.
          1   -1    0    0  501    0  0.00000000000E+00 -0.00000000000E+00 -0.48715456002E+02  0.48715456226E+02  0.46700000000E-02 0. -1.
         23    2    1    2    0    0  0.00000000000E+00  0.00000000000E+00 -0.59755401167E+01  0.91455372367E+02  0.91259947705E+02 0.  0.
        -11    1    3    3    0    0  0.12372823427E+02  0.29594344357E+01  0.40926719322E+02  0.42858387353E+02  0.51100000000E-03 0.  1.
         11    1    3    3    0    0 -0.12372823427E+02 -0.29594344357E+01 -0.46902259439E+02  0.48596985014E+02  0.51100000000E-03 0. -1.
<mgrwt>
<rscale>  0 0.91259948E+02</rscale>
<asrwt>0</asrwt>
<pdfrwt beam="2">  1        1 0.74946856E-02 0.91259948E+02</pdfrwt>
<pdfrwt beam="1">  1       -1 0.65753717E-02 0.91259948E+02</pdfrwt>
<totfact> 0.93160257E+04</totfact>
</mgrwt>
</event>
<event>
 5    1  0.2718303E+000  0.9328835E+02  0.7818608E-02  0.1295078E+00
          1   -1    0    0  501    0  0.00000000000E+00  0.00000000000E+00  0.15899718736E+03  0.15899718743E+03  0.46700000000E-02 0. -1.
         -1   -1    0    0    0  501 -0.00000000000E+00 -0.00000000000E+00 -0.13683757922E+02  0.13683758719E+02  0.46700000000E-02 0.  1.
         23    2    1    2    0    0  0.00000000000E+00  0.00000000000E+00  0.14531342944E+03  0.17268094615E+03  0.93288350761E+02 0.  0.
        -11    1    3    3    0    0 -0.28965871529E+02 -0.14305770993E+02  0.10377854072E+02  0.33931941479E+02  0.51100000000E-03 0.  1.
         11    1    3    3    0    0  0.28965871529E+02  0.14305770993E+02  0.13493557537E+03  0.13874900467E+03  0.51100000000E-03 0. -1.
<mgrwt>
<rscale>  0 0.93288351E+02</rscale>
<asrwt>0</asrwt>
<pdfrwt beam="1">  1        1 0.24461107E-01 0.93288351E+02</pdfrwt>
<pdfrwt beam="2">  1       -1 0.21051935E-02 0.93288351E+02</pdfrwt>
<totfact> 0.10655285E+05</totfact>
</mgrwt>
</event>
<event>
 5    1  0.2718303E+000  0.9141002E+02  0.7818608E-02  0.1299473E+00
         -1   -1    0    0    0  501 -0.00000000000E+00  0.00000000000E+00  0.65022752603E+01  0.65022769373E+01  0.46700000000E-02 0.  1.
          1   -1    0    0  501    0  0.00000000000E+00 -0.00000000000E+00 -0.32126414186E+03  0.32126414189E+03  0.46700000000E-02 0. -1.
         23    2    1    2    0    0  0.00000000000E+00  0.00000000000E+00 -0.31476186660E+03  0.32776641883E+03  0.91410024877E+02 0.  0.
        -11    1    3    3    0    0 -0.36813029036E+02  0.20120189666E+02 -0.92349937248E+02  0.10143240138E+03  0.51100000000E-03 0.  1.
         11    1    3    3    0    0  0.36813029036E+02 -0.20120189666E+02 -0.22241192935E+03  0.22633401745E+03  0.51100000000E-03 0. -1.
<mgrwt>
<rscale>  0 0.91410025E+02</rscale>
<asrwt>0</asrwt>
<pdfrwt beam="2">  1        1 0.49425240E-01 0.91410025E+02</pdfrwt>
<pdfrwt beam="1">  1       -1 0.10003504E-02 0.91410025E+02</pdfrwt>
<totfact> 0.12890650E+05</totfact>
</mgrwt>
</event>
<event>
 5    1  0.2718303E+000  0.9071685E+02  0.7818608E-02  0.1301125E+00
          1   -1    0    0  501    0  0.00000000000E+00  0.00000000000E+00  0.15094343323E+03  0.15094343330E+03  0.46700000000E-02 0. -1.
         -1   -1    0    0    0  501 -0.00000000000E+00 -0.00000000000E+00 -0.13630184295E+02  0.13630185095E+02  0.46700000000E-02 0.  1.
         23    2    1    2    0    0  0.00000000000E+00  0.00000000000E+00  0.13731324894E+03  0.16457361840E+03  0.90716853667E+02 0.  0.
        -11    1    3    3    0    0  0.17920956729E+02 -0.26097363553E+02  0.97274815806E+01  0.33118831089E+02  0.51100000000E-03 0.  1.
         11    1    3    3    0    0 -0.17920956729E+02  0.26097363553E+02  0.12758576736E+03  0.13145478731E+03  0.51100000000E-03 0. -1.
<mgrwt>
<rscale>  0 0.90716854E+02</rscale>
<asrwt>0</asrwt>
<pdfrwt beam="1">  1        1 0.23222065E-01 0.90716854E+02</pdfrwt>
<pdfrwt beam="2">  1       -1 0.20969516E-02 0.90716854E+02</pdfrwt>
<totfact> 0.11380322E+05</totfact>
</mgrwt>
</event>
<event>
 5    1  0.2718303E+000  0.8825192E+02  0.7818608E-02  0.1307141E+00
          1   -1    0    0  501    0  0.00000000000E+00  0.00000000000E+00  0.30420564353E+02  0.30420564712E+02  0.46700000000E-02 0. -1.
         -1   -1    0    0    0  501 -0.00000000000E+00 -0.00000000000E+00 -0.64006059908E+02  0.64006060078E+02  0.46700000000E-02 0.  1.
         23    2    1    2    0    0  0.00000000000E+00  0.00000000000E+00 -0.33585495555E+02  0.94426624790E+02  0.88251923251E+02 0.  0.
        -11    1    3    3    0    0 -0.12915851634E+02 -0.37225601923E+02  0.44599228335E+01  0.39654199953E+02  0.51100000000E-03 0. -1.
         11    1    3    3    0    0  0.12915851634E+02  0.37225601923E+02 -0.38045418388E+02  0.54772424837E+02  0.51100000000E-03 0.  1.
<mgrwt>
<rscale>  0 0.88251923E+02</rscale>
<asrwt>0</asrwt>
<pdfrwt beam="1">  1        1 0.46800869E-02 0.88251923E+02</pdfrwt>
<pdfrwt beam="2">  1       -1 0.98470862E-02 0.88251923E+02</pdfrwt>
<totfact> 0.95361835E+04</totfact>
</mgrwt>
</event>
<event>
 5    1  0.2718303E+000  0.9203852E+02  0.7818608E-02  0.1297989E+00
          1   -1    0    0  501    0  0.00000000000E+00  0.00000000000E+00  0.13894441503E+03  0.13894441511E+03  0.46700000000E-02 0. -1.
         -1   -1    0    0    0  501 -0.00000000000E+00 -0.00000000000E+00 -0.15241866720E+02  0.15241867435E+02  0.46700000000E-02 0.  1.
         23    2    1    2    0    0  0.00000000000E+00  0.00000000000E+00  0.12370254831E+03  0.15418628254E+03  0.92038520556E+02 0.  0.
        -11    1    3    3    0    0 -0.25875979048E+02  0.37693844033E+02  0.53085424999E+02  0.70060363383E+02  0.51100000000E-03 0.  1.
         11    1    3    3    0    0  0.25875979048E+02 -0.37693844033E+02  0.70617123311E+02  0.84125919161E+02  0.51100000000E-03 0. -1.
<mgrwt>
<rscale>  0 0.92038521E+02</rscale>
<asrwt>0</asrwt>
<pdfrwt beam="1">  1        1 0.21376063E-01 0.92038521E+02</pdfrwt>
<pdfrwt beam="2">  1       -1 0.23449027E-02 0.92038521E+02</pdfrwt>
<totfact> 0.10779911E+05</totfact>
</mgrwt>
</event>
<event>
 5    1  0.2718303E+000  0.9318551E+02  0.7818608E-02  0.1295316E+00
         -1   -1    0    0    0  501 -0.00000000000E+00  0.00000000000E+00  0.10784458875E+03  0.10784458885E+03  0.46700000000E-02 0.  1.
          1   -1    0    0  501    0  0.00000000000E+00 -0.00000000000E+00 -0.20129751759E+02  0.20129752301E+02  0.46700000000E-02 0. -1.
         23    2    1    2    0    0  0.00000000000E+00  0.00000000000E+00  0.87714836990E+02  0.12797434115E+03  0.93185510489E+02 0.  0.
        -11    1    3    3    0    0 -0.67117535342E+01  0.37953642603E+02  0.79045682160E+01  0.39344743249E+02  0.51100000000E-03 0. -1.
         11    1    3    3    0    0  0.67117535342E+01 -0.37953642603E+02  0.79810268774E+02  0.88629597903E+02  0.51100000000E-03 0.  1.
<mgrwt>
<rscale>  0 0.93185510E+02</rscale>
<asrwt>0</asrwt>
<pdfrwt beam="2">  1        1 0.30968850E-02 0.93185510E+02</pdfrwt>
<pdfrwt beam="1">  1       -1 0.16591475E-01 0.93185510E+02</pdfrwt>
<totfact> 0.75824284E+04</totfact>
</mgrwt>
</event>
<event>
 5    1  0.2718303E+000  0.9025125E+02  0.7818608E-02  0.1302244E+00
          1   -1    0    0  501    0  0.00000000000E+00  0.00000000000E+00  0.84280393383E+02  0.84280393512E+02  0.46700000000E-02 0. -1.
         -1   -1    0    0    0  501 -0.00000000000E+00 -0.00000000000E+00 -0.24161277151E+02  0.24161277603E+02  0.46700000000E-02 0.  1.
         23    2    1    2    0    0  0.00000000000E+00  0.00000000000E+00  0.60119116232E+02  0.10844167112E+03  0.90251248732E+02 0.  0.
        -11    1    3    3    0    0  0.24455569347E+01 -0.16587590689E+02  0.80398656019E+02  0.82128392189E+02  0.51100000000E-03 0. -1.
         11    1    3    3    0    0 -0.24455569347E+01  0.16587590689E+02 -0.20279539788E+02  0.26313278926E+02  0.51100000000E-03 0.  1.
<mgrwt>
<rscale>  0 0.90251249E+02</rscale>
<asrwt>0</asrwt>
<pdfrwt beam="1">  1        1 0.12966215E-01 0.90251249E+02</pdfrwt>
<pdfrwt beam="2">  1       -1 0.37171196E-02 0.90251249E+02</pdfrwt>
<totfact> 0.10445722E+05</totfact>
</mgrwt>
</event>
<event>
 5    1  0.2718303E+000  0.9107257E+02  0.7818608E-02  0.1300275E+00
          1   -1    0    0  501    0  0.00000000000E+00  0.00000000000E+00  0.40797347475E+02  0.40797347742E+02  0.46700000000E-02 0. -1.
         -1   -1    0    0    0  501 -0.00000000000E+00 -0.00000000000E+00 -0.50825686762E+02  0.50825686976E+02  0.46700000000E-02 0.  1.
         23    2    1    2    0    0  0.00000000000E+00  0.00000000000E+00 -0.10028339287E+02  0.91623034719E+02  0.91072569428E+02 0.  0.
        -11    1    3    3    0    0  0.20793954362E+02 -0.38571010090E+02  0.74478669201E+01  0.44447520508E+02  0.51100000000E-03 0. -1.
         11    1    3    3    0    0 -0.20793954362E+02  0.38571010090E+02 -0.17476206207E+02  0.47175514211E+02  0.51100000000E-03 0.  1.
<mgrwt>
<rscale>  0 0.91072569E+02</rscale>
<asrwt>0</asrwt>
<pdfrwt beam="1">  1        1 0.62765150E-02 0.91072569E+02</pdfrwt>
<pdfrwt beam="2">  1       -1 0.78193365E-02 0.91072569E+02</pdfrwt>
<totfact> 0.91230145E+04</totfact>
</mgrwt>
</event>
<event>
 5    1  0.2718303E+000  0.8904200E+02  0.7818608E-02  0.1305188E+00
          1   -1    0    0  501    0  0.00000000000E+00  0.00000000000E+00  0.42037798861E+03  0.42037798864E+03  0.46700000000E-02 0. -1.
         -1   -1    0    0    0  501 -0.00000000000E+00 -0.00000000000E+00 -0.47150869675E+01  0.47150892802E+01  0.46700000000E-02 0.  1.
         23    2    1    2    0    0  0.00000000000E+00  0.00000000000E+00  0.41566290165E+03  0.42509307792E+03  0.89041996218E+02 0.  0.
        -11    1    3    3    0    0  0.44063428963E+02 -0.26210708258E+01  0.23553074498E+03  0.23963135775E+03  0.51100000000E-03 0. -1.
         11    1    3    3    0    0 -0.44063428963E+02  0.26210708258E+01  0.18013215666E+03  0.18546172017E+03  0.51100000000E-03 0.  1.
<mgrwt>
<rscale>  0 0.89041996E+02</rscale>
<asrwt>0</asrwt>
<pdfrwt beam="1">  1        1 0.64673520E-01 0.89041996E+02</pdfrwt>
<pdfrwt beam="2">  1       -1 0.72539837E-03 0.89041996E+02</pdfrwt>
<totfact> 0.14477694E+05</totfact>
</mgrwt>
</event>
<event>
 5    1  0.2718303E+000  0.9085122E+02  0.7818608E-02  0.1300803E+00
         -1   -1    0    0    0  501 -0.00000000000E+00  0.00000000000E+00  0.23783518881E+02  0.23783519340E+02  0.46700000000E-02 0.  1.
          1   -1    0    0  501    0  0.00000000000E+00 -0.00000000000E+00 -0.86761165668E+02  0.86761165794E+02  0.46700000000E-02 0. -1.
         23    2    1    2    0    0  0.00000000000E+00  0.00000000000E+00 -0.62977646787E+02  0.11054468513E+03  0.90851215823E+02 0.  0.
        -11    1    3    3    0    0 -0.23955561983E+02  0.15919857499E+02 -0.74269446785E+02  0.79644595163E+02  0.51100000000E-03 0. -1.
         11    1    3    3    0    0  0.23955561983E+02 -0.15919857499E+02  0.11291799998E+02  0.30900089970E+02  0.51100000000E-03 0.  1.
<mgrwt>
<rscale>  0 0.90851216E+02</rscale>
<asrwt>0</asrwt>
<pdfrwt beam="2">  1        1 0.13347872E-01 0.90851216E+02</pdfrwt>
<pdfrwt beam="1">  1       -1 0.36590030E-02 0.90851216E+02</pdfrwt>
<totfact> 0.10305869E+05</totfact>
</mgrwt>
</event>
<event>
 5    1  0.2718303E+000  0.9178448E+02  0.7818608E-02  0.1298587E+00
          1   -1    0    0  501    0  0.00000000000E+00  0.00000000000E+00  0.20618891701E+02  0.20618892230E+02  0.46700000000E-02 0. -1.
         -1   -1    0    0    0  501 -0.00000000000E+00 -0.00000000000E+00 -0.10214406675E+03  0.10214406686E+03  0.46700000000E-02 0.  1.
         23    2    1    2    0    0  0.00000000000E+00  0.00000000000E+00 -0.81525175051E+02  0.12276295909E+03  0.91784475577E+02 0.  0.
        -11    1    3    3    0    0  0.20726779962E+02 -0.28917218585E+02 -0.79534156323E+02  0.87129139560E+02  0.51100000000E-03 0.  1.
         11    1    3    3    0    0 -0.20726779962E+02  0.28917218585E+02 -0.19910187285E+01  0.35633819528E+02  0.51100000000E-03 0. -1.
<mgrwt>
<rscale>  0 0.91784476E+02</rscale>
<asrwt>0</asrwt>
<pdfrwt beam="1">  1        1 0.31721373E-02 0.91784476E+02</pdfrwt>
<pdfrwt beam="2">  1       -1 0.15714472E-01 0.91784476E+02</pdfrwt>
<totfact> 0.79671794E+04</totfact>
</mgrwt>
</event>
<event>
 5    1  0.2718303E+000  0.8983614E+02  0.7818608E-02  0.1303249E+00
         -1   -1    0    0    0  501 -0.00000000000E+00  0.00000000000E+00  0.53966401372E+02  0.53966401574E+02  0.46700000000E-02 0.  1.
          1   -1    0    0  501    0  0.00000000000E+00 -0.00000000000E+00 -0.37386832737E+02  0.37386833028E+02  0.46700000000E-02 0. -1.
         23    2    1    2    0    0  0.00000000000E+00  0.00000000000E+00  0.16579568636E+02  0.91353234603E+02  0.89836136250E+02 0.  0.
        -11    1    3    3    0    0  0.71545079342E+01 -0.16695559339E+02  0.50065223509E+02  0.53258382352E+02  0.51100000000E-03 0.  1.
         11    1    3    3    0    0 -0.71545079342E+01  0.16695559339E+02 -0.33485654874E+02  0.38094852251E+02  0.51100000000E-03 0. -1.
<mgrwt>
<rscale>  0 0.89836136E+02</rscale>
<asrwt>0</asrwt>
<pdfrwt beam="2">  1        1 0.57518205E-02 0.89836136E+02</pdfrwt>
<pdfrwt beam="1">  1       -1 0.83025233E-02 0.89836136E+02</pdfrwt>
<totfact> 0.93573297E+04</totfact>
</mgrwt>
</event>
<event>
 5    1  0.2718303E+000  0.9153044E+02  0.7818608E-02  0.1299187E+00
          1   -1    0    0  501    0  0.00000000000E+00  0.00000000000E+00  0.96645672249E+02  0.96645672362E+02  0.46700000000E-02 0. -1.
         -1   -1    0    0    0  501 -0.00000000000E+00 -0.00000000000E+00 -0.21671487153E+02  0.21671487656E+02  0.46700000000E-02 0.  1.
         23    2    1    2    0    0  0.00000000000E+00  0.00000000000E+00  0.74974185096E+02  0.11831716002E+03  0.91530442607E+02 0.  0.
        -11    1    3    3    0    0 -0.34731505282E+02 -0.17465634002E+02  0.62719921197E+01  0.39378467666E+02  0.51100000000E-03 0.  1.
         11    1    3    3    0    0  0.34731505282E+02  0.17465634002E+02  0.68702192976E+02  0.78938692352E+02  0.51100000000E-03 0. -1.
<mgrwt>
<rscale>  0 0.91530443E+02</rscale>
<asrwt>0</asrwt>
<pdfrwt beam="1">  1        1 0.14868565E-01 0.91530443E+02</pdfrwt>
<pdfrwt beam="2">  1       -1 0.33340750E-02 0.91530443E+02</pdfrwt>
<totfact> 0.10277074E+05</totfact>
</mgrwt>
</event>
<event>
 5    1  0.2718303E+000  0.9456168E+02  0.7818608E-02  0.1292166E+00
          1   -1    0    0  501    0  0.00000000000E+00  0.00000000000E+00  0.24571556623E+03  0.24571556627E+03  0.46700000000E-02 0. -1.
         -1   -1    0    0    0  501 -0.00000000000E+00 -0.00000000000E+00 -0.90978276185E+01  0.90978288171E+01  0.46700000000E-02 0.  1.
         23    2    1    2    0    0  0.00000000000E+00  0.00000000000E+00  0.23661773861E+03  0.25481339509E+03  0.94561684061E+02 0.  0.
        -11    1    3    3    0    0 -0.25523810645E+02 -0.23658163193E+02  0.32066320869E+02  0.47322537230E+02  0.51100000000E-03 0.  1.
         11    1    3    3    0    0  0.25523810645E+02  0.23658163193E+02  0.20455141774E+03  0.20749085786E+03  0.51100000000E-03 0. -1.
<mgrwt>
<rscale>  0 0.94561684E+02</rscale>
<asrwt>0</asrwt>
<pdfrwt beam="1">  1        1 0.37802390E-01 0.94561684E+02</pdfrwt>
<pdfrwt beam="2">  1       -1 0.13996661E-02 0.94561684E+02</pdfrwt>
<totfact> 0.11178641E+05</totfact>
</mgrwt>
</event>
<event>
 5    1  0.2718303E+000  0.9375576E+02  0.7818608E-02  0.1294003E+00
         -1   -1    0    0    0  501 -0.00000000000E+00  0.00000000000E+00  0.48369863822E+02  0.48369864048E+02  0.46700000000E-02 0.  1.
          1   -1    0    0  501    0  0.00000000000E+00 -0.00000000000E+00 -0.45431915128E+02  0.45431915368E+02  0.46700000000E-02 0. -1.
         23    2    1    2    0    0  0.00000000000E+00  0.00000000000E+00  0.29379486947E+01  0.93801779415E+02  0.93755758644E+02 0.  0.
        -11    1    3    3    0    0 -0.91141695561E+01 -0.39171121660E+02 -0.22627920368E+02  0.46146155194E+02  0.51100000000E-03 0.  1.
         11    1    3    3    0    0  0.91141695561E+01  0.39171121660E+02  0.25565869062E+02  0.47655624221E+02  0.51100000000E-03 0. -1.
<mgrwt>
<rscale>  0 0.93755759E+02</rscale>
<asrwt>0</asrwt>
<pdfrwt beam="2">  1        1 0.69895254E-02 0.93755759E+02</pdfrwt>
<pdfrwt beam="1">  1       -1 0.74415176E-02 0.93755759E+02</pdfrwt>
<totfact> 0.85441808E+04</totfact>
</mgrwt>
</event>
<event>
 5    1  0.2718303E+000  0.8751187E+02  0.7818608E-02  0.1308991E+00
         -1   -1    0    0    0  501 -0.00000000000E+00  0.00000000000E+00  0.32713679698E+02  0.32713680031E+02  0.46700000000E-02 0.  1.
          1   -1    0    0  501    0  0.00000000000E+00 -0.00000000000E+00 -0.58525418987E+02  0.58525419174E+02  0.46700000000E-02 0. -1.
         23    2    1    2    0    0  0.00000000000E+00  0.00000000000E+00 -0.25811739289E+02  0.91239099205E+02  0.87511869701E+02 0.  0.
        -11    1    3    3    0    0  0.12746325430E+02 -0.12469676665E+02  0.28753705261E+02  0.33833965399E+02  0.51100000000E-03 0.  1.
         11    1    3    3    0    0 -0.12746325430E+02  0.12469676665E+02 -0.54565444550E+02  0.57405133806E+02  0.51100000000E-03 0. -1.
<mgrwt>
<rscale>  0 0.87511870E+02</rscale>
<asrwt>0</asrwt>
<pdfrwt beam="2">  1        1 0.90039106E-02 0.87511870E+02</pdfrwt>
<pdfrwt beam="1">  1       -1 0.50328738E-02 0.87511870E+02</pdfrwt>
<totfact> 0.10754515E+05</totfact>
</mgrwt>
</event>
<event>
 5    1  0.2718303E+000  0.9436124E+02  0.7818608E-02  0.1292621E+00
         -1   -1    0    0    0  501 -0.00000000000E+00  0.00000000000E+00  0.14547976791E+02  0.14547977541E+02  0.46700000000E-02 0.  1.
          1   -1    0    0  501    0  0.00000000000E+00 -0.00000000000E+00 -0.15301171823E+03  0.15301171830E+03  0.46700000000E-02 0. -1.
         23    2    1    2    0    0  0.00000000000E+00  0.00000000000E+00 -0.13846374143E+03  0.16755969584E+03  0.94361241924E+02 0.  0.
        -11    1    3    3    0    0  0.23271020744E+02  0.18526829312E+02 -0.41998740007E+01  0.30040352074E+02  0.51100000000E-03 0.  1.
         11    1    3    3    0    0 -0.23271020744E+02 -0.18526829312E+02 -0.13426386743E+03  0.13751934376E+03  0.51100000000E-03 0. -1.
<mgrwt>
<rscale>  0 0.94361242E+02</rscale>
<asrwt>0</asrwt>
<pdfrwt beam="2">  1        1 0.23540263E-01 0.94361242E+02</pdfrwt>
<pdfrwt beam="1">  1       -1 0.22381504E-02 0.94361242E+02</pdfrwt>
<totfact> 0.10256681E+05</totfact>
</mgrwt>
</event>
<event>
 5    1  0.2718303E+000  0.9198021E+02  0.7818608E-02  0.1298126E+00
         -1   -1    0    0    0  501 -0.00000000000E+00  0.00000000000E+00  0.90278574218E+01  0.90278586297E+01  0.46700000000E-02 0.  1.
          1   -1    0    0  501    0  0.00000000000E+00 -0.00000000000E+00 -0.23428477264E+03  0.23428477269E+03  0.46700000000E-02 0. -1.
         23    2    1    2    0    0  0.00000000000E+00  0.00000000000E+00 -0.22525691522E+03  0.24331263132E+03  0.91980208222E+02 0.  0.
        -11    1    3    3    0    0 -0.32765209659E+02  0.25517294427E+01 -0.27525528169E+02  0.42868694736E+02  0.51100000000E-03 0.  1.
         11    1    3    3    0    0  0.32765209659E+02 -0.25517294427E+01 -0.19773138705E+03  0.20044393658E+03  0.51100000000E-03 0. -1.
<mgrwt>
<rscale>  0 0.91980208E+02</rscale>
<asrwt>0</asrwt>
<pdfrwt beam="2">  1        1 0.36043807E-01 0.91980208E+02</pdfrwt>
<pdfrwt beam="1">  1       -1 0.13889014E-02 0.91980208E+02</pdfrwt>
<totfact> 0.11927933E+05</totfact>
</mgrwt>
</event>
<event>
 5    1  0.2718303E+000  0.9577064E+02  0.7818608E-02  0.1289450E+00
          1   -1    0    0  501    0  0.00000000000E+00  0.00000000000E+00  0.10257743127E+03  0.10257743138E+03  0.46700000000E-02 0. -1.
         -1   -1    0    0    0  501 -0.00000000000E+00 -0.00000000000E+00 -0.22353882710E+02  0.22353883197E+02  0.46700000000E-02 0.  1.
         23    2    1    2    0    0  0.00000000000E+00  0.00000000000E+00  0.80223548561E+02  0.12493131457E+03  0.95770640687E+02 0.  0.
        -11    1    3    3    0    0 -0.16609924015E+02 -0.39721505866E+02  0.67453604092E+02  0.80022973634E+02  0.51100000000E-03 0. -1.
         11    1    3    3    0    0  0.16609924015E+02  0.39721505866E+02  0.12769944469E+02  0.44908340940E+02  0.51100000000E-03 0.  1.
<mgrwt>
<rscale>  0 0.95770641E+02</rscale>
<asrwt>0</asrwt>
<pdfrwt beam="1">  1        1 0.15781143E-01 0.95770641E+02</pdfrwt>
<pdfrwt beam="2">  1       -1 0.34390589E-02 0.95770641E+02</pdfrwt>
<totfact> 0.91700879E+04</totfact>
</mgrwt>
</event>
<event>
 5    1  0.2718303E+000  0.8764985E+02  0.7818608E-02  0.1308645E+00
          1   -1    0    0  501    0  0.00000000000E+00  0.00000000000E+00  0.55110940695E+02  0.55110940892E+02  0.46700000000E-02 0. -1.
         -1   -1    0    0    0  501 -0.00000000000E+00 -0.00000000000E+00 -0.34850136848E+02  0.34850137161E+02  0.46700000000E-02 0.  1.
         23    2    1    2    0    0  0.00000000000E+00  0.00000000000E+00  0.20260803847E+02  0.89961078053E+02  0.87649845362E+02 0.  0.
        -11    1    3    3    0    0 -0.11531845540E+02  0.40991869681E+02  0.20762464798E+02  0.47375065027E+02  0.51100000000E-03 0. -1.
         11    1    3    3    0    0  0.11531845540E+02 -0.40991869681E+02 -0.50166095098E+00  0.42586013026E+02  0.51100000000E-03 0.  1.
<mgrwt>
<rscale>  0 0.87649845E+02</rscale>
<asrwt>0</asrwt>
<pdfrwt beam="1">  1        1 0.84786062E-02 0.87649845E+02</pdfrwt>
<pdfrwt beam="2">  1       -1 0.53615596E-02 0.87649845E+02</pdfrwt>
<totfact> 0.10614121E+05</totfact>
</mgrwt>
</event>
<event>
 5    1  0.2718303E+000  0.9123911E+02  0.7818608E-02  0.1299878E+00
          1   -1    0    0  501    0  0.00000000000E+00  0.00000000000E+00  0.36551009360E+02  0.36551009659E+02  0.46700000000E-02 0. -1.
         -1   -1    0    0    0  501 -0.00000000000E+00 -0.00000000000E+00 -0.56938061998E+02  0.56938062190E+02  0.46700000000E-02 0.  1.
         23    2    1    2    0    0  0.00000000000E+00  0.00000000000E+00 -0.20387052638E+02  0.93489071848E+02  0.91239106965E+02 0.  0.
        -11    1    3    3    0    0 -0.16379726147E+02 -0.13647816121E+02  0.31131986359E+02  0.37732729671E+02  0.51100000000E-03 0. -1.
         11    1    3    3    0    0  0.16379726147E+02  0.13647816121E+02 -0.51519038997E+02  0.55756342177E+02  0.51100000000E-03 0.  1.
<mgrwt>
<rscale>  0 0.91239107E+02</rscale>
<asrwt>0</asrwt>
<pdfrwt beam="1">  1        1 0.56232322E-02 0.91239107E+02</pdfrwt>
<pdfrwt beam="2">  1       -1 0.87597019E-02 0.91239107E+02</pdfrwt>
<totfact> 0.89248609E+04</totfact>
</mgrwt>
</event>
<event>
 5    1  0.2718303E+000  0.9175782E+02  0.7818608E-02  0.1298650E+00
          1   -1    0    0  501    0  0.00000000000E+00  0.00000000000E+00  0.23670898783E+02  0.23670899243E+02  0.46700000000E-02 0. -1.
         -1   -1    0    0    0  501 -0.00000000000E+00 -0.00000000000E+00 -0.88922446460E+02  0.88922446583E+02  0.46700000000E-02 0.  1.
         23    2    1    2    0    0  0.00000000000E+00  0.00000000000E+00 -0.65251547678E+02  0.11259334583E+03  0.91757817378E+02 0.  0.
        -11    1    3    3    0    0 -0.38270298835E+02 -0.20643130046E+02 -0.50581291656E+02  0.66702486137E+02  0.51100000000E-03 0.  1.
         11    1    3    3    0    0  0.38270298835E+02  0.20643130046E+02 -0.14670256021E+02  0.45890859689E+02  0.51100000000E-03 0. -1.
<mgrwt>
<rscale>  0 0.91757817E+02</rscale>
<asrwt>0</asrwt>
<pdfrwt beam="1">  1        1 0.36416768E-02 0.91757817E+02</pdfrwt>
<pdfrwt beam="2">  1       -1 0.13680376E-01 0.91757817E+02</pdfrwt>
<totfact> 0.81773002E+04</totfact>
</mgrwt>
</event>
<event>
 5    1  0.2718303E+000  0.9217060E+02  0.7818608E-02  0.1297679E+00
          1   -1    0    0  501    0  0.00000000000E+00  0.00000000000E+00  0.35862440270E+02  0.35862440574E+02  0.46700000000E-02 0. -1.
         -1   -1    0    0    0  501 -0.00000000000E+00 -0.00000000000E+00 -0.59222266262E+02  0.59222266446E+02  0.46700000000E-02 0.  1.
         23    2    1    2    0    0  0.00000000000E+00  0.00000000000E+00 -0.23359825992E+02  0.95084707021E+02  0.92170602900E+02 0.  0.
        -11    1    3    3    0    0  0.25091739116E+02 -0.25027035754E+02  0.18711778336E+02  0.40075909712E+02  0.51100000000E-03 0.  1.
         11    1    3    3    0    0 -0.25091739116E+02  0.25027035754E+02 -0.42071604327E+02  0.55008797309E+02  0.51100000000E-03 0. -1.
<mgrwt>
<rscale>  0 0.92170603E+02</rscale>
<asrwt>0</asrwt>
<pdfrwt beam="1">  1        1 0.55172986E-02 0.92170603E+02</pdfrwt>
<pdfrwt beam="2">  1       -1 0.91111179E-02 0.92170603E+02</pdfrwt>
<totfact> 0.86450290E+04</totfact>
</mgrwt>
</event>
<event>
 5    1  0.2718303E+000  0.8528852E+02  0.7818608E-02  0.1314680E+00
         -1   -1    0    0    0  501 -0.00000000000E+00  0.00000000000E+00  0.75586987910E+01  0.75587002336E+01  0.46700000000E-02 0.  1.
          1   -1    0    0  501    0  0.00000000000E+00 -0.00000000000E+00 -0.24058803945E+03  0.24058803950E+03  0.46700000000E-02 0. -1.
         23    2    1    2    0    0  0.00000000000E+00  0.00000000000E+00 -0.23302934066E+03  0.24814673973E+03  0.85288515231E+02 0.  0.
        -11    1    3    3    0    0  0.26894425605E+02  0.30746866874E+02 -0.15213110043E+03  0.15752000403E+03  0.51100000000E-03 0. -1.
         11    1    3    3    0    0 -0.26894425605E+02 -0.30746866874E+02 -0.80898240231E+02  0.90626735701E+02  0.51100000000E-03 0.  1.
<mgrwt>
<rscale>  0 0.85288515E+02</rscale>
<asrwt>0</asrwt>
<pdfrwt beam="2">  1        1 0.37013539E-01 0.85288515E+02</pdfrwt>
<pdfrwt beam="1">  1       -1 0.11628770E-02 0.85288515E+02</pdfrwt>
<totfact> 0.14662324E+05</totfact>
</mgrwt>
</event>
<event>
 5    1  0.2718303E+000  0.8823103E+02  0.7818608E-02  0.1307193E+00
          1   -1    0    0  501    0  0.00000000000E+00  0.00000000000E+00  0.22895332986E+02  0.22895333462E+02  0.46700000000E-02 0. -1.
         -1   -1    0    0    0  501 -0.00000000000E+00 -0.00000000000E+00 -0.85003296989E+02  0.85003297118E+02  0.46700000000E-02 0.  1.
         23    2    1    2    0    0  0.00000000000E+00  0.00000000000E+00 -0.62107964003E+02  0.10789863058E+03  0.88231033591E+02 0.  0.
        -11    1    3    3    0    0  0.29622697833E+02  0.19727353978E+02 -0.62931995179E+02  0.72298746458E+02  0.51100000000E-03 0.  1.
         11    1    3    3    0    0 -0.29622697833E+02 -0.19727353978E+02  0.82403117599E+00  0.35599884122E+02  0.51100000000E-03 0. -1.
<mgrwt>
<rscale>  0 0.88231034E+02</rscale>
<asrwt>0</asrwt>
<pdfrwt beam="1">  1        1 0.35223590E-02 0.88231034E+02</pdfrwt>
<pdfrwt beam="2">  1       -1 0.13077430E-01 0.88231034E+02</pdfrwt>
<totfact> 0.91127674E+04</totfact>
</mgrwt>
</event>
<event>
 5    1  0.2718303E+000  0.8967481E+02  0.7818608E-02  0.1303641E+00
          1   -1    0    0  501    0  0.00000000000E+00  0.00000000000E+00  0.80699583560E+01  0.80699597073E+01  0.46700000000E-02 0. -1.
         -1   -1    0    0    0  501 -0.00000000000E+00 -0.00000000000E+00 -0.24912057002E+03  0.24912057006E+03  0.46700000000E-02 0.  1.
         23    2    1    2    0    0  0.00000000000E+00  0.00000000000E+00 -0.24105061166E+03  0.25719052977E+03  0.89674808170E+02 0.  0.
        -11    1    3    3    0    0  0.12552505881E+02  0.41880750466E+02 -0.92013204560E+02  0.10187243237E+03  0.51100000000E-03 0.  1.
         11    1    3    3    0    0 -0.12552505881E+02 -0.41880750466E+02 -0.14903740710E+03  0.15531809740E+03  0.51100000000E-03 0. -1.
<mgrwt>
<rscale>  0 0.89674808E+02</rscale>
<asrwt>0</asrwt>
<pdfrwt beam="1">  1        1 0.12415324E-02 0.89674808E+02</pdfrwt>
<pdfrwt beam="2">  1       -1 0.38326236E-01 0.89674808E+02</pdfrwt>
<totfact> 0.67713200E+04</totfact>
</mgrwt>
</event>
<event>
 5    1  0.2718303E+000  0.5489740E+02  0.7818608E-02  0.1420585E+00
          1   -1    0    0  501    0  0.00000000000E+00  0.00000000000E+00  0.13770357926E+02  0.13770358718E+02  0.46700000000E-02 0.  1.
         -1   -1    0    0    0  501 -0.00000000000E+00 -0.00000000000E+00 -0.54713976809E+02  0.54713977009E+02  0.46700000000E-02 0. -1.
         23    2    1    2    0    0  0.00000000000E+00  0.00000000000E+00 -0.40943618883E+02  0.68484335727E+02  0.54897398051E+02 0.  0.
        -11    1    3    3    0    0  0.15799819471E+02  0.15152795992E+00 -0.48471761309E+02  0.50982044886E+02  0.51100000000E-03 0. -1.
         11    1    3    3    0    0 -0.15799819471E+02 -0.15152795992E+00  0.75281424265E+01  0.17502290841E+02  0.51100000000E-03 0.  1.
<mgrwt>
<rscale>  0 0.54897398E+02</rscale>
<asrwt>0</asrwt>
<pdfrwt beam="1">  1        1 0.21185167E-02 0.54897398E+02</pdfrwt>
<pdfrwt beam="2">  1       -1 0.84175349E-02 0.54897398E+02</pdfrwt>
<totfact> 0.32118729E+05</totfact>
</mgrwt>
</event>
<event>
 5    1  0.2718303E+000  0.9198499E+02  0.7818608E-02  0.1298115E+00
          1   -1    0    0  501    0  0.00000000000E+00  0.00000000000E+00  0.10312881570E+02  0.10312882627E+02  0.46700000000E-02 0.  1.
         -1   -1    0    0    0  501 -0.00000000000E+00 -0.00000000000E+00 -0.20511331442E+03  0.20511331447E+03  0.46700000000E-02 0. -1.
         23    2    1    2    0    0  0.00000000000E+00  0.00000000000E+00 -0.19480043285E+03  0.21542619710E+03  0.91984986592E+02 0.  0.
        -11    1    3    3    0    0  0.42698093634E+02 -0.79867337673E+01 -0.62006658835E+02  0.75708261480E+02  0.51100000000E-03 0.  1.
         11    1    3    3    0    0 -0.42698093634E+02  0.79867337673E+01 -0.13279377401E+03  0.13971793562E+03  0.51100000000E-03 0. -1.
<mgrwt>
<rscale>  0 0.91984987E+02</rscale>
<asrwt>0</asrwt>
<pdfrwt beam="1">  1        1 0.15865974E-02 0.91984987E+02</pdfrwt>
<pdfrwt beam="2">  1       -1 0.31555892E-01 0.91984987E+02</pdfrwt>
<totfact> 0.67351746E+04</totfact>
</mgrwt>
</event>
<event>
 5    1  0.2718303E+000  0.9191954E+02  0.7818608E-02  0.1298269E+00
          1   -1    0    0  501    0  0.00000000000E+00  0.00000000000E+00  0.17112124530E+03  0.17112124537E+03  0.46700000000E-02 0. -1.
         -1   -1    0    0    0  501 -0.00000000000E+00 -0.00000000000E+00 -0.12343882288E+02  0.12343883172E+02  0.46700000000E-02 0.  1.
         23    2    1    2    0    0  0.00000000000E+00  0.00000000000E+00  0.15877736302E+03  0.18346512854E+03  0.91919542991E+02 0.  0.
        -11    1    3    3    0    0  0.90849338719E+01  0.39438617196E+02  0.35917672149E+02  0.54111179277E+02  0.51100000000E-03 0.  1.
         11    1    3    3    0    0 -0.90849338719E+01 -0.39438617196E+02  0.12285969087E+03  0.12935394926E+03  0.51100000000E-03 0. -1.
<mgrwt>
<rscale>  0 0.91919543E+02</rscale>
<asrwt>0</asrwt>
<pdfrwt beam="1">  1        1 0.26326345E-01 0.91919543E+02</pdfrwt>
<pdfrwt beam="2">  1       -1 0.18990590E-02 0.91919543E+02</pdfrwt>
<totfact> 0.11243400E+05</totfact>
</mgrwt>
</event>
<event>
 5    1  0.2718303E+000  0.9047279E+02  0.7818608E-02  0.1301711E+00
         -1   -1    0    0    0  501 -0.00000000000E+00  0.00000000000E+00  0.97327007398E+02  0.97327007510E+02  0.46700000000E-02 0.  1.
          1   -1    0    0  501    0  0.00000000000E+00 -0.00000000000E+00 -0.21025320885E+02  0.21025321404E+02  0.46700000000E-02 0. -1.
         23    2    1    2    0    0  0.00000000000E+00  0.00000000000E+00  0.76301686512E+02  0.11835232891E+03  0.90472793671E+02 0.  0.
        -11    1    3    3    0    0  0.39599557371E+02  0.13505324450E+02  0.60650056759E+02  0.73681396008E+02  0.51100000000E-03 0.  1.
         11    1    3    3    0    0 -0.39599557371E+02 -0.13505324450E+02  0.15651629753E+02  0.44670932906E+02  0.51100000000E-03 0. -1.
<mgrwt>
<rscale>  0 0.90472794E+02</rscale>
<asrwt>0</asrwt>
<pdfrwt beam="2">  1        1 0.32346648E-02 0.90472794E+02</pdfrwt>
<pdfrwt beam="1">  1       -1 0.14973386E-01 0.90472794E+02</pdfrwt>
<totfact> 0.83425531E+04</totfact>
</mgrwt>
</event>
<event>
 5    1  0.2718303E+000  0.8963314E+02  0.7818608E-02  0.1303743E+00
         -1   -1    0    0    0  501 -0.00000000000E+00  0.00000000000E+00  0.73314812931E+01  0.73314827804E+01  0.46700000000E-02 0.  1.
          1   -1    0    0  501    0  0.00000000000E+00 -0.00000000000E+00 -0.27395891261E+03  0.27395891265E+03  0.46700000000E-02 0. -1.
         23    2    1    2    0    0  0.00000000000E+00  0.00000000000E+00 -0.26662743132E+03  0.28129039543E+03  0.89633138017E+02 0.  0.
        -11    1    3    3    0    0  0.42190482272E+02  0.14069990281E+02 -0.15065187606E+03  0.15707956322E+03  0.51100000000E-03 0.  1.
         11    1    3    3    0    0 -0.42190482272E+02 -0.14069990281E+02 -0.11597555526E+03  0.12421083221E+03  0.51100000000E-03 0. -1.
<mgrwt>
<rscale>  0 0.89633138E+02</rscale>
<asrwt>0</asrwt>
<pdfrwt beam="2">  1        1 0.42147517E-01 0.89633138E+02</pdfrwt>
<pdfrwt beam="1">  1       -1 0.11279205E-02 0.89633138E+02</pdfrwt>
<totfact> 0.13175825E+05</totfact>
</mgrwt>
</event>
<event>
 5    1  0.2718303E+000  0.9201969E+02  0.7818608E-02  0.1298033E+00
          1   -1    0    0  501    0  0.00000000000E+00  0.00000000000E+00  0.12300973690E+03  0.12300973699E+03  0.46700000000E-02 0. -1.
         -1   -1    0    0    0  501 -0.00000000000E+00 -0.00000000000E+00 -0.17209253852E+02  0.17209254486E+02  0.46700000000E-02 0.  1.
         23    2    1    2    0    0  0.00000000000E+00  0.00000000000E+00  0.10580048305E+03  0.14021899147E+03  0.92019690050E+02 0.  0.
        -11    1    3    3    0    0  0.96101145273E+00  0.32136966218E+02  0.27492022516E+01  0.32268657456E+02  0.51100000000E-03 0.  1.
         11    1    3    3    0    0 -0.96101145273E+00 -0.32136966218E+02  0.10305128079E+03  0.10795033402E+03  0.51100000000E-03 0. -1.
<mgrwt>
<rscale>  0 0.92019690E+02</rscale>
<asrwt>0</asrwt>
<pdfrwt beam="1">  1        1 0.18924575E-01 0.92019690E+02</pdfrwt>
<pdfrwt beam="2">  1       -1 0.26475776E-02 0.92019690E+02</pdfrwt>
<totfact> 0.10553638E+05</totfact>
</mgrwt>
</event>
<event>
 5    1  0.2718303E+000  0.8607735E+02  0.7818608E-02  0.1312639E+00
          1   -1    0    0  501    0  0.00000000000E+00  0.00000000000E+00  0.12628337402E+02  0.12628338266E+02  0.46700000000E-02 0. -1.
         -1   -1    0    0    0  501 -0.00000000000E+00 -0.00000000000E+00 -0.14668023803E+03  0.14668023811E+03  0.46700000000E-02 0.  1.
         23    2    1    2    0    0  0.00000000000E+00  0.00000000000E+00 -0.13405190063E+03  0.15930857637E+03  0.86077351512E+02 0.  0.
        -11    1    3    3    0    0  0.21499989954E+02  0.37274070577E+02 -0.68598231354E+02  0.80977300835E+02  0.51100000000E-03 0. -1.
         11    1    3    3    0    0 -0.21499989954E+02 -0.37274070577E+02 -0.65453669274E+02  0.78331275536E+02  0.51100000000E-03 0.  1.
<mgrwt>
<rscale>  0 0.86077352E+02</rscale>
<asrwt>0</asrwt>
<pdfrwt beam="1">  1        1 0.19428213E-02 0.86077352E+02</pdfrwt>
<pdfrwt beam="2">  1       -1 0.22566189E-01 0.86077352E+02</pdfrwt>
<totfact> 0.87257712E+04</totfact>
</mgrwt>
</event>
<event>
 5    1  0.2718303E+000  0.7488907E+02  0.7818608E-02  0.1344215E+00
         -1   -1    0    0    0  501 -0.00000000000E+00  0.00000000000E+00  0.65842163559E+02  0.65842163725E+02  0.46700000000E-02 0.  1.
          1   -1    0    0  501    0  0.00000000000E+00 -0.00000000000E+00 -0.21294764083E+02  0.21294764595E+02  0.46700000000E-02 0. -1.
         23    2    1    2    0    0  0.00000000000E+00  0.00000000000E+00  0.44547399476E+02  0.87136928320E+02  0.74889074483E+02 0.  0.
        -11    1    3    3    0    0 -0.11903935428E+02 -0.17281463274E+02  0.58357542751E+02  0.62015767735E+02  0.51100000000E-03 0.  1.
         11    1    3    3    0    0  0.11903935428E+02  0.17281463274E+02 -0.13810143275E+02  0.25121160584E+02  0.51100000000E-03 0. -1.
<mgrwt>
<rscale>  0 0.74889074E+02</rscale>
<asrwt>0</asrwt>
<pdfrwt beam="2">  1        1 0.32761176E-02 0.74889074E+02</pdfrwt>
<pdfrwt beam="1">  1       -1 0.10129564E-01 0.74889074E+02</pdfrwt>
<totfact> 0.14401150E+05</totfact>
</mgrwt>
</event>
<event>
 5    1  0.2718303E+000  0.9119993E+02  0.7818608E-02  0.1299972E+00
         -1   -1    0    0    0  501 -0.00000000000E+00  0.00000000000E+00  0.14908084440E+03  0.14908084447E+03  0.46700000000E-02 0.  1.
          1   -1    0    0  501    0  0.00000000000E+00 -0.00000000000E+00 -0.13947845756E+02  0.13947846537E+02  0.46700000000E-02 0. -1.
         23    2    1    2    0    0  0.00000000000E+00  0.00000000000E+00  0.13513299864E+03  0.16302869101E+03  0.91199927466E+02 0.  0.
        -11    1    3    3    0    0  0.67484159903E+01  0.43558875576E+02  0.46686028057E+02  0.64206712857E+02  0.51100000000E-03 0. -1.
         11    1    3    3    0    0 -0.67484159903E+01 -0.43558875576E+02  0.88446970585E+02  0.98821978151E+02  0.51100000000E-03 0.  1.
<mgrwt>
<rscale>  0 0.91199927E+02</rscale>
<asrwt>0</asrwt>
<pdfrwt beam="2">  1        1 0.21458224E-02 0.91199927E+02</pdfrwt>
<pdfrwt beam="1">  1       -1 0.22935515E-01 0.91199927E+02</pdfrwt>
<totfact> 0.74846754E+04</totfact>
</mgrwt>
</event>
<event>
 5    1  0.2718303E+000  0.9022883E+02  0.7818608E-02  0.1302299E+00
         -1   -1    0    0    0  501 -0.00000000000E+00  0.00000000000E+00  0.14802964036E+02  0.14802964773E+02  0.46700000000E-02 0.  1.
          1   -1    0    0  501    0  0.00000000000E+00 -0.00000000000E+00 -0.13749342182E+03  0.13749342190E+03  0.46700000000E-02 0. -1.
         23    2    1    2    0    0  0.00000000000E+00  0.00000000000E+00 -0.12269045778E+03  0.15229638667E+03  0.90228825562E+02 0.  0.
        -11    1    3    3    0    0  0.32222221033E+01  0.40391490122E+02 -0.94825722895E+02  0.10312018674E+03  0.51100000000E-03 0. -1.
         11    1    3    3    0    0 -0.32222221033E+01 -0.40391490122E+02 -0.27864734889E+02  0.49176199937E+02  0.51100000000E-03 0.  1.
<mgrwt>
<rscale>  0 0.90228826E+02</rscale>
<asrwt>0</asrwt>
<pdfrwt beam="2">  1        1 0.21152833E-01 0.90228826E+02</pdfrwt>
<pdfrwt beam="1">  1       -1 0.22773792E-02 0.90228826E+02</pdfrwt>
<totfact> 0.11352795E+05</totfact>
</mgrwt>
</event>
<event>
 5    1  0.2718303E+000  0.9210124E+02  0.7818608E-02  0.1297842E+00
         -1   -1    0    0    0  501 -0.00000000000E+00  0.00000000000E+00  0.11989337133E+02  0.11989338043E+02  0.46700000000E-02 0.  1.
          1   -1    0    0  501    0  0.00000000000E+00 -0.00000000000E+00 -0.17687877962E+03  0.17687877969E+03  0.46700000000E-02 0. -1.
         23    2    1    2    0    0  0.00000000000E+00  0.00000000000E+00 -0.16488944249E+03  0.18886811773E+03  0.92101235874E+02 0.  0.
        -11    1    3    3    0    0 -0.23126398698E+02 -0.13793969639E+02 -0.58380220297E+01  0.27553337668E+02  0.51100000000E-03 0.  1.
         11    1    3    3    0    0  0.23126398698E+02  0.13793969639E+02 -0.15905142046E+03  0.16131478006E+03  0.51100000000E-03 0. -1.
<mgrwt>
<rscale>  0 0.92101236E+02</rscale>
<asrwt>0</asrwt>
<pdfrwt beam="2">  1        1 0.27212118E-01 0.92101236E+02</pdfrwt>
<pdfrwt beam="1">  1       -1 0.18445136E-02 0.92101236E+02</pdfrwt>
<totfact> 0.11254141E+05</totfact>
</mgrwt>
</event>
<event>
 5    1  0.2718303E+000  0.9160917E+02  0.7818608E-02  0.1299001E+00
          1   -1    0    0  501    0  0.00000000000E+00  0.00000000000E+00  0.46717346242E+02  0.46717346475E+02  0.46700000000E-02 0. -1.
         -1   -1    0    0    0  501 -0.00000000000E+00 -0.00000000000E+00 -0.44909657433E+02  0.44909657676E+02  0.46700000000E-02 0.  1.
         23    2    1    2    0    0  0.00000000000E+00  0.00000000000E+00  0.18076888089E+01  0.91627004151E+02  0.91609170670E+02 0.  0.
        -11    1    3    3    0    0 -0.35991629245E+02  0.63350055881E+01 -0.26715483558E+02  0.45268606490E+02  0.51100000000E-03 0.  1.
         11    1    3    3    0    0  0.35991629245E+02 -0.63350055881E+01  0.28523172367E+02  0.46358397661E+02  0.51100000000E-03 0. -1.
<mgrwt>
<rscale>  0 0.91609171E+02</rscale>
<asrwt>0</asrwt>
<pdfrwt beam="1">  1        1 0.71872840E-02 0.91609171E+02</pdfrwt>
<pdfrwt beam="2">  1       -1 0.69091781E-02 0.91609171E+02</pdfrwt>
<totfact> 0.91588323E+04</totfact>
</mgrwt>
</event>
<event>
 5    1  0.2718303E+000  0.9198874E+02  0.7818608E-02  0.1298106E+00
         -1   -1    0    0    0  501 -0.00000000000E+00  0.00000000000E+00  0.38192598847E+02  0.38192599133E+02  0.46700000000E-02 0.  1.
          1   -1    0    0  501    0  0.00000000000E+00 -0.00000000000E+00 -0.55389839975E+02  0.55389840172E+02  0.46700000000E-02 0. -1.
         23    2    1    2    0    0  0.00000000000E+00  0.00000000000E+00 -0.17197241127E+02  0.93582439305E+02  0.91988737592E+02 0.  0.
        -11    1    3    3    0    0  0.10929013144E+02  0.16010395808E+02 -0.51031022418E+02  0.54588839074E+02  0.51100000000E-03 0. -1.
         11    1    3    3    0    0 -0.10929013144E+02 -0.16010395808E+02  0.33833781291E+02  0.38993600230E+02  0.51100000000E-03 0.  1.
<mgrwt>
<rscale>  0 0.91988738E+02</rscale>
<asrwt>0</asrwt>
<pdfrwt beam="2">  1        1 0.85215139E-02 0.91988738E+02</pdfrwt>
<pdfrwt beam="1">  1       -1 0.58757845E-02 0.91988738E+02</pdfrwt>
<totfact> 0.92892221E+04</totfact>
</mgrwt>
</event>
<event>
 5    1  0.2718303E+000  0.1030248E+03  0.7818608E-02  0.1274061E+00
         -1   -1    0    0    0  501 -0.00000000000E+00  0.00000000000E+00  0.15653415366E+02  0.15653416063E+02  0.46700000000E-02 0.  1.
          1   -1    0    0  501    0  0.00000000000E+00 -0.00000000000E+00 -0.16951746899E+03  0.16951746905E+03  0.46700000000E-02 0. -1.
         23    2    1    2    0    0  0.00000000000E+00  0.00000000000E+00 -0.15386405362E+03  0.18517088512E+03  0.10302480137E+03 0.  0.
        -11    1    3    3    0    0 -0.33587991163E+02 -0.20219887979E+02 -0.16874672911E+02  0.42681982222E+02  0.51100000000E-03 0.  1.
         11    1    3    3    0    0  0.33587991163E+02  0.20219887979E+02 -0.13698938071E+03  0.14248890290E+03  0.51100000000E-03 0. -1.
<mgrwt>
<rscale>  0 0.10302480E+03</rscale>
<asrwt>0</asrwt>
<pdfrwt beam="2">  1        1 0.26079609E-01 0.10302480E+03</pdfrwt>
<pdfrwt beam="1">  1       -1 0.24082179E-02 0.10302480E+03</pdfrwt>
<totfact> 0.82371903E+04</totfact>
</mgrwt>
</event>
<event>
 5    1  0.2718303E+000  0.9169405E+02  0.7818608E-02  0.1298800E+00
         -1   -1    0    0    0  501 -0.00000000000E+00  0.00000000000E+00  0.30360097186E+02  0.30360097546E+02  0.46700000000E-02 0.  1.
          1   -1    0    0  501    0  0.00000000000E+00 -0.00000000000E+00 -0.69233960139E+02  0.69233960296E+02  0.46700000000E-02 0. -1.
         23    2    1    2    0    0  0.00000000000E+00  0.00000000000E+00 -0.38873862952E+02  0.99594057842E+02  0.91694051806E+02 0.  0.
        -11    1    3    3    0    0 -0.38379163022E+02  0.36152281871E+01  0.75189991809E+01  0.39275506083E+02  0.51100000000E-03 0.  1.
         11    1    3    3    0    0  0.38379163022E+02 -0.36152281871E+01 -0.46392862133E+02  0.60318551759E+02  0.51100000000E-03 0. -1.
<mgrwt>
<rscale>  0 0.91694052E+02</rscale>
<asrwt>0</asrwt>
<pdfrwt beam="2">  1        1 0.10651378E-01 0.91694052E+02</pdfrwt>
<pdfrwt beam="1">  1       -1 0.46707843E-02 0.91694052E+02</pdfrwt>
<totfact> 0.96972271E+04</totfact>
</mgrwt>
</event>
<event>
 5    1  0.2718303E+000  0.9129810E+02  0.7818608E-02  0.1299738E+00
         -1   -1    0    0    0  501 -0.00000000000E+00  0.00000000000E+00  0.20217501690E+03  0.20217501695E+03  0.46700000000E-02 0.  1.
          1   -1    0    0  501    0  0.00000000000E+00 -0.00000000000E+00 -0.10307088674E+02  0.10307089732E+02  0.46700000000E-02 0. -1.
         23    2    1    2    0    0  0.00000000000E+00  0.00000000000E+00  0.19186792822E+03  0.21248210668E+03  0.91298103921E+02 0.  0.
        -11    1    3    3    0    0  0.34223715438E+01  0.45409299034E+02  0.88530639271E+02  0.99555969965E+02  0.51100000000E-03 0.  1.
         11    1    3    3    0    0 -0.34223715438E+01 -0.45409299034E+02  0.10333728895E+03  0.11292613672E+03  0.51100000000E-03 0. -1.
<mgrwt>
<rscale>  0 0.91298104E+02</rscale>
<asrwt>0</asrwt>
<pdfrwt beam="2">  1        1 0.15857061E-02 0.91298104E+02</pdfrwt>
<pdfrwt beam="1">  1       -1 0.31103848E-01 0.91298104E+02</pdfrwt>
<totfact> 0.68969760E+04</totfact>
</mgrwt>
</event>
<event>
 5    1  0.2718303E+000  0.8929563E+02  0.7818608E-02  0.1304566E+00
         -1   -1    0    0    0  501 -0.00000000000E+00  0.00000000000E+00  0.53039858543E+02  0.53039858748E+02  0.46700000000E-02 0.  1.
          1   -1    0    0  501    0  0.00000000000E+00 -0.00000000000E+00 -0.37583571431E+02  0.37583571721E+02  0.46700000000E-02 0. -1.
         23    2    1    2    0    0  0.00000000000E+00  0.00000000000E+00  0.15456287112E+02  0.90623430469E+02  0.89295628889E+02 0.  0.
        -11    1    3    3    0    0  0.11201869932E+02  0.36041128156E+01  0.51437768738E+02  0.52766614182E+02  0.51100000000E-03 0.  1.
         11    1    3    3    0    0 -0.11201869932E+02 -0.36041128156E+01 -0.35981481626E+02  0.37856816287E+02  0.51100000000E-03 0. -1.
<mgrwt>
<rscale>  0 0.89295629E+02</rscale>
<asrwt>0</asrwt>
<pdfrwt beam="2">  1        1 0.57820880E-02 0.89295629E+02</pdfrwt>
<pdfrwt beam="1">  1       -1 0.81599782E-02 0.89295629E+02</pdfrwt>
<totfact> 0.95256265E+04</totfact>
</mgrwt>
</event>
<event>
 5    1  0.2718303E+000  0.9108178E+02  0.7818608E-02  0.1300253E+00
         -1   -1    0    0    0  501 -0.00000000000E+00  0.00000000000E+00  0.10684460033E+02  0.10684461054E+02  0.46700000000E-02 0.  1.
          1   -1    0    0  501    0  0.00000000000E+00 -0.00000000000E+00 -0.19411111770E+03  0.19411111776E+03  0.46700000000E-02 0. -1.
         23    2    1    2    0    0  0.00000000000E+00  0.00000000000E+00 -0.18342665767E+03  0.20479557881E+03  0.91081778404E+02 0.  0.
        -11    1    3    3    0    0 -0.43246680795E+02 -0.11869881821E+02 -0.10953217578E+03  0.11835736997E+03  0.51100000000E-03 0.  1.
         11    1    3    3    0    0  0.43246680795E+02  0.11869881821E+02 -0.73894481889E+02  0.86438208844E+02  0.51100000000E-03 0. -1.
<mgrwt>
<rscale>  0 0.91081778E+02</rscale>
<asrwt>0</asrwt>
<pdfrwt beam="2">  1        1 0.29863246E-01 0.91081778E+02</pdfrwt>
<pdfrwt beam="1">  1       -1 0.16437633E-02 0.91081778E+02</pdfrwt>
<totfact> 0.11805301E+05</totfact>
</mgrwt>
</event>
<event>
 5    1  0.2718303E+000  0.8845838E+02  0.7818608E-02  0.1306628E+00
         -1   -1    0    0    0  501 -0.00000000000E+00  0.00000000000E+00  0.75718835103E+02  0.75718835247E+02  0.46700000000E-02 0.  1.
          1   -1    0    0  501    0  0.00000000000E+00 -0.00000000000E+00 -0.25835331801E+02  0.25835332223E+02  0.46700000000E-02 0. -1.
         23    2    1    2    0    0  0.00000000000E+00  0.00000000000E+00  0.49883503302E+02  0.10155416747E+03  0.88458380207E+02 0.  0.
        -11    1    3    3    0    0  0.89322565964E+01 -0.18248513404E+02  0.70044387981E+02  0.72931541443E+02  0.51100000000E-03 0.  1.
         11    1    3    3    0    0 -0.89322565964E+01  0.18248513404E+02 -0.20160884679E+02  0.28622626027E+02  0.51100000000E-03 0. -1.
<mgrwt>
<rscale>  0 0.88458380E+02</rscale>
<asrwt>0</asrwt>
<pdfrwt beam="2">  1        1 0.39746665E-02 0.88458380E+02</pdfrwt>
<pdfrwt beam="1">  1       -1 0.11649052E-01 0.88458380E+02</pdfrwt>
<totfact> 0.92296161E+04</totfact>
</mgrwt>
</event>
<event>
 5    1  0.2718303E+000  0.8922581E+02  0.7818608E-02  0.1304737E+00
         -1   -1    0    0    0  501 -0.00000000000E+00  0.00000000000E+00  0.83732766934E+02  0.83732767064E+02  0.46700000000E-02 0.  1.
          1   -1    0    0  501    0  0.00000000000E+00 -0.00000000000E+00 -0.23769803737E+02  0.23769804196E+02  0.46700000000E-02 0. -1.
         23    2    1    2    0    0  0.00000000000E+00  0.00000000000E+00  0.59962963197E+02  0.10750257126E+03  0.89225813933E+02 0.  0.
        -11    1    3    3    0    0  0.34551712869E+01  0.27297441244E+02  0.72292076776E+02  0.77351359858E+02  0.51100000000E-03 0.  1.
         11    1    3    3    0    0 -0.34551712869E+01 -0.27297441244E+02 -0.12329113579E+02  0.30151211401E+02  0.51100000000E-03 0. -1.
<mgrwt>
<rscale>  0 0.89225814E+02</rscale>
<asrwt>0</asrwt>
<pdfrwt beam="2">  1        1 0.36568930E-02 0.89225814E+02</pdfrwt>
<pdfrwt beam="1">  1       -1 0.12881964E-01 0.89225814E+02</pdfrwt>
<totfact> 0.88777722E+04</totfact>
</mgrwt>
</event>
<event>
 5    1  0.2718303E+000  0.8984049E+02  0.7818608E-02  0.1303238E+00
         -1   -1    0    0    0  501 -0.00000000000E+00  0.00000000000E+00  0.24872526752E+02  0.24872527190E+02  0.46700000000E-02 0. -1.
          1   -1    0    0  501    0  0.00000000000E+00 -0.00000000000E+00 -0.81126799113E+02  0.81126799247E+02  0.46700000000E-02 0.  1.
         23    2    1    2    0    0  0.00000000000E+00  0.00000000000E+00 -0.56254272361E+02  0.10599932644E+03  0.89840492242E+02 0.  0.
        -11    1    3    3    0    0  0.19465123486E+02 -0.20510579847E+02 -0.69308415427E+02  0.74854735102E+02  0.51100000000E-03 0.  1.
         11    1    3    3    0    0 -0.19465123486E+02  0.20510579847E+02  0.13054143066E+02  0.31144591335E+02  0.51100000000E-03 0. -1.
<mgrwt>
<rscale>  0 0.89840492E+02</rscale>
<asrwt>0</asrwt>
<pdfrwt beam="2">  1        1 0.12481046E-01 0.89840492E+02</pdfrwt>
<pdfrwt beam="1">  1       -1 0.38265426E-02 0.89840492E+02</pdfrwt>
<totfact> 0.10513356E+05</totfact>
</mgrwt>
</event>
<event>
 5    1  0.2718303E+000  0.9234210E+02  0.7818608E-02  0.1297277E+00
         -1   -1    0    0    0  501 -0.00000000000E+00  0.00000000000E+00  0.95133188720E+01  0.95133200182E+01  0.46700000000E-02 0.  1.
          1   -1    0    0  501    0  0.00000000000E+00 -0.00000000000E+00 -0.22408222423E+03  0.22408222428E+03  0.46700000000E-02 0. -1.
         23    2    1    2    0    0  0.00000000000E+00  0.00000000000E+00 -0.21456890536E+03  0.23359554430E+03  0.92342098573E+02 0.  0.
        -11    1    3    3    0    0 -0.35917179672E+02 -0.22397164618E+02 -0.60633435712E+02  0.73946536802E+02  0.51100000000E-03 0.  1.
         11    1    3    3    0    0  0.35917179672E+02  0.22397164618E+02 -0.15393546965E+03  0.15964900750E+03  0.51100000000E-03 0. -1.
<mgrwt>
<rscale>  0 0.92342099E+02</rscale>
<asrwt>0</asrwt>
<pdfrwt beam="2">  1        1 0.34474184E-01 0.92342099E+02</pdfrwt>
<pdfrwt beam="1">  1       -1 0.14635878E-02 0.92342099E+02</pdfrwt>
<totfact> 0.11700584E+05</totfact>
</mgrwt>
</event>
<event>
 5    1  0.2718303E+000  0.8894474E+02  0.7818608E-02  0.1305427E+00
          1   -1    0    0  501    0  0.00000000000E+00  0.00000000000E+00  0.44892759286E+03  0.44892759288E+03  0.46700000000E-02 0. -1.
         -1   -1    0    0    0  501 -0.00000000000E+00 -0.00000000000E+00 -0.44055905045E+01  0.44055929796E+01  0.46700000000E-02 0.  1.
         23    2    1    2    0    0  0.00000000000E+00  0.00000000000E+00  0.44452200236E+03  0.45333318586E+03  0.88944740302E+02 0.  0.
        -11    1    3    3    0    0 -0.20091387273E+02 -0.39140704562E+02  0.18917768758E+03  0.19422630120E+03  0.51100000000E-03 0.  1.
         11    1    3    3    0    0  0.20091387273E+02  0.39140704562E+02  0.25534431477E+03  0.25910688467E+03  0.51100000000E-03 0. -1.
<mgrwt>
<rscale>  0 0.88944740E+02</rscale>
<asrwt>0</asrwt>
<pdfrwt beam="1">  1        1 0.69065720E-01 0.88944740E+02</pdfrwt>
<pdfrwt beam="2">  1       -1 0.67778397E-03 0.88944740E+02</pdfrwt>
<totfact> 0.14662556E+05</totfact>
</mgrwt>
</event>
<event>
 5    1  0.2718303E+000  0.9116915E+02  0.7818608E-02  0.1300045E+00
         -1   -1    0    0    0  501 -0.00000000000E+00  0.00000000000E+00  0.64965528645E+01  0.64965545430E+01  0.46700000000E-02 0.  1.
          1   -1    0    0  501    0  0.00000000000E+00 -0.00000000000E+00 -0.31985472148E+03  0.31985472152E+03  0.46700000000E-02 0. -1.
         23    2    1    2    0    0  0.00000000000E+00  0.00000000000E+00 -0.31335816862E+03  0.32635127606E+03  0.91169147995E+02 0.  0.
        -11    1    3    3    0    0 -0.33919103597E+02 -0.29382093837E+02 -0.18534746170E+03  0.19070263392E+03  0.51100000000E-03 0. -1.
         11    1    3    3    0    0  0.33919103597E+02  0.29382093837E+02 -0.12801070692E+03  0.13564864214E+03  0.51100000000E-03 0.  1.
<mgrwt>
<rscale>  0 0.91169148E+02</rscale>
<asrwt>0</asrwt>
<pdfrwt beam="2">  1        1 0.49208407E-01 0.91169148E+02</pdfrwt>
<pdfrwt beam="1">  1       -1 0.99947005E-03 0.91169148E+02</pdfrwt>
<totfact> 0.12970953E+05</totfact>
</mgrwt>
</event>
<event>
 5    1  0.2718303E+000  0.9067219E+02  0.7818608E-02  0.1301232E+00
         -1   -1    0    0    0  501 -0.00000000000E+00  0.00000000000E+00  0.16047017554E+02  0.16047018234E+02  0.46700000000E-02 0. -1.
          1   -1    0    0  501    0  0.00000000000E+00 -0.00000000000E+00 -0.12808370745E+03  0.12808370754E+03  0.46700000000E-02 0.  1.
         23    2    1    2    0    0  0.00000000000E+00  0.00000000000E+00 -0.11203668990E+03  0.14413072577E+03  0.90672191040E+02 0.  0.
        -11    1    3    3    0    0 -0.81054351461E+01  0.43253823627E+02 -0.38694820921E+02  0.58599321699E+02  0.51100000000E-03 0.  1.
         11    1    3    3    0    0  0.81054351461E+01 -0.43253823627E+02 -0.73341868977E+02  0.85531404072E+02  0.51100000000E-03 0. -1.
<mgrwt>
<rscale>  0 0.90672191E+02</rscale>
<asrwt>0</asrwt>
<pdfrwt beam="2">  1        1 0.19705185E-01 0.90672191E+02</pdfrwt>
<pdfrwt beam="1">  1       -1 0.24687721E-02 0.90672191E+02</pdfrwt>
<totfact> 0.11062839E+05</totfact>
</mgrwt>
</event>
<event>
 5    1  0.2718303E+000  0.8699713E+02  0.7818608E-02  0.1310291E+00
         -1   -1    0    0    0  501 -0.00000000000E+00  0.00000000000E+00  0.51797879123E+02  0.51797879334E+02  0.46700000000E-02 0.  1.
          1   -1    0    0  501    0  0.00000000000E+00 -0.00000000000E+00 -0.36529006051E+02  0.36529006349E+02  0.46700000000E-02 0. -1.
         23    2    1    2    0    0  0.00000000000E+00  0.00000000000E+00  0.15268873073E+02  0.88326885683E+02  0.86997127824E+02 0.  0.
        -11    1    3    3    0    0 -0.11268975900E+02 -0.21347432170E+02 -0.29104610198E+02  0.37812445215E+02  0.51100000000E-03 0.  1.
         11    1    3    3    0    0  0.11268975900E+02  0.21347432170E+02  0.44373483270E+02  0.50514440469E+02  0.51100000000E-03 0. -1.
<mgrwt>
<rscale>  0 0.86997128E+02</rscale>
<asrwt>0</asrwt>
<pdfrwt beam="2">  1        1 0.56198471E-02 0.86997128E+02</pdfrwt>
<pdfrwt beam="1">  1       -1 0.79689045E-02 0.86997128E+02</pdfrwt>
<totfact> 0.10208392E+05</totfact>
</mgrwt>
</event>
<event>
 5    1  0.2718303E+000  0.8503278E+02  0.7818608E-02  0.1315347E+00
          1   -1    0    0  501    0  0.00000000000E+00  0.00000000000E+00  0.16947562847E+02  0.16947563490E+02  0.46700000000E-02 0. -1.
         -1   -1    0    0    0  501 -0.00000000000E+00 -0.00000000000E+00 -0.10666095053E+03  0.10666095063E+03  0.46700000000E-02 0.  1.
         23    2    1    2    0    0  0.00000000000E+00  0.00000000000E+00 -0.89713387683E+02  0.12360851412E+03  0.85032775058E+02 0.  0.
        -11    1    3    3    0    0  0.24671811694E+02 -0.42817501378E+01  0.50910118171E+01  0.25552887862E+02  0.51100000000E-03 0. -1.
         11    1    3    3    0    0 -0.24671811694E+02  0.42817501378E+01 -0.94804399500E+02  0.98055626260E+02  0.51100000000E-03 0.  1.
<mgrwt>
<rscale>  0 0.85032775E+02</rscale>
<asrwt>0</asrwt>
<pdfrwt beam="1">  1        1 0.26073175E-02 0.85032775E+02</pdfrwt>
<pdfrwt beam="2">  1       -1 0.16409377E-01 0.85032775E+02</pdfrwt>
<totfact> 0.96193493E+04</totfact>
</mgrwt>
</event>
<event>
 5    1  0.2718303E+000  0.9715025E+02  0.7818608E-02  0.1286405E+00
         -1   -1    0    0    0  501 -0.00000000000E+00  0.00000000000E+00  0.12790301887E+02  0.12790302739E+02  0.46700000000E-02 0.  1.
          1   -1    0    0  501    0  0.00000000000E+00 -0.00000000000E+00 -0.18447906169E+03  0.18447906175E+03  0.46700000000E-02 0. -1.
         23    2    1    2    0    0  0.00000000000E+00  0.00000000000E+00 -0.17168875980E+03  0.19726936449E+03  0.97150254362E+02 0.  0.
        -11    1    3    3    0    0  0.12345535816E+02 -0.39870911982E+02 -0.35388303896E+02  0.54721421123E+02  0.51100000000E-03 0.  1.
         11    1    3    3    0    0 -0.12345535816E+02  0.39870911982E+02 -0.13630045590E+03  0.14254794336E+03  0.51100000000E-03 0. -1.
<mgrwt>
<rscale>  0 0.97150254E+02</rscale>
<asrwt>0</asrwt>
<pdfrwt beam="2">  1        1 0.28381392E-01 0.97150254E+02</pdfrwt>
<pdfrwt beam="1">  1       -1 0.19677390E-02 0.97150254E+02</pdfrwt>
<totfact> 0.98235340E+04</totfact>
</mgrwt>
</event>
<event>
 5    1  0.2718303E+000  0.9009584E+02  0.7818608E-02  0.1302620E+00
         -1   -1    0    0    0  501 -0.00000000000E+00  0.00000000000E+00  0.91435149138E+02  0.91435149258E+02  0.46700000000E-02 0.  1.
          1   -1    0    0  501    0  0.00000000000E+00 -0.00000000000E+00 -0.22194035498E+02  0.22194035990E+02  0.46700000000E-02 0. -1.
         23    2    1    2    0    0  0.00000000000E+00  0.00000000000E+00  0.69241113640E+02  0.11362918525E+03  0.90095837428E+02 0.  0.
        -11    1    3    3    0    0 -0.26043829334E+02  0.15158293510E+02 -0.76111218806E+01  0.31080284508E+02  0.51100000000E-03 0. -1.
         11    1    3    3    0    0  0.26043829334E+02 -0.15158293510E+02  0.76852235521E+02  0.82548900740E+02  0.51100000000E-03 0.  1.
<mgrwt>
<rscale>  0 0.90095837E+02</rscale>
<asrwt>0</asrwt>
<pdfrwt beam="2">  1        1 0.34144670E-02 0.90095837E+02</pdfrwt>
<pdfrwt beam="1">  1       -1 0.14066946E-01 0.90095837E+02</pdfrwt>
<totfact> 0.85280260E+04</totfact>
</mgrwt>
</event>
<event>
 5    1  0.2718303E+000  0.9178764E+02  0.7818608E-02  0.1298580E+00
         -1   -1    0    0    0  501 -0.00000000000E+00  0.00000000000E+00  0.52924014984E+01  0.52924035588E+01  0.46700000000E-02 0.  1.
          1   -1    0    0  501    0  0.00000000000E+00 -0.00000000000E+00 -0.39797477213E+03  0.39797477215E+03  0.46700000000E-02 0. -1.
         23    2    1    2    0    0  0.00000000000E+00  0.00000000000E+00 -0.39268237063E+03  0.40326717571E+03  0.91787639719E+02 0.  0.
        -11    1    3    3    0    0 -0.40141658380E+02  0.21515028351E+02 -0.17149042536E+03  0.17743510130E+03  0.51100000000E-03 0.  1.
         11    1    3    3    0    0  0.40141658380E+02 -0.21515028351E+02 -0.22119194526E+03  0.22583207441E+03  0.51100000000E-03 0. -1.
<mgrwt>
<rscale>  0 0.91787640E+02</rscale>
<asrwt>0</asrwt>
<pdfrwt beam="2">  1        1 0.61226865E-01 0.91787640E+02</pdfrwt>
<pdfrwt beam="1">  1       -1 0.81421609E-03 0.91787640E+02</pdfrwt>
<totfact> 0.13240869E+05</totfact>
</mgrwt>
</event>
<event>
 5    1  0.2718303E+000  0.9186238E+02  0.7818608E-02  0.1298403E+00
         -1   -1    0    0    0  501 -0.00000000000E+00  0.00000000000E+00  0.19161392809E+03  0.19161392814E+03  0.46700000000E-02 0.  1.
          1   -1    0    0  501    0  0.00000000000E+00 -0.00000000000E+00 -0.11010025733E+02  0.11010026723E+02  0.46700000000E-02 0. -1.
         23    2    1    2    0    0  0.00000000000E+00  0.00000000000E+00  0.18060390235E+03  0.20262395487E+03  0.91862383708E+02 0.  0.
        -11    1    3    3    0    0  0.15390134391E+02  0.34341707677E+02  0.32216758736E+02  0.49539162957E+02  0.51100000000E-03 0.  1.
         11    1    3    3    0    0 -0.15390134391E+02 -0.34341707677E+02  0.14838714362E+03  0.15308479191E+03  0.51100000000E-03 0. -1.
<mgrwt>
<rscale>  0 0.91862384E+02</rscale>
<asrwt>0</asrwt>
<pdfrwt beam="2">  1        1 0.16938503E-02 0.91862384E+02</pdfrwt>
<pdfrwt beam="1">  1       -1 0.29479064E-01 0.91862384E+02</pdfrwt>
<totfact> 0.68908471E+04</totfact>
</mgrwt>
</event>
<event>
 5    1  0.2718303E+000  0.9170591E+02  0.7818608E-02  0.1298772E+00
          1   -1    0    0  501    0  0.00000000000E+00  0.00000000000E+00  0.85354639690E+02  0.85354639817E+02  0.46700000000E-02 0. -1.
         -1   -1    0    0    0  501 -0.00000000000E+00 -0.00000000000E+00 -0.24632444689E+02  0.24632445132E+02  0.46700000000E-02 0.  1.
         23    2    1    2    0    0  0.00000000000E+00  0.00000000000E+00  0.60722195000E+02  0.10998708495E+03  0.91705909788E+02 0.  0.
        -11    1    3    3    0    0  0.44392712715E+02  0.70414976473E+00  0.44103144557E+02  0.62580317426E+02  0.51100000000E-03 0. -1.
         11    1    3    3    0    0 -0.44392712715E+02 -0.70414976473E+00  0.16619050443E+02  0.47406767523E+02  0.51100000000E-03 0.  1.
<mgrwt>
<rscale>  0 0.91705910E+02</rscale>
<asrwt>0</asrwt>
<pdfrwt beam="1">  1        1 0.13131483E-01 0.91705910E+02</pdfrwt>
<pdfrwt beam="2">  1       -1 0.37896070E-02 0.91705910E+02</pdfrwt>
<totfact> 0.10018455E+05</totfact>
</mgrwt>
</event>
<event>
 5    1  0.2718303E+000  0.9267355E+02  0.7818608E-02  0.1296503E+00
         -1   -1    0    0    0  501 -0.00000000000E+00  0.00000000000E+00  0.11012929988E+02  0.11012930978E+02  0.46700000000E-02 0. -1.
          1   -1    0    0  501    0  0.00000000000E+00 -0.00000000000E+00 -0.19496144904E+03  0.19496144910E+03  0.46700000000E-02 0.  1.
         23    2    1    2    0    0  0.00000000000E+00  0.00000000000E+00 -0.18394851905E+03  0.20597438007E+03  0.92673553861E+02 0.  0.
        -11    1    3    3    0    0  0.58026317598E+01  0.45053547378E+02 -0.11229649647E+03  0.12113626949E+03  0.51100000000E-03 0.  1.
         11    1    3    3    0    0 -0.58026317598E+01 -0.45053547378E+02 -0.71652022583E+02  0.84838110582E+02  0.51100000000E-03 0. -1.
<mgrwt>
<rscale>  0 0.92673554E+02</rscale>
<asrwt>0</asrwt>
<pdfrwt beam="2">  1        1 0.29994067E-01 0.92673554E+02</pdfrwt>
<pdfrwt beam="1">  1       -1 0.16942971E-02 0.92673554E+02</pdfrwt>
<totfact> 0.11277763E+05</totfact>
</mgrwt>
</event>
<event>
 5    1  0.2718303E+000  0.8926752E+02  0.7818608E-02  0.1304635E+00
          1   -1    0    0  501    0  0.00000000000E+00  0.00000000000E+00  0.26939798663E+02  0.26939799067E+02  0.46700000000E-02 0. -1.
         -1   -1    0    0    0  501 -0.00000000000E+00 -0.00000000000E+00 -0.73949053843E+02  0.73949053991E+02  0.46700000000E-02 0.  1.
         23    2    1    2    0    0  0.00000000000E+00  0.00000000000E+00 -0.47009255181E+02  0.10088885306E+03  0.89267522642E+02 0.  0.
        -11    1    3    3    0    0  0.75424125379E+01 -0.39698690385E+02 -0.44927489663E+02  0.60426429093E+02  0.51100000000E-03 0.  1.
         11    1    3    3    0    0 -0.75424125379E+01  0.39698690385E+02 -0.20817655176E+01  0.40462423965E+02  0.51100000000E-03 0. -1.
<mgrwt>
<rscale>  0 0.89267523E+02</rscale>
<asrwt>0</asrwt>
<pdfrwt beam="1">  1        1 0.41445845E-02 0.89267523E+02</pdfrwt>
<pdfrwt beam="2">  1       -1 0.11376777E-01 0.89267523E+02</pdfrwt>
<totfact> 0.90525810E+04</totfact>
</mgrwt>
</event>
<event>
 5    1  0.2718303E+000  0.9131065E+02  0.7818608E-02  0.1299708E+00
         -1   -1    0    0    0  501 -0.00000000000E+00  0.00000000000E+00  0.40100274466E+02  0.40100274737E+02  0.46700000000E-02 0.  1.
          1   -1    0    0  501    0  0.00000000000E+00 -0.00000000000E+00 -0.51979906055E+02  0.51979906264E+02  0.46700000000E-02 0. -1.
         23    2    1    2    0    0  0.00000000000E+00  0.00000000000E+00 -0.11879631589E+02  0.92080181002E+02  0.91310646075E+02 0.  0.
        -11    1    3    3    0    0 -0.38182624979E+02  0.16365662667E+00  0.19300483615E+02  0.42783738755E+02  0.51100000000E-03 0.  1.
         11    1    3    3    0    0  0.38182624979E+02 -0.16365662667E+00 -0.31180115205E+02  0.49296442247E+02  0.51100000000E-03 0. -1.
<mgrwt>
<rscale>  0 0.91310646E+02</rscale>
<asrwt>0</asrwt>
<pdfrwt beam="2">  1        1 0.79969087E-02 0.91310646E+02</pdfrwt>
<pdfrwt beam="1">  1       -1 0.61692730E-02 0.91310646E+02</pdfrwt>
<totfact> 0.93926521E+04</totfact>
</mgrwt>
</event>
<event>
 5    1  0.2718303E+000  0.8711175E+02  0.7818608E-02  0.1310001E+00
         -1   -1    0    0    0  501 -0.00000000000E+00  0.00000000000E+00  0.21279043706E+02  0.21279044218E+02  0.46700000000E-02 0.  1.
          1   -1    0    0  501    0  0.00000000000E+00 -0.00000000000E+00 -0.89154102132E+02  0.89154102255E+02  0.46700000000E-02 0. -1.
         23    2    1    2    0    0  0.00000000000E+00  0.00000000000E+00 -0.67875058426E+02  0.11043314647E+03  0.87111745956E+02 0.  0.
        -11    1    3    3    0    0 -0.35107534812E+02  0.25778378087E+02 -0.33653228595E+02  0.55041834748E+02  0.51100000000E-03 0. -1.
         11    1    3    3    0    0  0.35107534812E+02 -0.25778378087E+02 -0.34221829832E+02  0.55391311725E+02  0.51100000000E-03 0.  1.
<mgrwt>
<rscale>  0 0.87111746E+02</rscale>
<asrwt>0</asrwt>
<pdfrwt beam="2">  1        1 0.13716016E-01 0.87111746E+02</pdfrwt>
<pdfrwt beam="1">  1       -1 0.32736991E-02 0.87111746E+02</pdfrwt>
<totfact> 0.11606806E+05</totfact>
</mgrwt>
</event>
<event>
 5    1  0.2718303E+000  0.9049579E+02  0.7818608E-02  0.1301655E+00
          1   -1    0    0  501    0  0.00000000000E+00  0.00000000000E+00  0.11909870496E+03  0.11909870505E+03  0.46700000000E-02 0. -1.
         -1   -1    0    0    0  501 -0.00000000000E+00 -0.00000000000E+00 -0.17190549073E+02  0.17190549707E+02  0.46700000000E-02 0.  1.
         23    2    1    2    0    0  0.00000000000E+00  0.00000000000E+00  0.10190815588E+03  0.13628925475E+03  0.90495793968E+02 0.  0.
        -11    1    3    3    0    0 -0.20413030608E+02  0.18574858001E+02 -0.30461316961E+01  0.27766816291E+02  0.51100000000E-03 0.  1.
         11    1    3    3    0    0  0.20413030608E+02 -0.18574858001E+02  0.10495428758E+03  0.10852243846E+03  0.51100000000E-03 0. -1.
<mgrwt>
<rscale>  0 0.90495794E+02</rscale>
<asrwt>0</asrwt>
<pdfrwt beam="1">  1        1 0.18322878E-01 0.90495794E+02</pdfrwt>
<pdfrwt beam="2">  1       -1 0.26446999E-02 0.90495794E+02</pdfrwt>
<totfact> 0.10980637E+05</totfact>
</mgrwt>
</event>
<event>
 5    1  0.2718303E+000  0.7840163E+02  0.7818608E-02  0.1333650E+00
          1   -1    0    0  501    0  0.00000000000E+00  0.00000000000E+00  0.50602437851E+02  0.50602438066E+02  0.46700000000E-02 0. -1.
         -1   -1    0    0    0  501 -0.00000000000E+00 -0.00000000000E+00 -0.30368175660E+02  0.30368176019E+02  0.46700000000E-02 0.  1.
         23    2    1    2    0    0  0.00000000000E+00  0.00000000000E+00  0.20234262191E+02  0.80970614085E+02  0.78401626124E+02 0.  0.
        -11    1    3    3    0    0 -0.65295195528E+01  0.16685706293E+02  0.46125858197E+02  0.49483757080E+02  0.51100000000E-03 0. -1.
         11    1    3    3    0    0  0.65295195528E+01 -0.16685706293E+02 -0.25891596006E+02  0.31486857005E+02  0.51100000000E-03 0.  1.
<mgrwt>
<rscale>  0 0.78401626E+02</rscale>
<asrwt>0</asrwt>
<pdfrwt beam="1">  1        1 0.77849904E-02 0.78401626E+02</pdfrwt>
<pdfrwt beam="2">  1       -1 0.46720271E-02 0.78401626E+02</pdfrwt>
<totfact> 0.14247209E+05</totfact>
</mgrwt>
</event>
<event>
 5    1  0.2718303E+000  0.9110672E+02  0.7818608E-02  0.1300194E+00
          1   -1    0    0  501    0  0.00000000000E+00  0.00000000000E+00  0.18994540593E+03  0.18994540599E+03  0.46700000000E-02 0. -1.
         -1   -1    0    0    0  501 -0.00000000000E+00 -0.00000000000E+00 -0.10924763124E+02  0.10924764123E+02  0.46700000000E-02 0.  1.
         23    2    1    2    0    0  0.00000000000E+00  0.00000000000E+00  0.17902064281E+03  0.20087017011E+03  0.91106721429E+02 0.  0.
        -11    1    3    3    0    0 -0.12721978661E+02 -0.43220288832E+02  0.10434416842E+03  0.11365538963E+03  0.51100000000E-03 0. -1.
         11    1    3    3    0    0  0.12721978661E+02  0.43220288832E+02  0.74676474384E+02  0.87214780481E+02  0.51100000000E-03 0.  1.
<mgrwt>
<rscale>  0 0.91106721E+02</rscale>
<asrwt>0</asrwt>
<pdfrwt beam="1">  1        1 0.29222369E-01 0.91106721E+02</pdfrwt>
<pdfrwt beam="2">  1       -1 0.16807329E-02 0.91106721E+02</pdfrwt>
<totfact> 0.11747332E+05</totfact>
</mgrwt>
</event>
<event>
 5    1  0.2718303E+000  0.8844053E+02  0.7818608E-02  0.1306673E+00
          1   -1    0    0  501    0  0.00000000000E+00  0.00000000000E+00  0.83472217856E+02  0.83472217987E+02  0.46700000000E-02 0. -1.
         -1   -1    0    0    0  501 -0.00000000000E+00 -0.00000000000E+00 -0.23426136893E+02  0.23426137358E+02  0.46700000000E-02 0.  1.
         23    2    1    2    0    0  0.00000000000E+00  0.00000000000E+00  0.60046080963E+02  0.10689835535E+03  0.88440525420E+02 0.  0.
        -11    1    3    3    0    0 -0.32444845657E+01  0.36718209504E+02  0.49805189443E+00  0.36864639497E+02  0.51100000000E-03 0.  1.
         11    1    3    3    0    0  0.32444845657E+01 -0.36718209504E+02  0.59548029069E+02  0.70033715848E+02  0.51100000000E-03 0. -1.
<mgrwt>
<rscale>  0 0.88440525E+02</rscale>
<asrwt>0</asrwt>
<pdfrwt beam="1">  1        1 0.12841880E-01 0.88440525E+02</pdfrwt>
<pdfrwt beam="2">  1       -1 0.36040210E-02 0.88440525E+02</pdfrwt>
<totfact> 0.11023327E+05</totfact>
</mgrwt>
</event>
<event>
 5    1  0.2718303E+000  0.8690530E+02  0.7818608E-02  0.1310524E+00
         -1   -1    0    0    0  501 -0.00000000000E+00  0.00000000000E+00  0.76966898555E+02  0.76966898696E+02  0.46700000000E-02 0.  1.
          1   -1    0    0  501    0  0.00000000000E+00 -0.00000000000E+00 -0.24531752995E+02  0.24531753439E+02  0.46700000000E-02 0. -1.
         23    2    1    2    0    0  0.00000000000E+00  0.00000000000E+00  0.52435145560E+02  0.10149865214E+03  0.86905304185E+02 0.  0.
        -11    1    3    3    0    0 -0.53194750002E+01 -0.30680708517E+02  0.61614106170E+02  0.69035503682E+02  0.51100000000E-03 0.  1.
         11    1    3    3    0    0  0.53194750002E+01  0.30680708517E+02 -0.91789606097E+01  0.32463148453E+02  0.51100000000E-03 0. -1.
<mgrwt>
<rscale>  0 0.86905304E+02</rscale>
<asrwt>0</asrwt>
<pdfrwt beam="2">  1        1 0.37741159E-02 0.86905304E+02</pdfrwt>
<pdfrwt beam="1">  1       -1 0.11841061E-01 0.86905304E+02</pdfrwt>
<totfact> 0.96306447E+04</totfact>
</mgrwt>
</event>
<event>
 5    1  0.2718303E+000  0.9628658E+02  0.7818608E-02  0.1288304E+00
         -1   -1    0    0    0  501 -0.00000000000E+00  0.00000000000E+00  0.23509672680E+03  0.23509672685E+03  0.46700000000E-02 0.  1.
          1   -1    0    0  501    0  0.00000000000E+00 -0.00000000000E+00 -0.98588189666E+01  0.98588200726E+01  0.46700000000E-02 0. -1.
         23    2    1    2    0    0  0.00000000000E+00  0.00000000000E+00  0.22523790783E+03  0.24495554692E+03  0.96286576641E+02 0.  0.
        -11    1    3    3    0    0  0.27379844708E+02  0.39597607366E+02  0.11163429852E+03  0.12157237767E+03  0.51100000000E-03 0. -1.
         11    1    3    3    0    0 -0.27379844708E+02 -0.39597607366E+02  0.11360360931E+03  0.12338316925E+03  0.51100000000E-03 0.  1.
<mgrwt>
<rscale>  0 0.96286577E+02</rscale>
<asrwt>0</asrwt>
<pdfrwt beam="2">  1        1 0.15167415E-02 0.96286577E+02</pdfrwt>
<pdfrwt beam="1">  1       -1 0.36168726E-01 0.96286577E+02</pdfrwt>
<totfact> 0.57308965E+04</totfact>
</mgrwt>
</event>
<event>
 5    1  0.2718303E+000  0.9108991E+02  0.7818608E-02  0.1300234E+00
         -1   -1    0    0    0  501 -0.00000000000E+00  0.00000000000E+00  0.15533374567E+03  0.15533374574E+03  0.46700000000E-02 0.  1.
          1   -1    0    0  501    0  0.00000000000E+00 -0.00000000000E+00 -0.13354102064E+02  0.13354102880E+02  0.46700000000E-02 0. -1.
         23    2    1    2    0    0  0.00000000000E+00  0.00000000000E+00  0.14197964360E+03  0.16868784862E+03  0.91089906539E+02 0.  0.
        -11    1    3    3    0    0 -0.38766354714E+02  0.13762675560E+02  0.10718933952E+03  0.11481200287E+03  0.51100000000E-03 0.  1.
         11    1    3    3    0    0  0.38766354714E+02 -0.13762675560E+02  0.34790304084E+02  0.53875845746E+02  0.51100000000E-03 0. -1.
<mgrwt>
<rscale>  0 0.91089907E+02</rscale>
<asrwt>0</asrwt>
<pdfrwt beam="2">  1        1 0.20544772E-02 0.91089907E+02</pdfrwt>
<pdfrwt beam="1">  1       -1 0.23897501E-01 0.91089907E+02</pdfrwt>
<totfact> 0.74356424E+04</totfact>
</mgrwt>
</event>
<event>
 5    1  0.2718303E+000  0.8518204E+02  0.7818608E-02  0.1314957E+00
          1   -1    0    0  501    0  0.00000000000E+00  0.00000000000E+00  0.25670110147E+03  0.25670110151E+03  0.46700000000E-02 0. -1.
         -1   -1    0    0    0  501 -0.00000000000E+00 -0.00000000000E+00 -0.70665634903E+01  0.70665650334E+01  0.46700000000E-02 0.  1.
         23    2    1    2    0    0  0.00000000000E+00  0.00000000000E+00  0.24963453798E+03  0.26376766654E+03  0.85182036619E+02 0.  0.
        -11    1    3    3    0    0  0.17134336238E+02  0.32646059699E+02  0.19084241049E+03  0.19437123330E+03  0.51100000000E-03 0. -1.
         11    1    3    3    0    0 -0.17134336238E+02 -0.32646059699E+02  0.58792127482E+02  0.69396433239E+02  0.51100000000E-03 0.  1.
<mgrwt>
<rscale>  0 0.85182037E+02</rscale>
<asrwt>0</asrwt>
<pdfrwt beam="1">  1        1 0.39492482E-01 0.85182037E+02</pdfrwt>
<pdfrwt beam="2">  1       -1 0.10871636E-02 0.85182037E+02</pdfrwt>
<totfact> 0.14895387E+05</totfact>
</mgrwt>
</event>
<event>
 5    1  0.2718303E+000  0.9205060E+02  0.7818608E-02  0.1297960E+00
          1   -1    0    0  501    0  0.00000000000E+00  0.00000000000E+00  0.66236874162E+02  0.66236874326E+02  0.46700000000E-02 0. -1.
         -1   -1    0    0    0  501 -0.00000000000E+00 -0.00000000000E+00 -0.31981102574E+02  0.31981102915E+02  0.46700000000E-02 0.  1.
         23    2    1    2    0    0  0.00000000000E+00  0.00000000000E+00  0.34255771588E+02  0.98217977241E+02  0.92050601118E+02 0.  0.
        -11    1    3    3    0    0 -0.19014624757E+02 -0.92266524873E+00 -0.27583367781E+02  0.33514913758E+02  0.51100000000E-03 0.  1.
         11    1    3    3    0    0  0.19014624757E+02  0.92266524873E+00  0.61839139369E+02  0.64703063482E+02  0.51100000000E-03 0. -1.
<mgrwt>
<rscale>  0 0.92050601E+02</rscale>
<asrwt>0</asrwt>
<pdfrwt beam="1">  1        1 0.10190288E-01 0.92050601E+02</pdfrwt>
<pdfrwt beam="2">  1       -1 0.49201697E-02 0.92050601E+02</pdfrwt>
<totfact> 0.95283469E+04</totfact>
</mgrwt>
</event>
<event>
 5    1  0.2718303E+000  0.9180871E+02  0.7818608E-02  0.1298530E+00
         -1   -1    0    0    0  501 -0.00000000000E+00  0.00000000000E+00  0.10613368185E+02  0.10613369212E+02  0.46700000000E-02 0.  1.
          1   -1    0    0  501    0  0.00000000000E+00 -0.00000000000E+00 -0.19854296158E+03  0.19854296163E+03  0.46700000000E-02 0. -1.
         23    2    1    2    0    0  0.00000000000E+00  0.00000000000E+00 -0.18792959339E+03  0.20915633084E+03  0.91808706885E+02 0.  0.
        -11    1    3    3    0    0  0.30734372398E+02 -0.62894253461E+01 -0.17618687008E+02  0.35980225820E+02  0.51100000000E-03 0.  1.
         11    1    3    3    0    0 -0.30734372398E+02  0.62894253461E+01 -0.17031090638E+03  0.17317610503E+03  0.51100000000E-03 0. -1.
<mgrwt>
<rscale>  0 0.91808707E+02</rscale>
<asrwt>0</asrwt>
<pdfrwt beam="2">  1        1 0.30545068E-01 0.91808707E+02</pdfrwt>
<pdfrwt beam="1">  1       -1 0.16328261E-02 0.91808707E+02</pdfrwt>
<totfact> 0.11606571E+05</totfact>
</mgrwt>
</event>
<event>
 5    1  0.2718303E+000  0.9126846E+02  0.7818608E-02  0.1299809E+00
         -1   -1    0    0    0  501 -0.00000000000E+00  0.00000000000E+00  0.28094580069E+02  0.28094580457E+02  0.46700000000E-02 0.  1.
          1   -1    0    0  501    0  0.00000000000E+00 -0.00000000000E+00 -0.74124012711E+02  0.74124012858E+02  0.46700000000E-02 0. -1.
         23    2    1    2    0    0  0.00000000000E+00  0.00000000000E+00 -0.46029432642E+02  0.10221859332E+03  0.91268461969E+02 0.  0.
        -11    1    3    3    0    0 -0.89109561935E+01  0.90762885847E+01  0.26069155123E+02  0.29006637238E+02  0.51100000000E-03 0.  1.
         11    1    3    3    0    0  0.89109561935E+01 -0.90762885847E+01 -0.72098587765E+02  0.73211956078E+02  0.51100000000E-03 0. -1.
<mgrwt>
<rscale>  0 0.91268462E+02</rscale>
<asrwt>0</asrwt>
<pdfrwt beam="2">  1        1 0.11403694E-01 0.91268462E+02</pdfrwt>
<pdfrwt beam="1">  1       -1 0.43222432E-02 0.91268462E+02</pdfrwt>
<totfact> 0.99271597E+04</totfact>
</mgrwt>
</event>
<event>
 5    1  0.2718303E+000  0.8928165E+02  0.7818608E-02  0.1304601E+00
          1   -1    0    0  501    0  0.00000000000E+00  0.00000000000E+00  0.14838884293E+03  0.14838884301E+03  0.46700000000E-02 0.  1.
         -1   -1    0    0    0  501 -0.00000000000E+00 -0.00000000000E+00 -0.13429602295E+02  0.13429603107E+02  0.46700000000E-02 0. -1.
         23    2    1    2    0    0  0.00000000000E+00  0.00000000000E+00  0.13495924064E+03  0.16181844611E+03  0.89281649118E+02 0.  0.
        -11    1    3    3    0    0  0.90325342431E+01  0.23209463874E+02  0.13462681998E+03  0.13691108993E+03  0.51100000000E-03 0.  1.
         11    1    3    3    0    0 -0.90325342431E+01 -0.23209463874E+02  0.33242065707E+00  0.24907356181E+02  0.51100000000E-03 0. -1.
<mgrwt>
<rscale>  0 0.89281649E+02</rscale>
<asrwt>0</asrwt>
<pdfrwt beam="1">  1        1 0.22829052E-01 0.89281649E+02</pdfrwt>
<pdfrwt beam="2">  1       -1 0.20660928E-02 0.89281649E+02</pdfrwt>
<totfact> 0.11842381E+05</totfact>
</mgrwt>
</event>
<event>
 5    1  0.2718303E+000  0.9442015E+02  0.7818608E-02  0.1292487E+00
         -1   -1    0    0    0  501 -0.00000000000E+00  0.00000000000E+00  0.69832423291E+01  0.69832438906E+01  0.46700000000E-02 0.  1.
          1   -1    0    0  501    0  0.00000000000E+00 -0.00000000000E+00 -0.31916278249E+03  0.31916278252E+03  0.46700000000E-02 0. -1.
         23    2    1    2    0    0  0.00000000000E+00  0.00000000000E+00 -0.31217954016E+03  0.32614602641E+03  0.94420152780E+02 0.  0.
        -11    1    3    3    0    0 -0.19326841478E+02 -0.38460771747E+02 -0.89107372477E+02  0.98958989459E+02  0.51100000000E-03 0. -1.
         11    1    3    3    0    0  0.19326841478E+02  0.38460771747E+02 -0.22307216768E+03  0.22718703695E+03  0.51100000000E-03 0.  1.
<mgrwt>
<rscale>  0 0.94420153E+02</rscale>
<asrwt>0</asrwt>
<pdfrwt beam="2">  1        1 0.49101955E-01 0.94420153E+02</pdfrwt>
<pdfrwt beam="1">  1       -1 0.10743453E-02 0.94420153E+02</pdfrwt>
<totfact> 0.11808336E+05</totfact>
</mgrwt>
</event>
<event>
 5    1  0.2718303E+000  0.8631090E+02  0.7818608E-02  0.1312040E+00
         -1   -1    0    0    0  501 -0.00000000000E+00  0.00000000000E+00  0.79221218520E+02  0.79221218658E+02  0.46700000000E-02 0.  1.
          1   -1    0    0  501    0  0.00000000000E+00 -0.00000000000E+00 -0.23508764087E+02  0.23508764551E+02  0.46700000000E-02 0. -1.
         23    2    1    2    0    0  0.00000000000E+00  0.00000000000E+00  0.55712454433E+02  0.10272998321E+03  0.86310902388E+02 0.  0.
        -11    1    3    3    0    0  0.38161327014E+02  0.13148899174E+02  0.46032612007E+02  0.61222396208E+02  0.51100000000E-03 0. -1.
         11    1    3    3    0    0 -0.38161327014E+02 -0.13148899174E+02  0.96798424260E+01  0.41507587001E+02  0.51100000000E-03 0.  1.
<mgrwt>
<rscale>  0 0.86310902E+02</rscale>
<asrwt>0</asrwt>
<pdfrwt beam="2">  1        1 0.36167330E-02 0.86310902E+02</pdfrwt>
<pdfrwt beam="1">  1       -1 0.12187880E-01 0.86310902E+02</pdfrwt>
<totfact> 0.97546393E+04</totfact>
</mgrwt>
</event>
<event>
 5    1  0.2718303E+000  0.9784693E+02  0.7818608E-02  0.1284890E+00
         -1   -1    0    0    0  501 -0.00000000000E+00  0.00000000000E+00  0.91166823606E+02  0.91166823726E+02  0.46700000000E-02 0.  1.
          1   -1    0    0  501    0  0.00000000000E+00 -0.00000000000E+00 -0.26254126984E+02  0.26254127399E+02  0.46700000000E-02 0. -1.
         23    2    1    2    0    0  0.00000000000E+00  0.00000000000E+00  0.64912696623E+02  0.11742095113E+03  0.97846929335E+02 0.  0.
        -11    1    3    3    0    0  0.47749232061E+02  0.10340325139E+02  0.29374793843E+02  0.57006929403E+02  0.51100000000E-03 0. -1.
         11    1    3    3    0    0 -0.47749232061E+02 -0.10340325139E+02  0.35537902779E+02  0.60414021722E+02  0.51100000000E-03 0.  1.
<mgrwt>
<rscale>  0 0.97846929E+02</rscale>
<asrwt>0</asrwt>
<pdfrwt beam="2">  1        1 0.40390966E-02 0.97846929E+02</pdfrwt>
<pdfrwt beam="1">  1       -1 0.14025665E-01 0.97846929E+02</pdfrwt>
<totfact> 0.69003615E+04</totfact>
</mgrwt>
</event>
<event>
 5    1  0.2718303E+000  0.9118133E+02  0.7818608E-02  0.1300016E+00
          1   -1    0    0  501    0  0.00000000000E+00  0.00000000000E+00  0.30522435175E+03  0.30522435179E+03  0.46700000000E-02 0. -1.
         -1   -1    0    0    0  501 -0.00000000000E+00 -0.00000000000E+00 -0.68097728498E+01  0.68097744510E+01  0.46700000000E-02 0.  1.
         23    2    1    2    0    0  0.00000000000E+00  0.00000000000E+00  0.29841457890E+03  0.31203412624E+03  0.91181330524E+02 0.  0.
        -11    1    3    3    0    0 -0.39438778834E+02 -0.17581061686E+02  0.99146144814E+02  0.10814096836E+03  0.51100000000E-03 0. -1.
         11    1    3    3    0    0  0.39438778834E+02  0.17581061686E+02  0.19926843409E+03  0.20389315788E+03  0.51100000000E-03 0.  1.
<mgrwt>
<rscale>  0 0.91181331E+02</rscale>
<asrwt>0</asrwt>
<pdfrwt beam="1">  1        1 0.46957579E-01 0.91181331E+02</pdfrwt>
<pdfrwt beam="2">  1       -1 0.10476578E-02 0.91181331E+02</pdfrwt>
<totfact> 0.12852629E+05</totfact>
</mgrwt>
</event>
<event>
 5    1  0.2718303E+000  0.9113717E+02  0.7818608E-02  0.1300121E+00
          1   -1    0    0  501    0  0.00000000000E+00  0.00000000000E+00  0.12498217011E+03  0.12498217020E+03  0.46700000000E-02 0. -1.
         -1   -1    0    0    0  501 -0.00000000000E+00 -0.00000000000E+00 -0.16614335224E+02  0.16614335880E+02  0.46700000000E-02 0.  1.
         23    2    1    2    0    0  0.00000000000E+00  0.00000000000E+00  0.10836783489E+03  0.14159650608E+03  0.91137165282E+02 0.  0.
        -11    1    3    3    0    0 -0.10612598213E+02  0.35348654856E+02  0.95708935964E+02  0.10257853121E+03  0.51100000000E-03 0. -1.
         11    1    3    3    0    0  0.10612598213E+02 -0.35348654856E+02  0.12658898925E+02  0.39017974873E+02  0.51100000000E-03 0.  1.
<mgrwt>
<rscale>  0 0.91137165E+02</rscale>
<asrwt>0</asrwt>
<pdfrwt beam="1">  1        1 0.19228027E-01 0.91137165E+02</pdfrwt>
<pdfrwt beam="2">  1       -1 0.25560516E-02 0.91137165E+02</pdfrwt>
<totfact> 0.10863667E+05</totfact>
</mgrwt>
</event>
<event>
 5    1  0.2718303E+000  0.9112624E+02  0.7818608E-02  0.1300147E+00
         -1   -1    0    0    0  501 -0.00000000000E+00  0.00000000000E+00  0.13922978343E+02  0.13922979126E+02  0.46700000000E-02 0.  1.
          1   -1    0    0  501    0  0.00000000000E+00 -0.00000000000E+00 -0.14910587561E+03  0.14910587569E+03  0.46700000000E-02 0. -1.
         23    2    1    2    0    0  0.00000000000E+00  0.00000000000E+00 -0.13518289727E+03  0.16302885481E+03  0.91126240936E+02 0.  0.
        -11    1    3    3    0    0 -0.24898721895E+02 -0.34040878699E+02 -0.98437294886E+02  0.10709168408E+03  0.51100000000E-03 0. -1.
         11    1    3    3    0    0  0.24898721895E+02  0.34040878699E+02 -0.36745602385E+02  0.55937170732E+02  0.51100000000E-03 0.  1.
<mgrwt>
<rscale>  0 0.91126241E+02</rscale>
<asrwt>0</asrwt>
<pdfrwt beam="2">  1        1 0.22939364E-01 0.91126241E+02</pdfrwt>
<pdfrwt beam="1">  1       -1 0.21419968E-02 0.91126241E+02</pdfrwt>
<totfact> 0.11217763E+05</totfact>
</mgrwt>
</event>
<event>
 5    1  0.2718303E+000  0.9773960E+02  0.7818608E-02  0.1285122E+00
         -1   -1    0    0    0  501 -0.00000000000E+00  0.00000000000E+00  0.16889666311E+03  0.16889666318E+03  0.46700000000E-02 0.  1.
          1   -1    0    0  501    0  0.00000000000E+00 -0.00000000000E+00 -0.14140345363E+02  0.14140346134E+02  0.46700000000E-02 0. -1.
         23    2    1    2    0    0  0.00000000000E+00  0.00000000000E+00  0.15475631775E+03  0.18303700931E+03  0.97739597371E+02 0.  0.
        -11    1    3    3    0    0 -0.31152124571E+02  0.37653492172E+02  0.77134813766E+02  0.91312758326E+02  0.51100000000E-03 0.  1.
         11    1    3    3    0    0  0.31152124571E+02 -0.37653492172E+02  0.77621503981E+02  0.91724250984E+02  0.51100000000E-03 0. -1.
<mgrwt>
<rscale>  0 0.97739597E+02</rscale>
<asrwt>0</asrwt>
<pdfrwt beam="2">  1        1 0.21754377E-02 0.97739597E+02</pdfrwt>
<pdfrwt beam="1">  1       -1 0.25984103E-01 0.97739597E+02</pdfrwt>
<totfact> 0.60619216E+04</totfact>
</mgrwt>
</event>
<event>
 5    1  0.2718303E+000  0.9407268E+02  0.7818608E-02  0.1293278E+00
         -1   -1    0    0    0  501 -0.00000000000E+00  0.00000000000E+00  0.19391835898E+03  0.19391835903E+03  0.46700000000E-02 0.  1.
          1   -1    0    0  501    0  0.00000000000E+00 -0.00000000000E+00 -0.11409013144E+02  0.11409014100E+02  0.46700000000E-02 0. -1.
         23    2    1    2    0    0  0.00000000000E+00  0.00000000000E+00  0.18250934583E+03  0.20532737313E+03  0.94072678507E+02 0.  0.
        -11    1    3    3    0    0  0.45966947452E+02 -0.67120446199E+01  0.75155469739E+02  0.88353587551E+02  0.51100000000E-03 0. -1.
         11    1    3    3    0    0 -0.45966947452E+02  0.67120446199E+01  0.10735387609E+03  0.11697378558E+03  0.51100000000E-03 0.  1.
<mgrwt>
<rscale>  0 0.94072679E+02</rscale>
<asrwt>0</asrwt>
<pdfrwt beam="2">  1        1 0.17552329E-02 0.94072679E+02</pdfrwt>
<pdfrwt beam="1">  1       -1 0.29833594E-01 0.94072679E+02</pdfrwt>
<totfact> 0.64547913E+04</totfact>
</mgrwt>
</event>
<event>
 5    1  0.2718303E+000  0.9375969E+02  0.7818608E-02  0.1293994E+00
          1   -1    0    0  501    0  0.00000000000E+00  0.00000000000E+00  0.83719630826E+02  0.83719630956E+02  0.46700000000E-02 0. -1.
         -1   -1    0    0    0  501 -0.00000000000E+00 -0.00000000000E+00 -0.26250947808E+02  0.26250948223E+02  0.46700000000E-02 0.  1.
         23    2    1    2    0    0  0.00000000000E+00  0.00000000000E+00  0.57468683018E+02  0.10997057918E+03  0.93759686205E+02 0.  0.
        -11    1    3    3    0    0  0.40220362660E+02  0.70069925143E+01  0.55760529689E+02  0.69108698353E+02  0.51100000000E-03 0. -1.
         11    1    3    3    0    0 -0.40220362660E+02 -0.70069925143E+01  0.17081533292E+01  0.40861880826E+02  0.51100000000E-03 0.  1.
<mgrwt>
<rscale>  0 0.93759686E+02</rscale>
<asrwt>0</asrwt>
<pdfrwt beam="1">  1        1 0.12879943E-01 0.93759686E+02</pdfrwt>
<pdfrwt beam="2">  1       -1 0.40386074E-02 0.93759686E+02</pdfrwt>
<totfact> 0.93973863E+04</totfact>
</mgrwt>
</event>
<event>
 5    1  0.2718303E+000  0.9138371E+02  0.7818608E-02  0.1299535E+00
          1   -1    0    0  501    0  0.00000000000E+00  0.00000000000E+00  0.34885970412E+02  0.34885970725E+02  0.46700000000E-02 0. -1.
         -1   -1    0    0    0  501 -0.00000000000E+00 -0.00000000000E+00 -0.59844853479E+02  0.59844853661E+02  0.46700000000E-02 0.  1.
         23    2    1    2    0    0  0.00000000000E+00  0.00000000000E+00 -0.24958883066E+02  0.94730824386E+02  0.91383714331E+02 0.  0.
        -11    1    3    3    0    0  0.11514171070E+02 -0.20002990228E+02  0.28399034560E+02  0.36595094175E+02  0.51100000000E-03 0. -1.
         11    1    3    3    0    0 -0.11514171070E+02  0.20002990228E+02 -0.53357917626E+02  0.58135730211E+02  0.51100000000E-03 0.  1.
<mgrwt>
<rscale>  0 0.91383714E+02</rscale>
<asrwt>0</asrwt>
<pdfrwt beam="1">  1        1 0.53670724E-02 0.91383714E+02</pdfrwt>
<pdfrwt beam="2">  1       -1 0.92069006E-02 0.91383714E+02</pdfrwt>
<totfact> 0.88207486E+04</totfact>
</mgrwt>
</event>
<event>
 5    1  0.2718303E+000  0.9226748E+02  0.7818608E-02  0.1297452E+00
          1   -1    0    0  501    0  0.00000000000E+00  0.00000000000E+00  0.13033437006E+03  0.13033437014E+03  0.46700000000E-02 0. -1.
         -1   -1    0    0    0  501 -0.00000000000E+00 -0.00000000000E+00 -0.16329707307E+02  0.16329707975E+02  0.46700000000E-02 0.  1.
         23    2    1    2    0    0  0.00000000000E+00  0.00000000000E+00  0.11400466275E+03  0.14666407811E+03  0.92267484416E+02 0.  0.
        -11    1    3    3    0    0 -0.43742652313E+02  0.14572103590E+02  0.54460867176E+02  0.71356512585E+02  0.51100000000E-03 0.  1.
         11    1    3    3    0    0  0.43742652313E+02 -0.14572103590E+02  0.59543795573E+02  0.75307565529E+02  0.51100000000E-03 0. -1.
<mgrwt>
<rscale>  0 0.92267484E+02</rscale>
<asrwt>0</asrwt>
<pdfrwt beam="1">  1        1 0.20051441E-01 0.92267484E+02</pdfrwt>
<pdfrwt beam="2">  1       -1 0.25122628E-02 0.92267484E+02</pdfrwt>
<totfact> 0.10584945E+05</totfact>
</mgrwt>
</event>
<event>
 5    1  0.2718303E+000  0.9097111E+02  0.7818608E-02  0.1300517E+00
          1   -1    0    0  501    0  0.00000000000E+00  0.00000000000E+00  0.21634751135E+03  0.21634751140E+03  0.46700000000E-02 0. -1.
         -1   -1    0    0    0  501 -0.00000000000E+00 -0.00000000000E+00 -0.95630199883E+01  0.95630211286E+01  0.46700000000E-02 0.  1.
         23    2    1    2    0    0  0.00000000000E+00  0.00000000000E+00  0.20678449136E+03  0.22591053253E+03  0.90971109918E+02 0.  0.
        -11    1    3    3    0    0  0.23310460844E+02 -0.37938913559E+02  0.80336510891E+02  0.91851476467E+02  0.51100000000E-03 0. -1.
         11    1    3    3    0    0 -0.23310460844E+02  0.37938913559E+02  0.12644798047E+03  0.13405905606E+03  0.51100000000E-03 0.  1.
<mgrwt>
<rscale>  0 0.90971110E+02</rscale>
<asrwt>0</asrwt>
<pdfrwt beam="1">  1        1 0.33284230E-01 0.90971110E+02</pdfrwt>
<pdfrwt beam="2">  1       -1 0.14712341E-02 0.90971110E+02</pdfrwt>
<totfact> 0.12095962E+05</totfact>
</mgrwt>
</event>
<event>
 5    1  0.2718303E+000  0.9059823E+02  0.7818608E-02  0.1301409E+00
          1   -1    0    0  501    0  0.00000000000E+00  0.00000000000E+00  0.18719397520E+02  0.18719398102E+02  0.46700000000E-02 0. -1.
         -1   -1    0    0    0  501 -0.00000000000E+00 -0.00000000000E+00 -0.10961944448E+03  0.10961944458E+03  0.46700000000E-02 0.  1.
         23    2    1    2    0    0  0.00000000000E+00  0.00000000000E+00 -0.90900046965E+02  0.12833884269E+03  0.90598234000E+02 0.  0.
        -11    1    3    3    0    0  0.14142958172E+02 -0.32443864141E+02 -0.53988097710E+01  0.35801881703E+02  0.51100000000E-03 0. -1.
         11    1    3    3    0    0 -0.14142958172E+02  0.32443864141E+02 -0.85501237194E+02  0.92536960984E+02  0.51100000000E-03 0.  1.
<mgrwt>
<rscale>  0 0.90598234E+02</rscale>
<asrwt>0</asrwt>
<pdfrwt beam="1">  1        1 0.28799074E-02 0.90598234E+02</pdfrwt>
<pdfrwt beam="2">  1       -1 0.16864530E-01 0.90598234E+02</pdfrwt>
<totfact> 0.81284867E+04</totfact>
</mgrwt>
</event>
<event>
 5    1  0.2718303E+000  0.9120844E+02  0.7818608E-02  0.1299951E+00
          1   -1    0    0  501    0  0.00000000000E+00  0.00000000000E+00  0.15569935303E+03  0.15569935310E+03  0.46700000000E-02 0. -1.
         -1   -1    0    0    0  501 -0.00000000000E+00 -0.00000000000E+00 -0.13357440748E+02  0.13357441564E+02  0.46700000000E-02 0.  1.
         23    2    1    2    0    0  0.00000000000E+00  0.00000000000E+00  0.14234191228E+03  0.16905679466E+03  0.91208441658E+02 0.  0.
        -11    1    3    3    0    0 -0.49199422731E+01  0.33318055768E+02  0.12816323525E+03  0.13251457860E+03  0.51100000000E-03 0. -1.
         11    1    3    3    0    0  0.49199422731E+01 -0.33318055768E+02  0.14178677034E+02  0.36542216063E+02  0.51100000000E-03 0.  1.
<mgrwt>
<rscale>  0 0.91208442E+02</rscale>
<asrwt>0</asrwt>
<pdfrwt beam="1">  1        1 0.23953746E-01 0.91208442E+02</pdfrwt>
<pdfrwt beam="2">  1       -1 0.20549910E-02 0.91208442E+02</pdfrwt>
<totfact> 0.11280167E+05</totfact>
</mgrwt>
</event>
<event>
 5    1  0.2718303E+000  0.9376291E+02  0.7818608E-02  0.1293987E+00
         -1   -1    0    0    0  501 -0.00000000000E+00  0.00000000000E+00  0.21064837731E+03  0.21064837736E+03  0.46700000000E-02 0. -1.
          1   -1    0    0  501    0  0.00000000000E+00 -0.00000000000E+00 -0.10433836125E+02  0.10433837170E+02  0.46700000000E-02 0.  1.
         23    2    1    2    0    0  0.00000000000E+00  0.00000000000E+00  0.20021454118E+03  0.22108221453E+03  0.93762908873E+02 0.  0.
        -11    1    3    3    0    0  0.96618011674E+00  0.34741832770E+02  0.17429424843E+03  0.17772566918E+03  0.51100000000E-03 0. -1.
         11    1    3    3    0    0 -0.96618011674E+00 -0.34741832770E+02  0.25920292751E+02  0.43356545352E+02  0.51100000000E-03 0.  1.
<mgrwt>
<rscale>  0 0.93762909E+02</rscale>
<asrwt>0</asrwt>
<pdfrwt beam="2">  1        1 0.16052055E-02 0.93762909E+02</pdfrwt>
<pdfrwt beam="1">  1       -1 0.32407445E-01 0.93762909E+02</pdfrwt>
<totfact> 0.63566557E+04</totfact>
</mgrwt>
</event>
<event>
 5    1  0.2718303E+000  0.9879147E+02  0.7818608E-02  0.1282858E+00
         -1   -1    0    0    0  501 -0.00000000000E+00  0.00000000000E+00  0.25766486022E+02  0.25766486446E+02  0.46700000000E-02 0.  1.
          1   -1    0    0  501    0  0.00000000000E+00 -0.00000000000E+00 -0.94694268614E+02  0.94694268729E+02  0.46700000000E-02 0. -1.
         23    2    1    2    0    0  0.00000000000E+00  0.00000000000E+00 -0.68927782591E+02  0.12046075517E+03  0.98791468884E+02 0.  0.
        -11    1    3    3    0    0  0.14391343835E+02  0.37417833684E+02  0.72285936326E+00  0.40096478410E+02  0.51100000000E-03 0.  1.
         11    1    3    3    0    0 -0.14391343835E+02 -0.37417833684E+02 -0.69650641955E+02  0.80364276765E+02  0.51100000000E-03 0. -1.
<mgrwt>
<rscale>  0 0.98791469E+02</rscale>
<asrwt>0</asrwt>
<pdfrwt beam="2">  1        1 0.14568349E-01 0.98791469E+02</pdfrwt>
<pdfrwt beam="1">  1       -1 0.39640749E-02 0.98791469E+02</pdfrwt>
<totfact> 0.83045781E+04</totfact>
</mgrwt>
</event>
<event>
 5    1  0.2718303E+000  0.9182368E+02  0.7818608E-02  0.1298495E+00
         -1   -1    0    0    0  501 -0.00000000000E+00  0.00000000000E+00  0.39301612985E+02  0.39301613263E+02  0.46700000000E-02 0.  1.
          1   -1    0    0  501    0  0.00000000000E+00 -0.00000000000E+00 -0.53633854256E+02  0.53633854459E+02  0.46700000000E-02 0. -1.
         23    2    1    2    0    0  0.00000000000E+00  0.00000000000E+00 -0.14332241271E+02  0.92935467722E+02  0.91823678977E+02 0.  0.
        -11    1    3    3    0    0  0.18909625232E+02 -0.23846902692E+02 -0.41957441652E+02  0.51833151598E+02  0.51100000000E-03 0. -1.
         11    1    3    3    0    0 -0.18909625232E+02  0.23846902692E+02  0.27625200381E+02  0.41102316124E+02  0.51100000000E-03 0.  1.
<mgrwt>
<rscale>  0 0.91823679E+02</rscale>
<asrwt>0</asrwt>
<pdfrwt beam="2">  1        1 0.82513623E-02 0.91823679E+02</pdfrwt>
<pdfrwt beam="1">  1       -1 0.60464020E-02 0.91823679E+02</pdfrwt>
<totfact> 0.92905387E+04</totfact>
</mgrwt>
</event>
<event>
 5    1  0.2718303E+000  0.9306597E+02  0.7818608E-02  0.1295592E+00
         -1   -1    0    0    0  501 -0.00000000000E+00  0.00000000000E+00  0.13004051352E+02  0.13004052191E+02  0.46700000000E-02 0.  1.
          1   -1    0    0  501    0  0.00000000000E+00 -0.00000000000E+00 -0.16651107294E+03  0.16651107300E+03  0.46700000000E-02 0. -1.
         23    2    1    2    0    0  0.00000000000E+00  0.00000000000E+00 -0.15350702159E+03  0.17951512519E+03  0.93065968523E+02 0.  0.
        -11    1    3    3    0    0  0.45943824856E+02  0.54472121605E+01 -0.86361584288E+02  0.97973620959E+02  0.51100000000E-03 0. -1.
         11    1    3    3    0    0 -0.45943824856E+02 -0.54472121605E+01 -0.67145437297E+02  0.81541504235E+02  0.51100000000E-03 0.  1.
<mgrwt>
<rscale>  0 0.93065969E+02</rscale>
<asrwt>0</asrwt>
<pdfrwt beam="2">  1        1 0.25617087E-01 0.93065969E+02</pdfrwt>
<pdfrwt beam="1">  1       -1 0.20006235E-02 0.93065969E+02</pdfrwt>
<totfact> 0.10817804E+05</totfact>
</mgrwt>
</event>
<event>
 5    1  0.2718303E+000  0.9273650E+02  0.7818608E-02  0.1296357E+00
         -1   -1    0    0    0  501 -0.00000000000E+00  0.00000000000E+00  0.12841166400E+03  0.12841166408E+03  0.46700000000E-02 0.  1.
          1   -1    0    0  501    0  0.00000000000E+00 -0.00000000000E+00 -0.16743141860E+02  0.16743142511E+02  0.46700000000E-02 0. -1.
         23    2    1    2    0    0  0.00000000000E+00  0.00000000000E+00  0.11166852214E+03  0.14515480659E+03  0.92736503282E+02 0.  0.
        -11    1    3    3    0    0 -0.21458154862E+01  0.30504215755E+02  0.11039139126E+03  0.11454855288E+03  0.51100000000E-03 0.  1.
         11    1    3    3    0    0  0.21458154862E+01 -0.30504215755E+02  0.12771308812E+01  0.30606253715E+02  0.51100000000E-03 0. -1.
<mgrwt>
<rscale>  0 0.92736503E+02</rscale>
<asrwt>0</asrwt>
<pdfrwt beam="2">  1        1 0.25758681E-02 0.92736503E+02</pdfrwt>
<pdfrwt beam="1">  1       -1 0.19755640E-01 0.92736503E+02</pdfrwt>
<totfact> 0.74097750E+04</totfact>
</mgrwt>
</event>
<event>
 5    1  0.2718303E+000  0.9999237E+02  0.7818608E-02  0.1280312E+00
          1   -1    0    0  501    0  0.00000000000E+00  0.00000000000E+00  0.18761879483E+03  0.18761879489E+03  0.46700000000E-02 0. -1.
         -1   -1    0    0    0  501 -0.00000000000E+00 -0.00000000000E+00 -0.13322858251E+02  0.13322859070E+02  0.46700000000E-02 0.  1.
         23    2    1    2    0    0  0.00000000000E+00  0.00000000000E+00  0.17429593658E+03  0.20094165396E+03  0.99992373647E+02 0.  0.
        -11    1    3    3    0    0 -0.29238930650E+01 -0.47483100233E+02  0.11804733319E+03  0.12727280476E+03  0.51100000000E-03 0. -1.
         11    1    3    3    0    0  0.29238930650E+01  0.47483100233E+02  0.56248603387E+02  0.73668849195E+02  0.51100000000E-03 0.  1.
<mgrwt>
<rscale>  0 0.99992374E+02</rscale>
<asrwt>0</asrwt>
<pdfrwt beam="1">  1        1 0.28864429E-01 0.99992374E+02</pdfrwt>
<pdfrwt beam="2">  1       -1 0.20496706E-02 0.99992374E+02</pdfrwt>
<totfact> 0.91152281E+04</totfact>
</mgrwt>
</event>
<event>
 5    1  0.2718303E+000  0.9114413E+02  0.7818608E-02  0.1300104E+00
         -1   -1    0    0    0  501 -0.00000000000E+00  0.00000000000E+00  0.10539110276E+03  0.10539110287E+03  0.46700000000E-02 0.  1.
          1   -1    0    0  501    0  0.00000000000E+00 -0.00000000000E+00 -0.19705770233E+02  0.19705770786E+02  0.46700000000E-02 0. -1.
         23    2    1    2    0    0  0.00000000000E+00  0.00000000000E+00  0.85685332532E+02  0.12509687365E+03  0.91144125355E+02 0.  0.
        -11    1    3    3    0    0  0.12794868916E+02  0.34502913424E+02  0.79738959476E+02  0.87820620380E+02  0.51100000000E-03 0.  1.
         11    1    3    3    0    0 -0.12794868916E+02 -0.34502913424E+02  0.59463730556E+01  0.37276253274E+02  0.51100000000E-03 0. -1.
<mgrwt>
<rscale>  0 0.91144125E+02</rscale>
<asrwt>0</asrwt>
<pdfrwt beam="2">  1        1 0.30316569E-02 0.91144125E+02</pdfrwt>
<pdfrwt beam="1">  1       -1 0.16214016E-01 0.91144125E+02</pdfrwt>
<totfact> 0.80644468E+04</totfact>
</mgrwt>
</event>
<event>
 5    1  0.2718303E+000  0.9107905E+02  0.7818608E-02  0.1300259E+00
          1   -1    0    0  501    0  0.00000000000E+00  0.00000000000E+00  0.92110359687E+01  0.92110371525E+01  0.46700000000E-02 0. -1.
         -1   -1    0    0    0  501 -0.00000000000E+00 -0.00000000000E+00 -0.22514819125E+03  0.22514819130E+03  0.46700000000E-02 0.  1.
         23    2    1    2    0    0  0.00000000000E+00  0.00000000000E+00 -0.21593715528E+03  0.23435922845E+03  0.91079047695E+02 0.  0.
        -11    1    3    3    0    0  0.37054206793E+02  0.21452055217E+02 -0.14788489638E+03  0.15395826542E+03  0.51100000000E-03 0.  1.
         11    1    3    3    0    0 -0.37054206793E+02 -0.21452055217E+02 -0.68052258896E+02  0.80400963024E+02  0.51100000000E-03 0. -1.
<mgrwt>
<rscale>  0 0.91079048E+02</rscale>
<asrwt>0</asrwt>
<pdfrwt beam="1">  1        1 0.14170827E-02 0.91079048E+02</pdfrwt>
<pdfrwt beam="2">  1       -1 0.34638179E-01 0.91079048E+02</pdfrwt>
<totfact> 0.67197522E+04</totfact>
</mgrwt>
</event>
<event>
 5    1  0.2718303E+000  0.9042265E+02  0.7818608E-02  0.1301831E+00
         -1   -1    0    0    0  501 -0.00000000000E+00  0.00000000000E+00  0.76686387415E+01  0.76686401635E+01  0.46700000000E-02 0.  1.
          1   -1    0    0  501    0  0.00000000000E+00 -0.00000000000E+00 -0.26654845188E+03  0.26654845192E+03  0.46700000000E-02 0. -1.
         23    2    1    2    0    0  0.00000000000E+00  0.00000000000E+00 -0.25887981314E+03  0.27421709209E+03  0.90422651701E+02 0.  0.
        -11    1    3    3    0    0 -0.41065597767E+02 -0.57849970465E+01 -0.18404504117E+03  0.18865955235E+03  0.51100000000E-03 0. -1.
         11    1    3    3    0    0  0.41065597767E+02  0.57849970465E+01 -0.74834771968E+02  0.85557539741E+02  0.51100000000E-03 0.  1.
<mgrwt>
<rscale>  0 0.90422652E+02</rscale>
<asrwt>0</asrwt>
<pdfrwt beam="2">  1        1 0.41007447E-01 0.90422652E+02</pdfrwt>
<pdfrwt beam="1">  1       -1 0.11797909E-02 0.90422652E+02</pdfrwt>
<totfact> 0.12803214E+05</totfact>
</mgrwt>
</event>
<event>
 5    1  0.2718303E+000  0.9291452E+02  0.7818608E-02  0.1295943E+00
         -1   -1    0    0    0  501 -0.00000000000E+00  0.00000000000E+00  0.14733486277E+03  0.14733486284E+03  0.46700000000E-02 0.  1.
          1   -1    0    0  501    0  0.00000000000E+00 -0.00000000000E+00 -0.14648785069E+02  0.14648785813E+02  0.46700000000E-02 0. -1.
         23    2    1    2    0    0  0.00000000000E+00  0.00000000000E+00  0.13268607770E+03  0.16198364866E+03  0.92914515640E+02 0.  0.
        -11    1    3    3    0    0  0.15718806679E+02 -0.16458156334E+02  0.13695081988E+03  0.13882895541E+03  0.51100000000E-03 0.  1.
         11    1    3    3    0    0 -0.15718806679E+02  0.16458156334E+02 -0.42647421803E+01  0.23154693249E+02  0.51100000000E-03 0. -1.
<mgrwt>
<rscale>  0 0.92914516E+02</rscale>
<asrwt>0</asrwt>
<pdfrwt beam="2">  1        1 0.22536595E-02 0.92914516E+02</pdfrwt>
<pdfrwt beam="1">  1       -1 0.22666901E-01 0.92914516E+02</pdfrwt>
<totfact> 0.71506252E+04</totfact>
</mgrwt>
</event>
<event>
 5    1  0.2718303E+000  0.9134597E+02  0.7818608E-02  0.1299625E+00
          1   -1    0    0  501    0  0.00000000000E+00  0.00000000000E+00  0.83301527423E+02  0.83301527554E+02  0.46700000000E-02 0. -1.
         -1   -1    0    0    0  501 -0.00000000000E+00 -0.00000000000E+00 -0.25041818713E+02  0.25041819149E+02  0.46700000000E-02 0.  1.
         23    2    1    2    0    0  0.00000000000E+00  0.00000000000E+00  0.58259708710E+02  0.10834334670E+03  0.91345974820E+02 0.  0.
        -11    1    3    3    0    0 -0.42304962850E+02  0.70224289670E+01  0.10489291901E+02  0.44148042258E+02  0.51100000000E-03 0.  1.
         11    1    3    3    0    0  0.42304962850E+02 -0.70224289670E+01  0.47770416809E+02  0.64195304445E+02  0.51100000000E-03 0. -1.
<mgrwt>
<rscale>  0 0.91345975E+02</rscale>
<asrwt>0</asrwt>
<pdfrwt beam="1">  1        1 0.12815620E-01 0.91345975E+02</pdfrwt>
<pdfrwt beam="2">  1       -1 0.38525875E-02 0.91345975E+02</pdfrwt>
<totfact> 0.10087762E+05</totfact>
</mgrwt>
</event>
<event>
 5    1  0.2718303E+000  0.8264586E+02  0.7818608E-02  0.1321706E+00
          1   -1    0    0  501    0  0.00000000000E+00  0.00000000000E+00  0.28269049319E+03  0.28269049323E+03  0.46700000000E-02 0. -1.
         -1   -1    0    0    0  501 -0.00000000000E+00 -0.00000000000E+00 -0.60404728262E+01  0.60404746315E+01  0.46700000000E-02 0.  1.
         23    2    1    2    0    0  0.00000000000E+00  0.00000000000E+00  0.27665002037E+03  0.28873096786E+03  0.82645859147E+02 0.  0.
        -11    1    3    3    0    0 -0.40201277087E+01  0.40374705751E+02  0.11097077813E+03  0.11815579499E+03  0.51100000000E-03 0.  1.
         11    1    3    3    0    0  0.40201277087E+01 -0.40374705751E+02  0.16567924224E+03  0.17057517287E+03  0.51100000000E-03 0. -1.
<mgrwt>
<rscale>  0 0.82645859E+02</rscale>
<asrwt>0</asrwt>
<pdfrwt beam="1">  1        1 0.43490854E-01 0.82645859E+02</pdfrwt>
<pdfrwt beam="2">  1       -1 0.92930347E-03 0.82645859E+02</pdfrwt>
<totfact> 0.16436385E+05</totfact>
</mgrwt>
</event>
<event>
 5    1  0.2718303E+000  0.8913875E+02  0.7818608E-02  0.1304951E+00
          1   -1    0    0  501    0  0.00000000000E+00  0.00000000000E+00  0.86931176540E+01  0.86931189084E+01  0.46700000000E-02 0. -1.
         -1   -1    0    0    0  501 -0.00000000000E+00 -0.00000000000E+00 -0.22850596209E+03  0.22850596214E+03  0.46700000000E-02 0.  1.
         23    2    1    2    0    0  0.00000000000E+00  0.00000000000E+00 -0.21981284444E+03  0.23719908105E+03  0.89138754031E+02 0.  0.
        -11    1    3    3    0    0 -0.98459888399E+01  0.40076124016E+02 -0.15470237954E+03  0.16011204030E+03  0.51100000000E-03 0.  1.
         11    1    3    3    0    0  0.98459888399E+01 -0.40076124016E+02 -0.65110464901E+02  0.77087040755E+02  0.51100000000E-03 0. -1.
<mgrwt>
<rscale>  0 0.89138754E+02</rscale>
<asrwt>0</asrwt>
<pdfrwt beam="1">  1        1 0.13374030E-02 0.89138754E+02</pdfrwt>
<pdfrwt beam="2">  1       -1 0.35154759E-01 0.89138754E+02</pdfrwt>
<totfact> 0.70745169E+04</totfact>
</mgrwt>
</event>
<event>
 5    1  0.2718303E+000  0.9007293E+02  0.7818608E-02  0.1302675E+00
          1   -1    0    0  501    0  0.00000000000E+00  0.00000000000E+00  0.15796415520E+03  0.15796415527E+03  0.46700000000E-02 0. -1.
         -1   -1    0    0    0  501 -0.00000000000E+00 -0.00000000000E+00 -0.12840148993E+02  0.12840149843E+02  0.46700000000E-02 0.  1.
         23    2    1    2    0    0  0.00000000000E+00  0.00000000000E+00  0.14512400621E+03  0.17080430511E+03  0.90072934156E+02 0.  0.
        -11    1    3    3    0    0 -0.36926220001E+02  0.46475161106E+01  0.12065221249E+03  0.12626203510E+03  0.51100000000E-03 0.  1.
         11    1    3    3    0    0  0.36926220001E+02 -0.46475161106E+01  0.24471793718E+02  0.44542270009E+02  0.51100000000E-03 0. -1.
<mgrwt>
<rscale>  0 0.90072934E+02</rscale>
<asrwt>0</asrwt>
<pdfrwt beam="1">  1        1 0.24302176E-01 0.90072934E+02</pdfrwt>
<pdfrwt beam="2">  1       -1 0.19754078E-02 0.90072934E+02</pdfrwt>
<totfact> 0.11698243E+05</totfact>
</mgrwt>
</event>
<event>
 5    1  0.2718303E+000  0.9304651E+02  0.7818608E-02  0.1295637E+00
         -1   -1    0    0    0  501 -0.00000000000E+00  0.00000000000E+00  0.67987202109E+01  0.67987218148E+01  0.46700000000E-02 0.  1.
          1   -1    0    0  501    0  0.00000000000E+00 -0.00000000000E+00 -0.31835596895E+03  0.31835596898E+03  0.46700000000E-02 0. -1.
         23    2    1    2    0    0  0.00000000000E+00  0.00000000000E+00 -0.31155724874E+03  0.32515469080E+03  0.93046513673E+02 0.  0.
        -11    1    3    3    0    0  0.42214356779E+02  0.15716417171E+02 -0.19643496218E+03  0.20153350107E+03  0.51100000000E-03 0. -1.
         11    1    3    3    0    0 -0.42214356779E+02 -0.15716417171E+02 -0.11512228656E+03  0.12362118973E+03  0.51100000000E-03 0.  1.
<mgrwt>
<rscale>  0 0.93046514E+02</rscale>
<asrwt>0</asrwt>
<pdfrwt beam="2">  1        1 0.48977830E-01 0.93046514E+02</pdfrwt>
<pdfrwt beam="1">  1       -1 0.10459573E-02 0.93046514E+02</pdfrwt>
<totfact> 0.12273946E+05</totfact>
</mgrwt>
</event>
<event>
 5    1  0.2718303E+000  0.9013106E+02  0.7818608E-02  0.1302535E+00
          1   -1    0    0  501    0  0.00000000000E+00  0.00000000000E+00  0.31484008182E+03  0.31484008185E+03  0.46700000000E-02 0. -1.
         -1   -1    0    0    0  501 -0.00000000000E+00 -0.00000000000E+00 -0.64505817054E+01  0.64505833959E+01  0.46700000000E-02 0.  1.
         23    2    1    2    0    0  0.00000000000E+00  0.00000000000E+00  0.30838950011E+03  0.32129066525E+03  0.90131058998E+02 0.  0.
        -11    1    3    3    0    0  0.30069741720E+02 -0.32779940434E+02  0.17994665270E+03  0.18536318858E+03  0.51100000000E-03 0. -1.
         11    1    3    3    0    0 -0.30069741720E+02  0.32779940434E+02  0.12844284740E+03  0.13592747666E+03  0.51100000000E-03 0.  1.
<mgrwt>
<rscale>  0 0.90131059E+02</rscale>
<asrwt>0</asrwt>
<pdfrwt beam="1">  1        1 0.48436951E-01 0.90131059E+02</pdfrwt>
<pdfrwt beam="2">  1       -1 0.99239701E-03 0.90131059E+02</pdfrwt>
<totfact> 0.13332684E+05</totfact>
</mgrwt>
</event>
<event>
 5    1  0.2718303E+000  0.8865261E+02  0.7818608E-02  0.1306148E+00
         -1   -1    0    0    0  501 -0.00000000000E+00  0.00000000000E+00  0.15313537187E+02  0.15313537899E+02  0.46700000000E-02 0.  1.
          1   -1    0    0  501    0  0.00000000000E+00 -0.00000000000E+00 -0.12830616808E+03  0.12830616817E+03  0.46700000000E-02 0. -1.
         23    2    1    2    0    0  0.00000000000E+00  0.00000000000E+00 -0.11299263089E+03  0.14361970607E+03  0.88652610418E+02 0.  0.
        -11    1    3    3    0    0 -0.88922878520E+01  0.21102996190E+02  0.49882186045E+01  0.23436969867E+02  0.51100000000E-03 0.  1.
         11    1    3    3    0    0  0.88922878520E+01 -0.21102996190E+02 -0.11798084950E+03  0.12018273620E+03  0.51100000000E-03 0. -1.
<mgrwt>
<rscale>  0 0.88652610E+02</rscale>
<asrwt>0</asrwt>
<pdfrwt beam="2">  1        1 0.19739410E-01 0.88652610E+02</pdfrwt>
<pdfrwt beam="1">  1       -1 0.23559289E-02 0.88652610E+02</pdfrwt>
<totfact> 0.11760094E+05</totfact>
</mgrwt>
</event>
<event>
 5    1  0.2718303E+000  0.8979755E+02  0.7818608E-02  0.1303343E+00
         -1   -1    0    0    0  501 -0.00000000000E+00  0.00000000000E+00  0.21064087063E+02  0.21064087581E+02  0.46700000000E-02 0.  1.
          1   -1    0    0  501    0  0.00000000000E+00 -0.00000000000E+00 -0.95703176933E+02  0.95703177047E+02  0.46700000000E-02 0. -1.
         23    2    1    2    0    0  0.00000000000E+00  0.00000000000E+00 -0.74639089870E+02  0.11676726463E+03  0.89797552039E+02 0.  0.
        -11    1    3    3    0    0 -0.37811407471E+02  0.18135912011E+02 -0.16461917955E+02  0.45051177370E+02  0.51100000000E-03 0.  1.
         11    1    3    3    0    0  0.37811407471E+02 -0.18135912011E+02 -0.58177171914E+02  0.71716087258E+02  0.51100000000E-03 0. -1.
<mgrwt>
<rscale>  0 0.89797552E+02</rscale>
<asrwt>0</asrwt>
<pdfrwt beam="2">  1        1 0.14723565E-01 0.89797552E+02</pdfrwt>
<pdfrwt beam="1">  1       -1 0.32406289E-02 0.89797552E+02</pdfrwt>
<totfact> 0.10809341E+05</totfact>
</mgrwt>
</event>
<event>
 5    1  0.2718303E+000  0.8945645E+02  0.7818608E-02  0.1304173E+00
         -1   -1    0    0    0  501 -0.00000000000E+00  0.00000000000E+00  0.31646356759E+02  0.31646357103E+02  0.46700000000E-02 0.  1.
          1   -1    0    0  501    0  0.00000000000E+00 -0.00000000000E+00 -0.63217830119E+02  0.63217830292E+02  0.46700000000E-02 0. -1.
         23    2    1    2    0    0  0.00000000000E+00  0.00000000000E+00 -0.31571473360E+02  0.94864187395E+02  0.89456448174E+02 0.  0.
        -11    1    3    3    0    0  0.25995320779E+02  0.14279009251E+02 -0.51290538842E+02  0.59248343290E+02  0.51100000000E-03 0. -1.
         11    1    3    3    0    0 -0.25995320779E+02 -0.14279009251E+02  0.19719065482E+02  0.35615844105E+02  0.51100000000E-03 0.  1.
<mgrwt>
<rscale>  0 0.89456448E+02</rscale>
<asrwt>0</asrwt>
<pdfrwt beam="2">  1        1 0.97258201E-02 0.89456448E+02</pdfrwt>
<pdfrwt beam="1">  1       -1 0.48686703E-02 0.89456448E+02</pdfrwt>
<totfact> 0.10238610E+05</totfact>
</mgrwt>
</event>
<event>
 5    1  0.2718303E+000  0.9566596E+02  0.7818608E-02  0.1289683E+00
          1   -1    0    0  501    0  0.00000000000E+00  0.00000000000E+00  0.14307418076E+02  0.14307418838E+02  0.46700000000E-02 0. -1.
         -1   -1    0    0    0  501 -0.00000000000E+00 -0.00000000000E+00 -0.15991663170E+03  0.15991663176E+03  0.46700000000E-02 0.  1.
         23    2    1    2    0    0  0.00000000000E+00  0.00000000000E+00 -0.14560921362E+03  0.17422405060E+03  0.95665964257E+02 0.  0.
        -11    1    3    3    0    0 -0.45308864666E+02 -0.72390203441E+01 -0.97420580015E+02  0.10768503166E+03  0.51100000000E-03 0.  1.
         11    1    3    3    0    0  0.45308864666E+02  0.72390203441E+01 -0.48188633605E+02  0.66539018943E+02  0.51100000000E-03 0. -1.
<mgrwt>
<rscale>  0 0.95665964E+02</rscale>
<asrwt>0</asrwt>
<pdfrwt beam="1">  1        1 0.22011414E-02 0.95665964E+02</pdfrwt>
<pdfrwt beam="2">  1       -1 0.24602558E-01 0.95665964E+02</pdfrwt>
<totfact> 0.64990903E+04</totfact>
</mgrwt>
</event>
<event>
 5    1  0.2718303E+000  0.9044540E+02  0.7818608E-02  0.1301777E+00
         -1   -1    0    0    0  501 -0.00000000000E+00  0.00000000000E+00  0.13685755714E+02  0.13685756510E+02  0.46700000000E-02 0.  1.
          1   -1    0    0  501    0  0.00000000000E+00 -0.00000000000E+00 -0.14943220904E+03  0.14943220911E+03  0.46700000000E-02 0. -1.
         23    2    1    2    0    0  0.00000000000E+00  0.00000000000E+00 -0.13574645332E+03  0.16311796562E+03  0.90445404074E+02 0.  0.
        -11    1    3    3    0    0 -0.21072165518E+02 -0.22389182946E+02 -0.12768248545E+03  0.13133213150E+03  0.51100000000E-03 0. -1.
         11    1    3    3    0    0  0.21072165518E+02  0.22389182946E+02 -0.80639678700E+01  0.31785834120E+02  0.51100000000E-03 0.  1.
<mgrwt>
<rscale>  0 0.90445404E+02</rscale>
<asrwt>0</asrwt>
<pdfrwt beam="2">  1        1 0.22989570E-01 0.90445404E+02</pdfrwt>
<pdfrwt beam="1">  1       -1 0.21055011E-02 0.90445404E+02</pdfrwt>
<totfact> 0.11451380E+05</totfact>
</mgrwt>
</event>
<event>
 5    1  0.2718303E+000  0.9209661E+02  0.7818608E-02  0.1297852E+00
         -1   -1    0    0    0  501 -0.00000000000E+00  0.00000000000E+00  0.37576891236E+03  0.37576891238E+03  0.46700000000E-02 0.  1.
          1   -1    0    0  501    0  0.00000000000E+00 -0.00000000000E+00 -0.56429519466E+01  0.56429538790E+01  0.46700000000E-02 0. -1.
         23    2    1    2    0    0  0.00000000000E+00  0.00000000000E+00  0.37012596041E+03  0.38141186626E+03  0.92096607744E+02 0.  0.
        -11    1    3    3    0    0  0.63186113242E+01 -0.45418033771E+02  0.20249818815E+03  0.20762523653E+03  0.51100000000E-03 0.  1.
         11    1    3    3    0    0 -0.63186113242E+01  0.45418033771E+02  0.16762777226E+03  0.17378662974E+03  0.51100000000E-03 0. -1.
<mgrwt>
<rscale>  0 0.92096608E+02</rscale>
<asrwt>0</asrwt>
<pdfrwt beam="2">  1        1 0.86814654E-03 0.92096608E+02</pdfrwt>
<pdfrwt beam="1">  1       -1 0.57810606E-01 0.92096608E+02</pdfrwt>
<totfact> 0.53525144E+04</totfact>
</mgrwt>
</event>
<event>
 5    1  0.2718303E+000  0.8974221E+02  0.7818608E-02  0.1303477E+00
          1   -1    0    0  501    0  0.00000000000E+00  0.00000000000E+00  0.14328672825E+03  0.14328672833E+03  0.46700000000E-02 0. -1.
         -1   -1    0    0    0  501 -0.00000000000E+00 -0.00000000000E+00 -0.14051657737E+02  0.14051658513E+02  0.46700000000E-02 0.  1.
         23    2    1    2    0    0  0.00000000000E+00  0.00000000000E+00  0.12923507051E+03  0.15733838684E+03  0.89742211488E+02 0.  0.
        -11    1    3    3    0    0  0.23604352909E+02  0.28507067694E+02  0.10909552831E+03  0.11520265918E+03  0.51100000000E-03 0. -1.
         11    1    3    3    0    0 -0.23604352909E+02 -0.28507067694E+02  0.20139542199E+02  0.42135727655E+02  0.51100000000E-03 0.  1.
<mgrwt>
<rscale>  0 0.89742211E+02</rscale>
<asrwt>0</asrwt>
<pdfrwt beam="1">  1        1 0.22044111E-01 0.89742211E+02</pdfrwt>
<pdfrwt beam="2">  1       -1 0.21617937E-02 0.89742211E+02</pdfrwt>
<totfact> 0.11605536E+05</totfact>
</mgrwt>
</event>
<event>
 5    1  0.2718303E+000  0.9143232E+02  0.7818608E-02  0.1299420E+00
          1   -1    0    0  501    0  0.00000000000E+00  0.00000000000E+00  0.26635929608E+03  0.26635929612E+03  0.46700000000E-02 0. -1.
         -1   -1    0    0    0  501 -0.00000000000E+00 -0.00000000000E+00 -0.78464200682E+01  0.78464214580E+01  0.46700000000E-02 0.  1.
         23    2    1    2    0    0  0.00000000000E+00  0.00000000000E+00  0.25851287601E+03  0.27420571758E+03  0.91432316437E+02 0.  0.
        -11    1    3    3    0    0 -0.32893982833E+02  0.17244992748E+02  0.20919901643E+03  0.21247030936E+03  0.51100000000E-03 0. -1.
         11    1    3    3    0    0  0.32893982833E+02 -0.17244992748E+02  0.49313859581E+02  0.61735408224E+02  0.51100000000E-03 0.  1.
<mgrwt>
<rscale>  0 0.91432316E+02</rscale>
<asrwt>0</asrwt>
<pdfrwt beam="1">  1        1 0.40978359E-01 0.91432316E+02</pdfrwt>
<pdfrwt beam="2">  1       -1 0.12071415E-02 0.91432316E+02</pdfrwt>
<totfact> 0.12427780E+05</totfact>
</mgrwt>
</event>
<event>
 5    1  0.2718303E+000  0.9011262E+02  0.7818608E-02  0.1302579E+00
         -1   -1    0    0    0  501 -0.00000000000E+00  0.00000000000E+00  0.15008797442E+02  0.15008798169E+02  0.46700000000E-02 0.  1.
          1   -1    0    0  501    0  0.00000000000E+00 -0.00000000000E+00 -0.13525872930E+03  0.13525872938E+03  0.46700000000E-02 0. -1.
         23    2    1    2    0    0  0.00000000000E+00  0.00000000000E+00 -0.12024993186E+03  0.15026752755E+03  0.90112616897E+02 0.  0.
        -11    1    3    3    0    0  0.42443002291E+02 -0.13062538977E+02 -0.47421699296E+02  0.64968114736E+02  0.51100000000E-03 0. -1.
         11    1    3    3    0    0 -0.42443002291E+02  0.13062538977E+02 -0.72828232559E+02  0.85299412811E+02  0.51100000000E-03 0.  1.
<mgrwt>
<rscale>  0 0.90112617E+02</rscale>
<asrwt>0</asrwt>
<pdfrwt beam="2">  1        1 0.20809035E-01 0.90112617E+02</pdfrwt>
<pdfrwt beam="1">  1       -1 0.23090459E-02 0.90112617E+02</pdfrwt>
<totfact> 0.11358924E+05</totfact>
</mgrwt>
</event>
<event>
 5    1  0.2718303E+000  0.9194954E+02  0.7818608E-02  0.1298198E+00
          1   -1    0    0  501    0  0.00000000000E+00  0.00000000000E+00  0.18826600037E+02  0.18826600616E+02  0.46700000000E-02 0. -1.
         -1   -1    0    0    0  501 -0.00000000000E+00 -0.00000000000E+00 -0.11227091293E+03  0.11227091302E+03  0.46700000000E-02 0.  1.
         23    2    1    2    0    0  0.00000000000E+00  0.00000000000E+00 -0.93444312891E+02  0.13109751364E+03  0.91949543071E+02 0.  0.
        -11    1    3    3    0    0  0.16451234891E+02 -0.42912392429E+02 -0.44939641107E+02  0.64278207011E+02  0.51100000000E-03 0. -1.
         11    1    3    3    0    0 -0.16451234891E+02  0.42912392429E+02 -0.48504671784E+02  0.66819306630E+02  0.51100000000E-03 0.  1.
<mgrwt>
<rscale>  0 0.91949543E+02</rscale>
<asrwt>0</asrwt>
<pdfrwt beam="1">  1        1 0.28964001E-02 0.91949543E+02</pdfrwt>
<pdfrwt beam="2">  1       -1 0.17272448E-01 0.91949543E+02</pdfrwt>
<totfact> 0.77870533E+04</totfact>
</mgrwt>
</event>
<event>
 5    1  0.2718303E+000  0.9105177E+02  0.7818608E-02  0.1300324E+00
          1   -1    0    0  501    0  0.00000000000E+00  0.00000000000E+00  0.69454646078E+02  0.69454646235E+02  0.46700000000E-02 0. -1.
         -1   -1    0    0    0  501 -0.00000000000E+00 -0.00000000000E+00 -0.29841144132E+02  0.29841144498E+02  0.46700000000E-02 0.  1.
         23    2    1    2    0    0  0.00000000000E+00  0.00000000000E+00  0.39613501946E+02  0.99295790733E+02  0.91051768356E+02 0.  0.
        -11    1    3    3    0    0 -0.29860304834E+02 -0.29202325553E+02  0.50397636967E-01  0.41766208383E+02  0.51100000000E-03 0.  1.
         11    1    3    3    0    0  0.29860304834E+02  0.29202325553E+02  0.39563104309E+02  0.57529582350E+02  0.51100000000E-03 0. -1.
<mgrwt>
<rscale>  0 0.91051768E+02</rscale>
<asrwt>0</asrwt>
<pdfrwt beam="1">  1        1 0.10685330E-01 0.91051768E+02</pdfrwt>
<pdfrwt beam="2">  1       -1 0.45909454E-02 0.91051768E+02</pdfrwt>
<totfact> 0.98922229E+04</totfact>
</mgrwt>
</event>
<event>
 5    1  0.2718303E+000  0.9424094E+02  0.7818608E-02  0.1292895E+00
         -1   -1    0    0    0  501 -0.00000000000E+00  0.00000000000E+00  0.90296271449E+02  0.90296271570E+02  0.46700000000E-02 0.  1.
          1   -1    0    0  501    0  0.00000000000E+00 -0.00000000000E+00 -0.24589485784E+02  0.24589486228E+02  0.46700000000E-02 0. -1.
         23    2    1    2    0    0  0.00000000000E+00  0.00000000000E+00  0.65706785665E+02  0.11488575780E+03  0.94240944723E+02 0.  0.
        -11    1    3    3    0    0 -0.14158600890E+02  0.16866314345E+02  0.83637334455E+02  0.86487815637E+02  0.51100000000E-03 0.  1.
         11    1    3    3    0    0  0.14158600890E+02 -0.16866314345E+02 -0.17930548790E+02  0.28397942160E+02  0.51100000000E-03 0. -1.
<mgrwt>
<rscale>  0 0.94240945E+02</rscale>
<asrwt>0</asrwt>
<pdfrwt beam="2">  1        1 0.37829978E-02 0.94240945E+02</pdfrwt>
<pdfrwt beam="1">  1       -1 0.13891734E-01 0.94240945E+02</pdfrwt>
<totfact> 0.76137710E+04</totfact>
</mgrwt>
</event>
<event>
 5    1  0.2718303E+000  0.9224928E+02  0.7818608E-02  0.1297494E+00
         -1   -1    0    0    0  501 -0.00000000000E+00  0.00000000000E+00  0.25910605048E+02  0.25910605469E+02  0.46700000000E-02 0.  1.
          1   -1    0    0  501    0  0.00000000000E+00 -0.00000000000E+00 -0.82108554191E+02  0.82108554323E+02  0.46700000000E-02 0. -1.
         23    2    1    2    0    0  0.00000000000E+00  0.00000000000E+00 -0.56197949143E+02  0.10801915979E+03  0.92249278557E+02 0.  0.
        -11    1    3    3    0    0 -0.39027871928E+02 -0.19745348521E+02 -0.45245627081E+02  0.62930281627E+02  0.51100000000E-03 0. -1.
         11    1    3    3    0    0  0.39027871928E+02  0.19745348521E+02 -0.10952322062E+02  0.45088878166E+02  0.51100000000E-03 0.  1.
<mgrwt>
<rscale>  0 0.92249279E+02</rscale>
<asrwt>0</asrwt>
<pdfrwt beam="2">  1        1 0.12632085E-01 0.92249279E+02</pdfrwt>
<pdfrwt beam="1">  1       -1 0.39862470E-02 0.92249279E+02</pdfrwt>
<totfact> 0.97961667E+04</totfact>
</mgrwt>
</event>
<event>
 5    1  0.2718303E+000  0.9310756E+02  0.7818608E-02  0.1295496E+00
          1   -1    0    0  501    0  0.00000000000E+00  0.00000000000E+00  0.21751506745E+02  0.21751507246E+02  0.46700000000E-02 0. -1.
         -1   -1    0    0    0  501 -0.00000000000E+00 -0.00000000000E+00 -0.99636978782E+02  0.99636978891E+02  0.46700000000E-02 0.  1.
         23    2    1    2    0    0  0.00000000000E+00  0.00000000000E+00 -0.77885472037E+02  0.12138848614E+03  0.93107560447E+02 0.  0.
        -11    1    3    3    0    0  0.21190293095E+02 -0.55023808832E+01 -0.92506649838E+02  0.95062005982E+02  0.51100000000E-03 0.  1.
         11    1    3    3    0    0 -0.21190293095E+02  0.55023808832E+01  0.14621177801E+02  0.26326480156E+02  0.51100000000E-03 0. -1.
<mgrwt>
<rscale>  0 0.93107560E+02</rscale>
<asrwt>0</asrwt>
<pdfrwt beam="1">  1        1 0.33463858E-02 0.93107560E+02</pdfrwt>
<pdfrwt beam="2">  1       -1 0.15328766E-01 0.93107560E+02</pdfrwt>
<totfact> 0.77143162E+04</totfact>
</mgrwt>
</event>
<event>
 5    1  0.2718303E+000  0.8963614E+02  0.7818608E-02  0.1303735E+00
         -1   -1    0    0    0  501 -0.00000000000E+00  0.00000000000E+00  0.33300985846E+02  0.33300986173E+02  0.46700000000E-02 0.  1.
          1   -1    0    0  501    0  0.00000000000E+00 -0.00000000000E+00 -0.60318315901E+02  0.60318316082E+02  0.46700000000E-02 0. -1.
         23    2    1    2    0    0  0.00000000000E+00  0.00000000000E+00 -0.27017330056E+02  0.93619302255E+02  0.89636140208E+02 0.  0.
        -11    1    3    3    0    0 -0.29007187566E+02 -0.33649646639E+02 -0.19682671188E+02  0.48591390130E+02  0.51100000000E-03 0. -1.
         11    1    3    3    0    0  0.29007187566E+02  0.33649646639E+02 -0.73346588678E+01  0.45027912125E+02  0.51100000000E-03 0.  1.
<mgrwt>
<rscale>  0 0.89636140E+02</rscale>
<asrwt>0</asrwt>
<pdfrwt beam="2">  1        1 0.92797409E-02 0.89636140E+02</pdfrwt>
<pdfrwt beam="1">  1       -1 0.51232287E-02 0.89636140E+02</pdfrwt>
<totfact> 0.10110635E+05</totfact>
</mgrwt>
</event>
<event>
 5    1  0.2718303E+000  0.9065352E+02  0.7818608E-02  0.1301277E+00
         -1   -1    0    0    0  501 -0.00000000000E+00  0.00000000000E+00  0.18208443602E+03  0.18208443608E+03  0.46700000000E-02 0.  1.
          1   -1    0    0  501    0  0.00000000000E+00 -0.00000000000E+00 -0.11283308703E+02  0.11283309669E+02  0.46700000000E-02 0. -1.
         23    2    1    2    0    0  0.00000000000E+00  0.00000000000E+00  0.17080112732E+03  0.19336774575E+03  0.90653516222E+02 0.  0.
        -11    1    3    3    0    0  0.95182395247E+01 -0.33724908258E+02  0.14672500474E+03  0.15085156061E+03  0.51100000000E-03 0.  1.
         11    1    3    3    0    0 -0.95182395247E+01  0.33724908258E+02  0.24076122578E+02  0.42516185145E+02  0.51100000000E-03 0. -1.
<mgrwt>
<rscale>  0 0.90653516E+02</rscale>
<asrwt>0</asrwt>
<pdfrwt beam="2">  1        1 0.17358937E-02 0.90653516E+02</pdfrwt>
<pdfrwt beam="1">  1       -1 0.28012991E-01 0.90653516E+02</pdfrwt>
<totfact> 0.72325209E+04</totfact>
</mgrwt>
</event>
<event>
 5    1  0.2718303E+000  0.9557475E+02  0.7818608E-02  0.1289887E+00
         -1   -1    0    0    0  501 -0.00000000000E+00  0.00000000000E+00  0.61604135277E+02  0.61604135454E+02  0.46700000000E-02 0.  1.
          1   -1    0    0  501    0  0.00000000000E+00 -0.00000000000E+00 -0.37069482274E+02  0.37069482568E+02  0.46700000000E-02 0. -1.
         23    2    1    2    0    0  0.00000000000E+00  0.00000000000E+00  0.24534653004E+02  0.98673618022E+02  0.95574754488E+02 0.  0.
        -11    1    3    3    0    0  0.27923722783E+02 -0.12815825914E+02  0.50055346910E+02  0.58732592676E+02  0.51100000000E-03 0.  1.
         11    1    3    3    0    0 -0.27923722783E+02  0.12815825914E+02 -0.25520693906E+02  0.39941025346E+02  0.51100000000E-03 0. -1.
<mgrwt>
<rscale>  0 0.95574754E+02</rscale>
<asrwt>0</asrwt>
<pdfrwt beam="2">  1        1 0.57029974E-02 0.95574754E+02</pdfrwt>
<pdfrwt beam="1">  1       -1 0.94775592E-02 0.95574754E+02</pdfrwt>
<totfact> 0.78354728E+04</totfact>
</mgrwt>
</event>
<event>
 5    1  0.2718303E+000  0.8982529E+02  0.7818608E-02  0.1303275E+00
         -1   -1    0    0    0  501 -0.00000000000E+00  0.00000000000E+00  0.58274590008E+02  0.58274590196E+02  0.46700000000E-02 0.  1.
          1   -1    0    0  501    0  0.00000000000E+00 -0.00000000000E+00 -0.34614497332E+02  0.34614497647E+02  0.46700000000E-02 0. -1.
         23    2    1    2    0    0  0.00000000000E+00  0.00000000000E+00  0.23660092676E+02  0.92889087843E+02  0.89825289617E+02 0.  0.
        -11    1    3    3    0    0  0.14154755458E+02  0.35865828933E+02 -0.11986592460E+02  0.40378127572E+02  0.51100000000E-03 0. -1.
         11    1    3    3    0    0 -0.14154755458E+02 -0.35865828933E+02  0.35646685136E+02  0.52510960271E+02  0.51100000000E-03 0.  1.
<mgrwt>
<rscale>  0 0.89825290E+02</rscale>
<asrwt>0</asrwt>
<pdfrwt beam="2">  1        1 0.53253074E-02 0.89825290E+02</pdfrwt>
<pdfrwt beam="1">  1       -1 0.89653215E-02 0.89825290E+02</pdfrwt>
<totfact> 0.92513985E+04</totfact>
</mgrwt>
</event>
<event>
 5    1  0.2718303E+000  0.9096485E+02  0.7818608E-02  0.1300532E+00
         -1   -1    0    0    0  501 -0.00000000000E+00  0.00000000000E+00  0.16044815651E+03  0.16044815657E+03  0.46700000000E-02 0.  1.
          1   -1    0    0  501    0  0.00000000000E+00 -0.00000000000E+00 -0.12892955300E+02  0.12892956146E+02  0.46700000000E-02 0. -1.
         23    2    1    2    0    0  0.00000000000E+00  0.00000000000E+00  0.14755520121E+03  0.17334111272E+03  0.90964850113E+02 0.  0.
        -11    1    3    3    0    0 -0.20518113646E+02  0.22365097674E+02  0.13832768679E+03  0.14161828806E+03  0.51100000000E-03 0.  1.
         11    1    3    3    0    0  0.20518113646E+02 -0.22365097674E+02  0.92275144173E+01  0.31722824656E+02  0.51100000000E-03 0. -1.
<mgrwt>
<rscale>  0 0.90964850E+02</rscale>
<asrwt>0</asrwt>
<pdfrwt beam="2">  1        1 0.19835315E-02 0.90964850E+02</pdfrwt>
<pdfrwt beam="1">  1       -1 0.24684334E-01 0.90964850E+02</pdfrwt>
<totfact> 0.74039395E+04</totfact>
</mgrwt>
</event>
<event>
 5    1  0.2718303E+000  0.9122770E+02  0.7818608E-02  0.1299906E+00
         -1   -1    0    0    0  501 -0.00000000000E+00  0.00000000000E+00  0.17837447294E+02  0.17837447905E+02  0.46700000000E-02 0.  1.
          1   -1    0    0  501    0  0.00000000000E+00 -0.00000000000E+00 -0.11664356123E+03  0.11664356132E+03  0.46700000000E-02 0. -1.
         23    2    1    2    0    0  0.00000000000E+00  0.00000000000E+00 -0.98806113937E+02  0.13448100923E+03  0.91227702438E+02 0.  0.
        -11    1    3    3    0    0 -0.94846103001E+00 -0.34070583131E+02 -0.94089201669E+02  0.10007238422E+03  0.51100000000E-03 0. -1.
         11    1    3    3    0    0  0.94846103001E+00  0.34070583131E+02 -0.47169122685E+01  0.34408625006E+02  0.51100000000E-03 0.  1.
<mgrwt>
<rscale>  0 0.91227702E+02</rscale>
<asrwt>0</asrwt>
<pdfrwt beam="2">  1        1 0.17945163E-01 0.91227702E+02</pdfrwt>
<pdfrwt beam="1">  1       -1 0.27442228E-02 0.91227702E+02</pdfrwt>
<totfact> 0.10704861E+05</totfact>
</mgrwt>
</event>
<event>
 5    1  0.2718303E+000  0.9521035E+02  0.7818608E-02  0.1290703E+00
         -1   -1    0    0    0  501 -0.00000000000E+00  0.00000000000E+00  0.16137483396E+02  0.16137484071E+02  0.46700000000E-02 0. -1.
          1   -1    0    0  501    0  0.00000000000E+00 -0.00000000000E+00 -0.14043406877E+03  0.14043406885E+03  0.46700000000E-02 0.  1.
         23    2    1    2    0    0  0.00000000000E+00  0.00000000000E+00 -0.12429658537E+03  0.15657155292E+03  0.95210346328E+02 0.  0.
        -11    1    3    3    0    0  0.20669396511E+02  0.39968810415E+02 -0.36591418215E+02  0.57997083077E+02  0.51100000000E-03 0. -1.
         11    1    3    3    0    0 -0.20669396511E+02 -0.39968810415E+02 -0.87705167159E+02  0.98574469843E+02  0.51100000000E-03 0.  1.
<mgrwt>
<rscale>  0 0.95210346E+02</rscale>
<asrwt>0</asrwt>
<pdfrwt beam="2">  1        1 0.21605241E-01 0.95210346E+02</pdfrwt>
<pdfrwt beam="1">  1       -1 0.24826899E-02 0.95210346E+02</pdfrwt>
<totfact> 0.98524816E+04</totfact>
</mgrwt>
</event>
<event>
 5    1  0.2718303E+000  0.9231284E+02  0.7818608E-02  0.1297346E+00
         -1   -1    0    0    0  501 -0.00000000000E+00  0.00000000000E+00  0.57774818042E+02  0.57774818231E+02  0.46700000000E-02 0.  1.
          1   -1    0    0  501    0  0.00000000000E+00 -0.00000000000E+00 -0.36874454743E+02  0.36874455039E+02  0.46700000000E-02 0. -1.
         23    2    1    2    0    0  0.00000000000E+00  0.00000000000E+00  0.20900363299E+02  0.94649273270E+02  0.92312836293E+02 0.  0.
        -11    1    3    3    0    0 -0.66510479050E+01 -0.27093215942E+02 -0.27251906159E+02  0.38999297146E+02  0.51100000000E-03 0. -1.
         11    1    3    3    0    0  0.66510479050E+01  0.27093215942E+02  0.48152269458E+02  0.55649976124E+02  0.51100000000E-03 0.  1.
<mgrwt>
<rscale>  0 0.92312836E+02</rscale>
<asrwt>0</asrwt>
<pdfrwt beam="2">  1        1 0.56729931E-02 0.92312836E+02</pdfrwt>
<pdfrwt beam="1">  1       -1 0.88884335E-02 0.92312836E+02</pdfrwt>
<totfact> 0.86446276E+04</totfact>
</mgrwt>
</event>
<event>
 5    1  0.2718303E+000  0.9078468E+02  0.7818608E-02  0.1300963E+00
         -1   -1    0    0    0  501 -0.00000000000E+00  0.00000000000E+00  0.16782105269E+02  0.16782105919E+02  0.46700000000E-02 0.  1.
          1   -1    0    0  501    0  0.00000000000E+00 -0.00000000000E+00 -0.12277748471E+03  0.12277748480E+03  0.46700000000E-02 0. -1.
         23    2    1    2    0    0  0.00000000000E+00  0.00000000000E+00 -0.10599537945E+03  0.13955959072E+03  0.90784684274E+02 0.  0.
        -11    1    3    3    0    0 -0.43582403977E+02  0.75984021123E+01 -0.68622103104E+02  0.81646522802E+02  0.51100000000E-03 0. -1.
         11    1    3    3    0    0  0.43582403977E+02 -0.75984021123E+01 -0.37373276342E+02  0.57913067920E+02  0.51100000000E-03 0.  1.
<mgrwt>
<rscale>  0 0.90784684E+02</rscale>
<asrwt>0</asrwt>
<pdfrwt beam="2">  1        1 0.18888843E-01 0.90784684E+02</pdfrwt>
<pdfrwt beam="1">  1       -1 0.25818625E-02 0.90784684E+02</pdfrwt>
<totfact> 0.10944023E+05</totfact>
</mgrwt>
</event>
<event>
 5    1  0.2718303E+000  0.9505616E+02  0.7818608E-02  0.1291050E+00
          1   -1    0    0  501    0  0.00000000000E+00  0.00000000000E+00  0.16388341751E+03  0.16388341757E+03  0.46700000000E-02 0. -1.
         -1   -1    0    0    0  501 -0.00000000000E+00 -0.00000000000E+00 -0.13783690429E+02  0.13783691220E+02  0.46700000000E-02 0.  1.
         23    2    1    2    0    0  0.00000000000E+00  0.00000000000E+00  0.15009972708E+03  0.17766710879E+03  0.95056159600E+02 0.  0.
        -11    1    3    3    0    0  0.46637399639E+02  0.65303443160E+01  0.63049014100E+02  0.78694794118E+02  0.51100000000E-03 0.  1.
         11    1    3    3    0    0 -0.46637399639E+02 -0.65303443160E+01  0.87050712976E+02  0.98972314674E+02  0.51100000000E-03 0. -1.
<mgrwt>
<rscale>  0 0.95056160E+02</rscale>
<asrwt>0</asrwt>
<pdfrwt beam="1">  1        1 0.25212833E-01 0.95056160E+02</pdfrwt>
<pdfrwt beam="2">  1       -1 0.21205679E-02 0.95056160E+02</pdfrwt>
<totfact> 0.10185607E+05</totfact>
</mgrwt>
</event>
<event>
 5    1  0.2718303E+000  0.9613422E+02  0.7818608E-02  0.1288642E+00
          1   -1    0    0  501    0  0.00000000000E+00  0.00000000000E+00  0.15616487726E+02  0.15616488424E+02  0.46700000000E-02 0. -1.
         -1   -1    0    0    0  501 -0.00000000000E+00 -0.00000000000E+00 -0.14794921159E+03  0.14794921166E+03  0.46700000000E-02 0.  1.
         23    2    1    2    0    0  0.00000000000E+00  0.00000000000E+00 -0.13233272386E+03  0.16356570008E+03  0.96134220960E+02 0.  0.
        -11    1    3    3    0    0 -0.44554197039E+02  0.76412095696E+01 -0.93967057736E+02  0.10427498500E+03  0.51100000000E-03 0.  1.
         11    1    3    3    0    0  0.44554197039E+02 -0.76412095696E+01 -0.38365666125E+02  0.59290715082E+02  0.51100000000E-03 0. -1.
<mgrwt>
<rscale>  0 0.96134221E+02</rscale>
<asrwt>0</asrwt>
<pdfrwt beam="1">  1        1 0.24025367E-02 0.96134221E+02</pdfrwt>
<pdfrwt beam="2">  1       -1 0.22761416E-01 0.96134221E+02</pdfrwt>
<totfact> 0.65379486E+04</totfact>
</mgrwt>
</event>
<event>
 5    1  0.2718303E+000  0.9244352E+02  0.7818608E-02  0.1297040E+00
         -1   -1    0    0    0  501 -0.00000000000E+00  0.00000000000E+00  0.25159172562E+02  0.25159172995E+02  0.46700000000E-02 0.  1.
          1   -1    0    0  501    0  0.00000000000E+00 -0.00000000000E+00 -0.84917387335E+02  0.84917387463E+02  0.46700000000E-02 0. -1.
         23    2    1    2    0    0  0.00000000000E+00  0.00000000000E+00 -0.59758214773E+02  0.11007656046E+03  0.92443522918E+02 0.  0.
        -11    1    3    3    0    0 -0.27666782266E+02 -0.32783229353E+02 -0.93837702679E+01  0.43911799239E+02  0.51100000000E-03 0.  1.
         11    1    3    3    0    0  0.27666782266E+02  0.32783229353E+02 -0.50374444505E+02  0.66164761219E+02  0.51100000000E-03 0. -1.
<mgrwt>
<rscale>  0 0.92443523E+02</rscale>
<asrwt>0</asrwt>
<pdfrwt beam="2">  1        1 0.13064213E-01 0.92443523E+02</pdfrwt>
<pdfrwt beam="1">  1       -1 0.38706420E-02 0.92443523E+02</pdfrwt>
<totfact> 0.97924138E+04</totfact>
</mgrwt>
</event>
<event>
 5    1  0.2718303E+000  0.9085407E+02  0.7818608E-02  0.1300797E+00
         -1   -1    0    0    0  501 -0.00000000000E+00  0.00000000000E+00  0.60592208823E+01  0.60592226820E+01  0.46700000000E-02 0.  1.
          1   -1    0    0  501    0  0.00000000000E+00 -0.00000000000E+00 -0.34057432585E+03  0.34057432588E+03  0.46700000000E-02 0. -1.
         23    2    1    2    0    0  0.00000000000E+00  0.00000000000E+00 -0.33451510497E+03  0.34663354856E+03  0.90854067265E+02 0.  0.
        -11    1    3    3    0    0  0.17497086099E+02  0.38476192079E+02 -0.23076216941E+03  0.23460124512E+03  0.51100000000E-03 0. -1.
         11    1    3    3    0    0 -0.17497086099E+02 -0.38476192079E+02 -0.10375293556E+03  0.11203230345E+03  0.51100000000E-03 0.  1.
<mgrwt>
<rscale>  0 0.90854067E+02</rscale>
<asrwt>0</asrwt>
<pdfrwt beam="2">  1        1 0.52396035E-01 0.90854067E+02</pdfrwt>
<pdfrwt beam="1">  1       -1 0.93218823E-03 0.90854067E+02</pdfrwt>
<totfact> 0.13242969E+05</totfact>
</mgrwt>
</event>
<event>
 5    1  0.2718303E+000  0.8850809E+02  0.7818608E-02  0.1306505E+00
          1   -1    0    0  501    0  0.00000000000E+00  0.00000000000E+00  0.67436360798E+02  0.67436360960E+02  0.46700000000E-02 0. -1.
         -1   -1    0    0    0  501 -0.00000000000E+00 -0.00000000000E+00 -0.29041014329E+02  0.29041014705E+02  0.46700000000E-02 0.  1.
         23    2    1    2    0    0  0.00000000000E+00  0.00000000000E+00  0.38395346469E+02  0.96477375665E+02  0.88508086550E+02 0.  0.
        -11    1    3    3    0    0  0.30072083331E+02 -0.98157592627E+01  0.52931574848E+02  0.61663854420E+02  0.51100000000E-03 0. -1.
         11    1    3    3    0    0 -0.30072083331E+02  0.98157592627E+01 -0.14536228379E+02  0.34813521245E+02  0.51100000000E-03 0.  1.
<mgrwt>
<rscale>  0 0.88508087E+02</rscale>
<asrwt>0</asrwt>
<pdfrwt beam="1">  1        1 0.10374825E-01 0.88508087E+02</pdfrwt>
<pdfrwt beam="2">  1       -1 0.44678484E-02 0.88508087E+02</pdfrwt>
<totfact> 0.10646344E+05</totfact>
</mgrwt>
</event>
<event>
 5    1  0.2718303E+000  0.9414170E+02  0.7818608E-02  0.1293121E+00
          1   -1    0    0  501    0  0.00000000000E+00  0.00000000000E+00  0.10731544733E+02  0.10731545750E+02  0.46700000000E-02 0. -1.
         -1   -1    0    0    0  501 -0.00000000000E+00 -0.00000000000E+00 -0.20646282102E+03  0.20646282108E+03  0.46700000000E-02 0.  1.
         23    2    1    2    0    0  0.00000000000E+00  0.00000000000E+00 -0.19573127629E+03  0.21719436682E+03  0.94141704163E+02 0.  0.
        -11    1    3    3    0    0 -0.41789202995E+02  0.82114411538E+01 -0.14411709642E+03  0.15027808468E+03  0.51100000000E-03 0.  1.
         11    1    3    3    0    0  0.41789202995E+02 -0.82114411538E+01 -0.51614179864E+02  0.66916282145E+02  0.51100000000E-03 0. -1.
<mgrwt>
<rscale>  0 0.94141704E+02</rscale>
<asrwt>0</asrwt>
<pdfrwt beam="1">  1        1 0.16510071E-02 0.94141704E+02</pdfrwt>
<pdfrwt beam="2">  1       -1 0.31763508E-01 0.94141704E+02</pdfrwt>
<totfact> 0.63275016E+04</totfact>
</mgrwt>
</event>
<event>
 5    1  0.2718303E+000  0.8708739E+02  0.7818608E-02  0.1310062E+00
          1   -1    0    0  501    0  0.00000000000E+00  0.00000000000E+00  0.12444674122E+03  0.12444674131E+03  0.46700000000E-02 0. -1.
         -1   -1    0    0    0  501 -0.00000000000E+00 -0.00000000000E+00 -0.15235860369E+02  0.15235861085E+02  0.46700000000E-02 0.  1.
         23    2    1    2    0    0  0.00000000000E+00  0.00000000000E+00  0.10921088085E+03  0.13968260239E+03  0.87087386659E+02 0.  0.
        -11    1    3    3    0    0  0.14065487509E+02 -0.35688741724E+02  0.21557778239E+02  0.44002977486E+02  0.51100000000E-03 0.  1.
         11    1    3    3    0    0 -0.14065487509E+02  0.35688741724E+02  0.87653102611E+02  0.95679624907E+02  0.51100000000E-03 0. -1.
<mgrwt>
<rscale>  0 0.87087387E+02</rscale>
<asrwt>0</asrwt>
<pdfrwt beam="1">  1        1 0.19145653E-01 0.87087387E+02</pdfrwt>
<pdfrwt beam="2">  1       -1 0.23439785E-02 0.87087387E+02</pdfrwt>
<totfact> 0.12272854E+05</totfact>
</mgrwt>
</event>
<event>
 5    1  0.2718303E+000  0.9123315E+02  0.7818608E-02  0.1299893E+00
         -1   -1    0    0    0  501 -0.00000000000E+00  0.00000000000E+00  0.28589938615E+02  0.28589938996E+02  0.46700000000E-02 0.  1.
          1   -1    0    0  501    0  0.00000000000E+00 -0.00000000000E+00 -0.72783371145E+02  0.72783371295E+02  0.46700000000E-02 0. -1.
         23    2    1    2    0    0  0.00000000000E+00  0.00000000000E+00 -0.44193432530E+02  0.10137331029E+03  0.91233154942E+02 0.  0.
        -11    1    3    3    0    0 -0.18074310100E+02  0.37132826598E+02 -0.43623841925E+02  0.60071349921E+02  0.51100000000E-03 0.  1.
         11    1    3    3    0    0  0.18074310100E+02 -0.37132826598E+02 -0.56959060531E+00  0.41301960371E+02  0.51100000000E-03 0. -1.
<mgrwt>
<rscale>  0 0.91233155E+02</rscale>
<asrwt>0</asrwt>
<pdfrwt beam="2">  1        1 0.11197442E-01 0.91233155E+02</pdfrwt>
<pdfrwt beam="1">  1       -1 0.43984522E-02 0.91233155E+02</pdfrwt>
<totfact> 0.99095600E+04</totfact>
</mgrwt>
</event>
<event>
 5    1  0.2718303E+000  0.9806173E+02  0.7818608E-02  0.1284425E+00
         -1   -1    0    0    0  501 -0.00000000000E+00  0.00000000000E+00  0.32118335408E+02  0.32118335748E+02  0.46700000000E-02 0.  1.
          1   -1    0    0  501    0  0.00000000000E+00 -0.00000000000E+00 -0.74849014759E+02  0.74849014905E+02  0.46700000000E-02 0. -1.
         23    2    1    2    0    0  0.00000000000E+00  0.00000000000E+00 -0.42730679350E+02  0.10696735065E+03  0.98061731312E+02 0.  0.
        -11    1    3    3    0    0  0.70638803410E+01  0.22101285892E+02  0.25750615094E+02  0.34662074686E+02  0.51100000000E-03 0.  1.
         11    1    3    3    0    0 -0.70638803410E+01 -0.22101285892E+02 -0.68481294444E+02  0.72305275967E+02  0.51100000000E-03 0. -1.
<mgrwt>
<rscale>  0 0.98061731E+02</rscale>
<asrwt>0</asrwt>
<pdfrwt beam="2">  1        1 0.11515233E-01 0.98061731E+02</pdfrwt>
<pdfrwt beam="1">  1       -1 0.49412824E-02 0.98061731E+02</pdfrwt>
<totfact> 0.81504990E+04</totfact>
</mgrwt>
</event>
<event>
 5    1  0.2718303E+000  0.8911202E+02  0.7818608E-02  0.1305016E+00
         -1   -1    0    0    0  501 -0.00000000000E+00  0.00000000000E+00  0.69580581631E+01  0.69580597303E+01  0.46700000000E-02 0.  1.
          1   -1    0    0  501    0  0.00000000000E+00 -0.00000000000E+00 -0.28531491798E+03  0.28531491802E+03  0.46700000000E-02 0. -1.
         23    2    1    2    0    0  0.00000000000E+00  0.00000000000E+00 -0.27835685982E+03  0.29227297775E+03  0.89112020036E+02 0.  0.
        -11    1    3    3    0    0  0.37287243316E+02 -0.19975904425E+02 -0.18508008097E+03  0.18985260505E+03  0.51100000000E-03 0. -1.
         11    1    3    3    0    0 -0.37287243316E+02  0.19975904425E+02 -0.93276778854E+02  0.10242037271E+03  0.51100000000E-03 0.  1.
<mgrwt>
<rscale>  0 0.89112020E+02</rscale>
<asrwt>0</asrwt>
<pdfrwt beam="2">  1        1 0.43894594E-01 0.89112020E+02</pdfrwt>
<pdfrwt beam="1">  1       -1 0.10704708E-02 0.89112020E+02</pdfrwt>
<totfact> 0.13487145E+05</totfact>
</mgrwt>
</event>
<event>
 5    1  0.2718303E+000  0.9291114E+02  0.7818608E-02  0.1295951E+00
         -1   -1    0    0    0  501 -0.00000000000E+00  0.00000000000E+00  0.68496347344E+01  0.68496363264E+01  0.46700000000E-02 0.  1.
          1   -1    0    0  501    0  0.00000000000E+00 -0.00000000000E+00 -0.31507078726E+03  0.31507078729E+03  0.46700000000E-02 0. -1.
         23    2    1    2    0    0  0.00000000000E+00  0.00000000000E+00 -0.30822115252E+03  0.32192042362E+03  0.92911141851E+02 0.  0.
        -11    1    3    3    0    0  0.45402394301E+02 -0.64753925939E+01 -0.12845874536E+03  0.13639999039E+03  0.51100000000E-03 0.  1.
         11    1    3    3    0    0 -0.45402394301E+02  0.64753925939E+01 -0.17976240716E+03  0.18552043323E+03  0.51100000000E-03 0. -1.
<mgrwt>
<rscale>  0 0.92911142E+02</rscale>
<asrwt>0</asrwt>
<pdfrwt beam="2">  1        1 0.48472418E-01 0.92911142E+02</pdfrwt>
<pdfrwt beam="1">  1       -1 0.10537903E-02 0.92911142E+02</pdfrwt>
<totfact> 0.12297747E+05</totfact>
</mgrwt>
</event>
<event>
 5    1  0.2718303E+000  0.8995866E+02  0.7818608E-02  0.1302952E+00
          1   -1    0    0  501    0  0.00000000000E+00  0.00000000000E+00  0.18504707629E+02  0.18504708219E+02  0.46700000000E-02 0. -1.
         -1   -1    0    0    0  501 -0.00000000000E+00 -0.00000000000E+00 -0.10933111074E+03  0.10933111084E+03  0.46700000000E-02 0.  1.
         23    2    1    2    0    0  0.00000000000E+00  0.00000000000E+00 -0.90826403111E+02  0.12783581906E+03  0.89958663464E+02 0.  0.
        -11    1    3    3    0    0 -0.35051616276E+02 -0.28121144392E+02 -0.42670272880E+02  0.61969079011E+02  0.51100000000E-03 0. -1.
         11    1    3    3    0    0  0.35051616276E+02  0.28121144392E+02 -0.48156130230E+02  0.65866740048E+02  0.51100000000E-03 0.  1.
<mgrwt>
<rscale>  0 0.89958663E+02</rscale>
<asrwt>0</asrwt>
<pdfrwt beam="1">  1        1 0.28468782E-02 0.89958663E+02</pdfrwt>
<pdfrwt beam="2">  1       -1 0.16820171E-01 0.89958663E+02</pdfrwt>
<totfact> 0.82824606E+04</totfact>
</mgrwt>
</event>
<event>
 5    1  0.2718303E+000  0.9415228E+02  0.7818608E-02  0.1293097E+00
          1   -1    0    0  501    0  0.00000000000E+00  0.00000000000E+00  0.31634971333E+02  0.31634971678E+02  0.46700000000E-02 0. -1.
         -1   -1    0    0    0  501 -0.00000000000E+00 -0.00000000000E+00 -0.70054211301E+02  0.70054211457E+02  0.46700000000E-02 0.  1.
         23    2    1    2    0    0  0.00000000000E+00  0.00000000000E+00 -0.38419239968E+02  0.10168918313E+03  0.94152280731E+02 0.  0.
        -11    1    3    3    0    0 -0.14500459323E+02 -0.43727467721E+02 -0.29670408022E+02  0.54796787007E+02  0.51100000000E-03 0.  1.
         11    1    3    3    0    0  0.14500459323E+02  0.43727467721E+02 -0.87488319454E+01  0.46892396127E+02  0.51100000000E-03 0. -1.
<mgrwt>
<rscale>  0 0.94152281E+02</rscale>
<asrwt>0</asrwt>
<pdfrwt beam="1">  1        1 0.48669187E-02 0.94152281E+02</pdfrwt>
<pdfrwt beam="2">  1       -1 0.10777571E-01 0.94152281E+02</pdfrwt>
<totfact> 0.79719147E+04</totfact>
</mgrwt>
</event>
<event>
 5    1  0.2718303E+000  0.8849964E+02  0.7818608E-02  0.1306526E+00
          1   -1    0    0  501    0  0.00000000000E+00  0.00000000000E+00  0.92434955993E+01  0.92434967790E+01  0.46700000000E-02 0. -1.
         -1   -1    0    0    0  501 -0.00000000000E+00 -0.00000000000E+00 -0.21182966600E+03  0.21182966605E+03  0.46700000000E-02 0.  1.
         23    2    1    2    0    0  0.00000000000E+00  0.00000000000E+00 -0.20258617040E+03  0.22107316283E+03  0.88499643424E+02 0.  0.
        -11    1    3    3    0    0  0.16261957539E+02  0.37431356190E+02 -0.58571309415E+02  0.71387365661E+02  0.51100000000E-03 0. -1.
         11    1    3    3    0    0 -0.16261957539E+02 -0.37431356190E+02 -0.14401486098E+03  0.14968579717E+03  0.51100000000E-03 0.  1.
<mgrwt>
<rscale>  0 0.88499643E+02</rscale>
<asrwt>0</asrwt>
<pdfrwt beam="1">  1        1 0.14220765E-02 0.88499643E+02</pdfrwt>
<pdfrwt beam="2">  1       -1 0.32589176E-01 0.88499643E+02</pdfrwt>
<totfact> 0.73775503E+04</totfact>
</mgrwt>
</event>
<event>
 5    1  0.2718303E+000  0.9188781E+02  0.7818608E-02  0.1298343E+00
         -1   -1    0    0    0  501 -0.00000000000E+00  0.00000000000E+00  0.75538190028E+01  0.75538204463E+01  0.46700000000E-02 0.  1.
          1   -1    0    0  501    0  0.00000000000E+00 -0.00000000000E+00 -0.27944042383E+03  0.27944042386E+03  0.46700000000E-02 0. -1.
         23    2    1    2    0    0  0.00000000000E+00  0.00000000000E+00 -0.27188660482E+03  0.28699424431E+03  0.91887814130E+02 0.  0.
        -11    1    3    3    0    0 -0.33724643182E+02 -0.30103978076E+02 -0.16155474845E+03  0.16776035825E+03  0.51100000000E-03 0.  1.
         11    1    3    3    0    0  0.33724643182E+02  0.30103978076E+02 -0.11033185637E+03  0.11923388606E+03  0.51100000000E-03 0. -1.
<mgrwt>
<rscale>  0 0.91887814E+02</rscale>
<asrwt>0</asrwt>
<pdfrwt beam="2">  1        1 0.42990827E-01 0.91887814E+02</pdfrwt>
<pdfrwt beam="1">  1       -1 0.11621263E-02 0.91887814E+02</pdfrwt>
<totfact> 0.12378999E+05</totfact>
</mgrwt>
</event>
<event>
 5    1  0.2718303E+000  0.9173116E+02  0.7818608E-02  0.1298713E+00
         -1   -1    0    0    0  501 -0.00000000000E+00  0.00000000000E+00  0.16408805283E+03  0.16408805290E+03  0.46700000000E-02 0.  1.
          1   -1    0    0  501    0  0.00000000000E+00 -0.00000000000E+00 -0.12820259653E+02  0.12820260504E+02  0.46700000000E-02 0. -1.
         23    2    1    2    0    0  0.00000000000E+00  0.00000000000E+00  0.15126779318E+03  0.17690831340E+03  0.91731162086E+02 0.  0.
        -11    1    3    3    0    0 -0.41738580672E+02  0.18598395136E+02  0.83261339368E+02  0.94976102530E+02  0.51100000000E-03 0.  1.
         11    1    3    3    0    0  0.41738580672E+02 -0.18598395136E+02  0.68006453813E+02  0.81932210874E+02  0.51100000000E-03 0. -1.
<mgrwt>
<rscale>  0 0.91731162E+02</rscale>
<asrwt>0</asrwt>
<pdfrwt beam="2">  1        1 0.19723478E-02 0.91731162E+02</pdfrwt>
<pdfrwt beam="1">  1       -1 0.25244314E-01 0.91731162E+02</pdfrwt>
<totfact> 0.72041887E+04</totfact>
</mgrwt>
</event>
<event>
 5    1  0.2718303E+000  0.9137091E+02  0.7818608E-02  0.1299565E+00
         -1   -1    0    0    0  501 -0.00000000000E+00  0.00000000000E+00  0.21529582128E+02  0.21529582635E+02  0.46700000000E-02 0.  1.
          1   -1    0    0  501    0  0.00000000000E+00 -0.00000000000E+00 -0.96943862652E+02  0.96943862764E+02  0.46700000000E-02 0. -1.
         23    2    1    2    0    0  0.00000000000E+00  0.00000000000E+00 -0.75414280523E+02  0.11847344540E+03  0.91370911989E+02 0.  0.
        -11    1    3    3    0    0  0.18954778749E+02 -0.41030809199E+02 -0.29072194431E+02  0.53740147285E+02  0.51100000000E-03 0.  1.
         11    1    3    3    0    0 -0.18954778749E+02  0.41030809199E+02 -0.46342086092E+02  0.64733298113E+02  0.51100000000E-03 0. -1.
<mgrwt>
<rscale>  0 0.91370912E+02</rscale>
<asrwt>0</asrwt>
<pdfrwt beam="2">  1        1 0.14914440E-01 0.91370912E+02</pdfrwt>
<pdfrwt beam="1">  1       -1 0.33122435E-02 0.91370912E+02</pdfrwt>
<totfact> 0.10331432E+05</totfact>
</mgrwt>
</event>
<event>
 5    1  0.2718303E+000  0.9151463E+02  0.7818608E-02  0.1299225E+00
         -1   -1    0    0    0  501 -0.00000000000E+00  0.00000000000E+00  0.38986649005E+02  0.38986649285E+02  0.46700000000E-02 0.  1.
          1   -1    0    0  501    0  0.00000000000E+00 -0.00000000000E+00 -0.53703815968E+02  0.53703816171E+02  0.46700000000E-02 0. -1.
         23    2    1    2    0    0  0.00000000000E+00  0.00000000000E+00 -0.14717166963E+02  0.92690465456E+02  0.91514629339E+02 0.  0.
        -11    1    3    3    0    0 -0.23153437991E+01 -0.25520766004E+02  0.31037083826E+02  0.40248861935E+02  0.51100000000E-03 0.  1.
         11    1    3    3    0    0  0.23153437991E+01  0.25520766004E+02 -0.45754250789E+02  0.52441603521E+02  0.51100000000E-03 0. -1.
<mgrwt>
<rscale>  0 0.91514629E+02</rscale>
<asrwt>0</asrwt>
<pdfrwt beam="2">  1        1 0.82621256E-02 0.91514629E+02</pdfrwt>
<pdfrwt beam="1">  1       -1 0.59979460E-02 0.91514629E+02</pdfrwt>
<totfact> 0.93802269E+04</totfact>
</mgrwt>
</event>
<event>
 5    1  0.2718303E+000  0.8920019E+02  0.7818608E-02  0.1304800E+00
         -1   -1    0    0    0  501 -0.00000000000E+00  0.00000000000E+00  0.60798205278E+02  0.60798205458E+02  0.46700000000E-02 0.  1.
          1   -1    0    0  501    0  0.00000000000E+00 -0.00000000000E+00 -0.32717552306E+02  0.32717552639E+02  0.46700000000E-02 0. -1.
         23    2    1    2    0    0  0.00000000000E+00  0.00000000000E+00  0.28080652972E+02  0.93515758097E+02  0.89200190252E+02 0.  0.
        -11    1    3    3    0    0 -0.56505007896E+01  0.43707971314E+02  0.21216457509E+02  0.48912707807E+02  0.51100000000E-03 0.  1.
         11    1    3    3    0    0  0.56505007896E+01 -0.43707971314E+02  0.68641954631E+01  0.44603050290E+02  0.51100000000E-03 0. -1.
<mgrwt>
<rscale>  0 0.89200190E+02</rscale>
<asrwt>0</asrwt>
<pdfrwt beam="2">  1        1 0.50334696E-02 0.89200190E+02</pdfrwt>
<pdfrwt beam="1">  1       -1 0.93535700E-02 0.89200190E+02</pdfrwt>
<totfact> 0.93552401E+04</totfact>
</mgrwt>
</event>
<event>
 5    1  0.2718303E+000  0.9119368E+02  0.7818608E-02  0.1299987E+00
         -1   -1    0    0    0  501 -0.00000000000E+00  0.00000000000E+00  0.36589668548E+02  0.36589668846E+02  0.46700000000E-02 0.  1.
          1   -1    0    0  501    0  0.00000000000E+00 -0.00000000000E+00 -0.56821274825E+02  0.56821275017E+02  0.46700000000E-02 0. -1.
         23    2    1    2    0    0  0.00000000000E+00  0.00000000000E+00 -0.20231606277E+02  0.93410943862E+02  0.91193675991E+02 0.  0.
        -11    1    3    3    0    0  0.13855310664E+01  0.23522758268E+02 -0.50101212969E+02  0.55365796247E+02  0.51100000000E-03 0. -1.
         11    1    3    3    0    0 -0.13855310664E+01 -0.23522758268E+02  0.29869606691E+02  0.38045147615E+02  0.51100000000E-03 0.  1.
<mgrwt>
<rscale>  0 0.91193676E+02</rscale>
<asrwt>0</asrwt>
<pdfrwt beam="2">  1        1 0.87417346E-02 0.91193676E+02</pdfrwt>
<pdfrwt beam="1">  1       -1 0.56291798E-02 0.91193676E+02</pdfrwt>
<totfact> 0.95533439E+04</totfact>
</mgrwt>
</event>
<event>
 5    1  0.2718303E+000  0.9141967E+02  0.7818608E-02  0.1299450E+00
          1   -1    0    0  501    0  0.00000000000E+00  0.00000000000E+00  0.88097232556E+02  0.88097232679E+02  0.46700000000E-02 0. -1.
         -1   -1    0    0    0  501 -0.00000000000E+00 -0.00000000000E+00 -0.23716852290E+02  0.23716852750E+02  0.46700000000E-02 0.  1.
         23    2    1    2    0    0  0.00000000000E+00  0.00000000000E+00  0.64380380265E+02  0.11181408543E+03  0.91419671500E+02 0.  0.
        -11    1    3    3    0    0  0.43015937986E+02  0.91231921730E+01  0.47456019876E+02  0.64696811197E+02  0.51100000000E-03 0. -1.
         11    1    3    3    0    0 -0.43015937986E+02 -0.91231921730E+01  0.16924360389E+02  0.47117274232E+02  0.51100000000E-03 0.  1.
<mgrwt>
<rscale>  0 0.91419672E+02</rscale>
<asrwt>0</asrwt>
<pdfrwt beam="1">  1        1 0.13553420E-01 0.91419672E+02</pdfrwt>
<pdfrwt beam="2">  1       -1 0.36487466E-02 0.91419672E+02</pdfrwt>
<totfact> 0.10156337E+05</totfact>
</mgrwt>
</event>
<event>
 5    1  0.2718303E+000  0.9097498E+02  0.7818608E-02  0.1300508E+00
          1   -1    0    0  501    0  0.00000000000E+00  0.00000000000E+00  0.23853240787E+02  0.23853241244E+02  0.46700000000E-02 0. -1.
         -1   -1    0    0    0  501 -0.00000000000E+00 -0.00000000000E+00 -0.86743428766E+02  0.86743428892E+02  0.46700000000E-02 0.  1.
         23    2    1    2    0    0  0.00000000000E+00  0.00000000000E+00 -0.62890187979E+02  0.11059667014E+03  0.90974983931E+02 0.  0.
        -11    1    3    3    0    0  0.15616845500E+02 -0.26258983052E+02  0.95234304587E+01  0.32001809046E+02  0.51100000000E-03 0. -1.
         11    1    3    3    0    0 -0.15616845500E+02  0.26258983052E+02 -0.72413618438E+02  0.78594861090E+02  0.51100000000E-03 0.  1.
<mgrwt>
<rscale>  0 0.90974984E+02</rscale>
<asrwt>0</asrwt>
<pdfrwt beam="1">  1        1 0.36697294E-02 0.90974984E+02</pdfrwt>
<pdfrwt beam="2">  1       -1 0.13345143E-01 0.90974984E+02</pdfrwt>
<totfact> 0.83958176E+04</totfact>
</mgrwt>
</event>
<event>
 5    1  0.2718303E+000  0.9769825E+02  0.7818608E-02  0.1285212E+00
         -1   -1    0    0    0  501 -0.00000000000E+00  0.00000000000E+00  0.55943000330E+02  0.55943000525E+02  0.46700000000E-02 0.  1.
          1   -1    0    0  501    0  0.00000000000E+00 -0.00000000000E+00 -0.42654794456E+02  0.42654794712E+02  0.46700000000E-02 0. -1.
         23    2    1    2    0    0  0.00000000000E+00  0.00000000000E+00  0.13288205874E+02  0.98597795236E+02  0.97698253875E+02 0.  0.
        -11    1    3    3    0    0  0.41194044322E+02 -0.31165765667E+00  0.33138261590E+02  0.52869564019E+02  0.51100000000E-03 0.  1.
         11    1    3    3    0    0 -0.41194044322E+02  0.31165765667E+00 -0.19850055716E+02  0.45728231217E+02  0.51100000000E-03 0. -1.
<mgrwt>
<rscale>  0 0.97698254E+02</rscale>
<asrwt>0</asrwt>
<pdfrwt beam="2">  1        1 0.65622761E-02 0.97698254E+02</pdfrwt>
<pdfrwt beam="1">  1       -1 0.86066155E-02 0.97698254E+02</pdfrwt>
<totfact> 0.75268935E+04</totfact>
</mgrwt>
</event>
<event>
 5    1  0.2718303E+000  0.9043677E+02  0.7818608E-02  0.1301797E+00
          1   -1    0    0  501    0  0.00000000000E+00  0.00000000000E+00  0.16841031561E+02  0.16841032208E+02  0.46700000000E-02 0. -1.
         -1   -1    0    0    0  501 -0.00000000000E+00 -0.00000000000E+00 -0.12141194340E+03  0.12141194349E+03  0.46700000000E-02 0.  1.
         23    2    1    2    0    0  0.00000000000E+00  0.00000000000E+00 -0.10457091184E+03  0.13825297570E+03  0.90436771760E+02 0.  0.
        -11    1    3    3    0    0 -0.11234224190E+01 -0.37900443312E+02 -0.89949124157E+02  0.97614295152E+02  0.51100000000E-03 0.  1.
         11    1    3    3    0    0  0.11234224190E+01  0.37900443312E+02 -0.14621787682E+02  0.40638680545E+02  0.51100000000E-03 0. -1.
<mgrwt>
<rscale>  0 0.90436772E+02</rscale>
<asrwt>0</asrwt>
<pdfrwt beam="1">  1        1 0.25909281E-02 0.90436772E+02</pdfrwt>
<pdfrwt beam="2">  1       -1 0.18678760E-01 0.90436772E+02</pdfrwt>
<totfact> 0.80009629E+04</totfact>
</mgrwt>
</event>
<event>
 5    1  0.2718303E+000  0.9224447E+02  0.7818608E-02  0.1297506E+00
          1   -1    0    0  501    0  0.00000000000E+00  0.00000000000E+00  0.99839420273E+02  0.99839420382E+02  0.46700000000E-02 0. -1.
         -1   -1    0    0    0  501 -0.00000000000E+00 -0.00000000000E+00 -0.21306820459E+02  0.21306820971E+02  0.46700000000E-02 0.  1.
         23    2    1    2    0    0  0.00000000000E+00  0.00000000000E+00  0.78532599814E+02  0.12114624135E+03  0.92244471706E+02 0.  0.
        -11    1    3    3    0    0  0.27296660483E+02  0.34710211633E+02  0.21776279981E+02  0.49235280391E+02  0.51100000000E-03 0.  1.
         11    1    3    3    0    0 -0.27296660483E+02 -0.34710211633E+02  0.56756319833E+02  0.71910960962E+02  0.51100000000E-03 0. -1.
<mgrwt>
<rscale>  0 0.92244472E+02</rscale>
<asrwt>0</asrwt>
<pdfrwt beam="1">  1        1 0.15359911E-01 0.92244472E+02</pdfrwt>
<pdfrwt beam="2">  1       -1 0.32779725E-02 0.92244472E+02</pdfrwt>
<totfact> 0.10115638E+05</totfact>
</mgrwt>
</event>
<event>
 5    1  0.2718303E+000  0.9159420E+02  0.7818608E-02  0.1299036E+00
          1   -1    0    0  501    0  0.00000000000E+00  0.00000000000E+00  0.18814494574E+03  0.18814494580E+03  0.46700000000E-02 0. -1.
         -1   -1    0    0    0  501 -0.00000000000E+00 -0.00000000000E+00 -0.11147651199E+02  0.11147652177E+02  0.46700000000E-02 0.  1.
         23    2    1    2    0    0  0.00000000000E+00  0.00000000000E+00  0.17699729454E+03  0.19929259798E+03  0.91594199231E+02 0.  0.
        -11    1    3    3    0    0  0.40984582076E+02 -0.16485954912E+02  0.11477583479E+03  0.12298379945E+03  0.51100000000E-03 0.  1.
         11    1    3    3    0    0 -0.40984582076E+02  0.16485954912E+02  0.62221459758E+02  0.76308798523E+02  0.51100000000E-03 0. -1.
<mgrwt>
<rscale>  0 0.91594199E+02</rscale>
<asrwt>0</asrwt>
<pdfrwt beam="1">  1        1 0.28945377E-01 0.91594199E+02</pdfrwt>
<pdfrwt beam="2">  1       -1 0.17150233E-02 0.91594199E+02</pdfrwt>
<totfact> 0.11558827E+05</totfact>
</mgrwt>
</event>
<event>
 5    1  0.2718303E+000  0.9214093E+02  0.7818608E-02  0.1297748E+00
         -1   -1    0    0    0  501 -0.00000000000E+00  0.00000000000E+00  0.95275309546E+02  0.95275309661E+02  0.46700000000E-02 0.  1.
          1   -1    0    0  501    0  0.00000000000E+00 -0.00000000000E+00 -0.22277417630E+02  0.22277418120E+02  0.46700000000E-02 0. -1.
         23    2    1    2    0    0  0.00000000000E+00  0.00000000000E+00  0.72997891916E+02  0.11755272778E+03  0.92140933274E+02 0.  0.
        -11    1    3    3    0    0 -0.31314236358E+02 -0.20521607724E+02  0.22475331762E+01  0.37506921867E+02  0.51100000000E-03 0. -1.
         11    1    3    3    0    0  0.31314236358E+02  0.20521607724E+02  0.70750358739E+02  0.80045805913E+02  0.51100000000E-03 0.  1.
<mgrwt>
<rscale>  0 0.92140933E+02</rscale>
<asrwt>0</asrwt>
<pdfrwt beam="2">  1        1 0.34272951E-02 0.92140933E+02</pdfrwt>
<pdfrwt beam="1">  1       -1 0.14657740E-01 0.92140933E+02</pdfrwt>
<totfact> 0.79904134E+04</totfact>
</mgrwt>
</event>
<event>
 5    1  0.2718303E+000  0.9037119E+02  0.7818608E-02  0.1301955E+00
          1   -1    0    0  501    0  0.00000000000E+00  0.00000000000E+00  0.15177884173E+03  0.15177884180E+03  0.46700000000E-02 0. -1.
         -1   -1    0    0    0  501 -0.00000000000E+00 -0.00000000000E+00 -0.13452058808E+02  0.13452059618E+02  0.46700000000E-02 0.  1.
         23    2    1    2    0    0  0.00000000000E+00  0.00000000000E+00  0.13832678292E+03  0.16523090142E+03  0.90371189603E+02 0.  0.
        -11    1    3    3    0    0 -0.24366835624E+02  0.29328272673E+02  0.11349297920E+03  0.11972696682E+03  0.51100000000E-03 0. -1.
         11    1    3    3    0    0  0.24366835624E+02 -0.29328272673E+02  0.24833803721E+02  0.45503934597E+02  0.51100000000E-03 0.  1.
<mgrwt>
<rscale>  0 0.90371190E+02</rscale>
<asrwt>0</asrwt>
<pdfrwt beam="1">  1        1 0.23350592E-01 0.90371190E+02</pdfrwt>
<pdfrwt beam="2">  1       -1 0.20695475E-02 0.90371190E+02</pdfrwt>
<totfact> 0.11509581E+05</totfact>
</mgrwt>
</event>
<event>
 5    1  0.2718303E+000  0.9172035E+02  0.7818608E-02  0.1298738E+00
          1   -1    0    0  501    0  0.00000000000E+00  0.00000000000E+00  0.51733020633E+02  0.51733020843E+02  0.46700000000E-02 0. -1.
         -1   -1    0    0    0  501 -0.00000000000E+00 -0.00000000000E+00 -0.40654030628E+02  0.40654030896E+02  0.46700000000E-02 0.  1.
         23    2    1    2    0    0  0.00000000000E+00  0.00000000000E+00  0.11078990005E+02  0.92387051739E+02  0.91720353846E+02 0.  0.
        -11    1    3    3    0    0 -0.40379984529E+02 -0.10656461593E+02  0.24625910146E+02  0.48482355296E+02  0.51100000000E-03 0. -1.
         11    1    3    3    0    0  0.40379984529E+02  0.10656461593E+02 -0.13546920142E+02  0.43904696444E+02  0.51100000000E-03 0.  1.
<mgrwt>
<rscale>  0 0.91720354E+02</rscale>
<asrwt>0</asrwt>
<pdfrwt beam="1">  1        1 0.79589263E-02 0.91720354E+02</pdfrwt>
<pdfrwt beam="2">  1       -1 0.62544663E-02 0.91720354E+02</pdfrwt>
<totfact> 0.92691968E+04</totfact>
</mgrwt>
</event>
<event>
 5    1  0.2718303E+000  0.9477598E+02  0.7818608E-02  0.1291681E+00
         -1   -1    0    0    0  501 -0.00000000000E+00  0.00000000000E+00  0.13064336821E+02  0.13064337656E+02  0.46700000000E-02 0.  1.
          1   -1    0    0  501    0  0.00000000000E+00 -0.00000000000E+00 -0.17188944127E+03  0.17188944133E+03  0.46700000000E-02 0. -1.
         23    2    1    2    0    0  0.00000000000E+00  0.00000000000E+00 -0.15882510445E+03  0.18495377899E+03  0.94775980919E+02 0.  0.
        -11    1    3    3    0    0 -0.90517118880E+01 -0.45190916768E+02 -0.10092045152E+03  0.11094633830E+03  0.51100000000E-03 0. -1.
         11    1    3    3    0    0  0.90517118880E+01  0.45190916768E+02 -0.57904652926E+02  0.74007440688E+02  0.51100000000E-03 0.  1.
<mgrwt>
<rscale>  0 0.94775981E+02</rscale>
<asrwt>0</asrwt>
<pdfrwt beam="2">  1        1 0.26444528E-01 0.94775981E+02</pdfrwt>
<pdfrwt beam="1">  1       -1 0.20098982E-02 0.94775981E+02</pdfrwt>
<totfact> 0.10360917E+05</totfact>
</mgrwt>
</event>
<event>
 5    1  0.2718303E+000  0.8793163E+02  0.7818608E-02  0.1307939E+00
         -1   -1    0    0    0  501 -0.00000000000E+00  0.00000000000E+00  0.26969983975E+02  0.26969984379E+02  0.46700000000E-02 0.  1.
          1   -1    0    0  501    0  0.00000000000E+00 -0.00000000000E+00 -0.71672009765E+02  0.71672009917E+02  0.46700000000E-02 0. -1.
         23    2    1    2    0    0  0.00000000000E+00  0.00000000000E+00 -0.44702025790E+02  0.98641994296E+02  0.87931632129E+02 0.  0.
        -11    1    3    3    0    0  0.20260096263E+02 -0.33877956717E+02 -0.63301909889E+00  0.39478958514E+02  0.51100000000E-03 0.  1.
         11    1    3    3    0    0 -0.20260096263E+02  0.33877956717E+02 -0.44069006691E+02  0.59163035782E+02  0.51100000000E-03 0. -1.
<mgrwt>
<rscale>  0 0.87931632E+02</rscale>
<asrwt>0</asrwt>
<pdfrwt beam="2">  1        1 0.11026463E-01 0.87931632E+02</pdfrwt>
<pdfrwt beam="1">  1       -1 0.41492284E-02 0.87931632E+02</pdfrwt>
<totfact> 0.10939019E+05</totfact>
</mgrwt>
</event>
<event>
 5    1  0.2718303E+000  0.7057727E+02  0.7818608E-02  0.1358141E+00
         -1   -1    0    0    0  501 -0.00000000000E+00  0.00000000000E+00  0.17681056607E+02  0.17681057224E+02  0.46700000000E-02 0.  1.
          1   -1    0    0  501    0  0.00000000000E+00 -0.00000000000E+00 -0.70430611455E+02  0.70430611610E+02  0.46700000000E-02 0. -1.
         23    2    1    2    0    0  0.00000000000E+00  0.00000000000E+00 -0.52749554848E+02  0.88111668833E+02  0.70577267218E+02 0.  0.
        -11    1    3    3    0    0 -0.65860514300E+01 -0.15940301298E+02  0.12060600200E+02  0.21045839408E+02  0.51100000000E-03 0.  1.
         11    1    3    3    0    0  0.65860514300E+01  0.15940301298E+02 -0.64810155048E+02  0.67065829426E+02  0.51100000000E-03 0. -1.
<mgrwt>
<rscale>  0 0.70577267E+02</rscale>
<asrwt>0</asrwt>
<pdfrwt beam="2">  1        1 0.10835479E-01 0.70577267E+02</pdfrwt>
<pdfrwt beam="1">  1       -1 0.27201627E-02 0.70577267E+02</pdfrwt>
<totfact> 0.19750900E+05</totfact>
</mgrwt>
</event>
<event>
 5    1  0.2718303E+000  0.9481634E+02  0.7818608E-02  0.1291590E+00
         -1   -1    0    0    0  501 -0.00000000000E+00  0.00000000000E+00  0.93707291989E+01  0.93707303626E+01  0.46700000000E-02 0.  1.
          1   -1    0    0  501    0  0.00000000000E+00 -0.00000000000E+00 -0.23984628315E+03  0.23984628319E+03  0.46700000000E-02 0. -1.
         23    2    1    2    0    0  0.00000000000E+00  0.00000000000E+00 -0.23047555395E+03  0.24921701356E+03  0.94816342883E+02 0.  0.
        -11    1    3    3    0    0  0.39611370485E+02  0.23178790552E+01 -0.47045567649E+02  0.61544444677E+02  0.51100000000E-03 0.  1.
         11    1    3    3    0    0 -0.39611370485E+02 -0.23178790552E+01 -0.18342998630E+03  0.18767256888E+03  0.51100000000E-03 0. -1.
<mgrwt>
<rscale>  0 0.94816343E+02</rscale>
<asrwt>0</asrwt>
<pdfrwt beam="2">  1        1 0.36899424E-01 0.94816343E+02</pdfrwt>
<pdfrwt beam="1">  1       -1 0.14416509E-02 0.94816343E+02</pdfrwt>
<totfact> 0.11045515E+05</totfact>
</mgrwt>
</event>
<event>
 5    1  0.2718303E+000  0.8987664E+02  0.7818608E-02  0.1303151E+00
         -1   -1    0    0    0  501 -0.00000000000E+00  0.00000000000E+00  0.64339122182E+01  0.64339139131E+01  0.46700000000E-02 0.  1.
          1   -1    0    0  501    0  0.00000000000E+00 -0.00000000000E+00 -0.31387623018E+03  0.31387623022E+03  0.46700000000E-02 0. -1.
         23    2    1    2    0    0  0.00000000000E+00  0.00000000000E+00 -0.30744231796E+03  0.32031014413E+03  0.89876635215E+02 0.  0.
        -11    1    3    3    0    0  0.29804383562E+02 -0.30567264476E+02 -0.10372585541E+03  0.11216823087E+03  0.51100000000E-03 0.  1.
         11    1    3    3    0    0 -0.29804383562E+02  0.30567264476E+02 -0.20371646256E+03  0.20814191326E+03  0.51100000000E-03 0. -1.
<mgrwt>
<rscale>  0 0.89876635E+02</rscale>
<asrwt>0</asrwt>
<pdfrwt beam="2">  1        1 0.48288639E-01 0.89876635E+02</pdfrwt>
<pdfrwt beam="1">  1       -1 0.98983303E-03 0.89876635E+02</pdfrwt>
<totfact> 0.13425516E+05</totfact>
</mgrwt>
</event>
<event>
 5    1  0.2718303E+000  0.9188918E+02  0.7818608E-02  0.1298340E+00
         -1   -1    0    0    0  501 -0.00000000000E+00  0.00000000000E+00  0.16823718163E+03  0.16823718170E+03  0.46700000000E-02 0.  1.
          1   -1    0    0  501    0  0.00000000000E+00 -0.00000000000E+00 -0.12547199271E+02  0.12547200140E+02  0.46700000000E-02 0. -1.
         23    2    1    2    0    0  0.00000000000E+00  0.00000000000E+00  0.15568998236E+03  0.18078438184E+03  0.91889183851E+02 0.  0.
        -11    1    3    3    0    0 -0.22885115044E+02 -0.38879263248E+02  0.60740910182E+02  0.75662300859E+02  0.51100000000E-03 0.  1.
         11    1    3    3    0    0  0.22885115044E+02  0.38879263248E+02  0.94949072182E+02  0.10512208098E+03  0.51100000000E-03 0. -1.
<mgrwt>
<rscale>  0 0.91889184E+02</rscale>
<asrwt>0</asrwt>
<pdfrwt beam="2">  1        1 0.19303384E-02 0.91889184E+02</pdfrwt>
<pdfrwt beam="1">  1       -1 0.25882644E-01 0.91889184E+02</pdfrwt>
<totfact> 0.71272099E+04</totfact>
</mgrwt>
</event>
<event>
 5    1  0.2718303E+000  0.9032441E+02  0.7818608E-02  0.1302068E+00
          1   -1    0    0  501    0  0.00000000000E+00  0.00000000000E+00  0.11526159332E+03  0.11526159342E+03  0.46700000000E-02 0. -1.
         -1   -1    0    0    0  501 -0.00000000000E+00 -0.00000000000E+00 -0.17695613721E+02  0.17695614337E+02  0.46700000000E-02 0.  1.
         23    2    1    2    0    0  0.00000000000E+00  0.00000000000E+00  0.97565979599E+02  0.13295720775E+03  0.90324408208E+02 0.  0.
        -11    1    3    3    0    0  0.30368747347E+02  0.32471780492E+02  0.37104264669E+02  0.57908581407E+02  0.51100000000E-03 0.  1.
         11    1    3    3    0    0 -0.30368747347E+02 -0.32471780492E+02  0.60461714931E+02  0.75048626345E+02  0.51100000000E-03 0. -1.
<mgrwt>
<rscale>  0 0.90324408E+02</rscale>
<asrwt>0</asrwt>
<pdfrwt beam="1">  1        1 0.17732553E-01 0.90324408E+02</pdfrwt>
<pdfrwt beam="2">  1       -1 0.27224022E-02 0.90324408E+02</pdfrwt>
<totfact> 0.10975126E+05</totfact>
</mgrwt>
</event>
<event>
 5    1  0.2718303E+000  0.9426730E+02  0.7818608E-02  0.1292835E+00
          1   -1    0    0  501    0  0.00000000000E+00  0.00000000000E+00  0.81903186477E+02  0.81903186610E+02  0.46700000000E-02 0. -1.
         -1   -1    0    0    0  501 -0.00000000000E+00 -0.00000000000E+00 -0.27124474169E+02  0.27124474571E+02  0.46700000000E-02 0.  1.
         23    2    1    2    0    0  0.00000000000E+00  0.00000000000E+00  0.54778712308E+02  0.10902766118E+03  0.94267298574E+02 0.  0.
        -11    1    3    3    0    0 -0.17120599380E+02 -0.43397880018E+02  0.19623029311E+02  0.50611798948E+02  0.51100000000E-03 0.  1.
         11    1    3    3    0    0  0.17120599380E+02  0.43397880018E+02  0.35155682997E+02  0.58415862233E+02  0.51100000000E-03 0. -1.
<mgrwt>
<rscale>  0 0.94267299E+02</rscale>
<asrwt>0</asrwt>
<pdfrwt beam="1">  1        1 0.12600490E-01 0.94267299E+02</pdfrwt>
<pdfrwt beam="2">  1       -1 0.41729961E-02 0.94267299E+02</pdfrwt>
<totfact> 0.92258224E+04</totfact>
</mgrwt>
</event>
<event>
 5    1  0.2718303E+000  0.9075256E+02  0.7818608E-02  0.1301039E+00
         -1   -1    0    0    0  501 -0.00000000000E+00  0.00000000000E+00  0.93044823168E+02  0.93044823285E+02  0.46700000000E-02 0.  1.
          1   -1    0    0  501    0  0.00000000000E+00 -0.00000000000E+00 -0.22129192997E+02  0.22129193490E+02  0.46700000000E-02 0. -1.
         23    2    1    2    0    0  0.00000000000E+00  0.00000000000E+00  0.70915630171E+02  0.11517401677E+03  0.90752562154E+02 0.  0.
        -11    1    3    3    0    0  0.62407919541E+01  0.30413757584E+02 -0.65388806074E+01  0.31728553299E+02  0.51100000000E-03 0. -1.
         11    1    3    3    0    0 -0.62407919541E+01 -0.30413757584E+02  0.77454510778E+02  0.83445463476E+02  0.51100000000E-03 0.  1.
<mgrwt>
<rscale>  0 0.90752562E+02</rscale>
<asrwt>0</asrwt>
<pdfrwt beam="2">  1        1 0.34044914E-02 0.90752562E+02</pdfrwt>
<pdfrwt beam="1">  1       -1 0.14314588E-01 0.90752562E+02</pdfrwt>
<totfact> 0.83444653E+04</totfact>
</mgrwt>
</event>
<event>
 5    1  0.2718303E+000  0.8882540E+02  0.7818608E-02  0.1305721E+00
         -1   -1    0    0    0  501 -0.00000000000E+00  0.00000000000E+00  0.10826101878E+02  0.10826102885E+02  0.46700000000E-02 0.  1.
          1   -1    0    0  501    0  0.00000000000E+00 -0.00000000000E+00 -0.18219741180E+03  0.18219741186E+03  0.46700000000E-02 0. -1.
         23    2    1    2    0    0  0.00000000000E+00  0.00000000000E+00 -0.17137130992E+03  0.19302351474E+03  0.88825398281E+02 0.  0.
        -11    1    3    3    0    0  0.22372250802E+02 -0.15606743243E+02 -0.16184845906E+03  0.16413108097E+03  0.51100000000E-03 0. -1.
         11    1    3    3    0    0 -0.22372250802E+02  0.15606743243E+02 -0.95228508649E+01  0.28892433775E+02  0.51100000000E-03 0.  1.
<mgrwt>
<rscale>  0 0.88825398E+02</rscale>
<asrwt>0</asrwt>
<pdfrwt beam="2">  1        1 0.28030369E-01 0.88825398E+02</pdfrwt>
<pdfrwt beam="1">  1       -1 0.16655543E-02 0.88825398E+02</pdfrwt>
<totfact> 0.12473394E+05</totfact>
</mgrwt>
</event>
<event>
 5    1  0.2718303E+000  0.9150853E+02  0.7818608E-02  0.1299239E+00
          1   -1    0    0  501    0  0.00000000000E+00  0.00000000000E+00  0.42354543150E+02  0.42354543407E+02  0.46700000000E-02 0. -1.
         -1   -1    0    0    0  501 -0.00000000000E+00 -0.00000000000E+00 -0.49426876056E+02  0.49426876277E+02  0.46700000000E-02 0.  1.
         23    2    1    2    0    0  0.00000000000E+00  0.00000000000E+00 -0.70723329064E+01  0.91781419684E+02  0.91508530239E+02 0.  0.
        -11    1    3    3    0    0 -0.92588758823E+01  0.41656833294E+02  0.13018637071E+02  0.44615058603E+02  0.51100000000E-03 0. -1.
         11    1    3    3    0    0  0.92588758823E+01 -0.41656833294E+02 -0.20090969977E+02  0.47166361081E+02  0.51100000000E-03 0.  1.
<mgrwt>
<rscale>  0 0.91508530E+02</rscale>
<asrwt>0</asrwt>
<pdfrwt beam="1">  1        1 0.65160836E-02 0.91508530E+02</pdfrwt>
<pdfrwt beam="2">  1       -1 0.76041348E-02 0.91508530E+02</pdfrwt>
<totfact> 0.90520865E+04</totfact>
</mgrwt>
</event>
<event>
 5    1  0.2718303E+000  0.9309730E+02  0.7818608E-02  0.1295520E+00
          1   -1    0    0  501    0  0.00000000000E+00  0.00000000000E+00  0.89288006001E+01  0.89288018213E+01  0.46700000000E-02 0. -1.
         -1   -1    0    0    0  501 -0.00000000000E+00 -0.00000000000E+00 -0.24267274181E+03  0.24267274185E+03  0.46700000000E-02 0.  1.
         23    2    1    2    0    0  0.00000000000E+00  0.00000000000E+00 -0.23374394121E+03  0.25160154367E+03  0.93097297103E+02 0.  0.
        -11    1    3    3    0    0 -0.27897247893E+01  0.42851622463E+02 -0.16542290884E+03  0.17090577194E+03  0.51100000000E-03 0.  1.
         11    1    3    3    0    0  0.27897247893E+01 -0.42851622463E+02 -0.68321032365E+02  0.80695771734E+02  0.51100000000E-03 0. -1.
<mgrwt>
<rscale>  0 0.93097297E+02</rscale>
<asrwt>0</asrwt>
<pdfrwt beam="1">  1        1 0.13736619E-02 0.93097297E+02</pdfrwt>
<pdfrwt beam="2">  1       -1 0.37334263E-01 0.93097297E+02</pdfrwt>
<totfact> 0.61944540E+04</totfact>
</mgrwt>
</event>
<event>
 5    1  0.2718303E+000  0.9080035E+02  0.7818608E-02  0.1300925E+00
          1   -1    0    0  501    0  0.00000000000E+00  0.00000000000E+00  0.39514163078E+03  0.39514163081E+03  0.46700000000E-02 0. -1.
         -1   -1    0    0    0  501 -0.00000000000E+00 -0.00000000000E+00 -0.52162949793E+01  0.52162970697E+01  0.46700000000E-02 0.  1.
         23    2    1    2    0    0  0.00000000000E+00  0.00000000000E+00  0.38992533580E+03  0.40035792788E+03  0.90800346447E+02 0.  0.
        -11    1    3    3    0    0 -0.41829823251E+02  0.14817096215E+02  0.15269507477E+03  0.15901278663E+03  0.51100000000E-03 0.  1.
         11    1    3    3    0    0  0.41829823251E+02 -0.14817096215E+02  0.23723026103E+03  0.24134514124E+03  0.51100000000E-03 0. -1.
<mgrwt>
<rscale>  0 0.90800346E+02</rscale>
<asrwt>0</asrwt>
<pdfrwt beam="1">  1        1 0.60791007E-01 0.90800346E+02</pdfrwt>
<pdfrwt beam="2">  1       -1 0.80250726E-03 0.90800346E+02</pdfrwt>
<totfact> 0.13610734E+05</totfact>
</mgrwt>
</event>
<event>
 5    1  0.2718303E+000  0.9022746E+02  0.7818608E-02  0.1302302E+00
          1   -1    0    0  501    0  0.00000000000E+00  0.00000000000E+00  0.17394134144E+02  0.17394134771E+02  0.46700000000E-02 0. -1.
         -1   -1    0    0    0  501 -0.00000000000E+00 -0.00000000000E+00 -0.11700774409E+03  0.11700774419E+03  0.46700000000E-02 0.  1.
         23    2    1    2    0    0  0.00000000000E+00  0.00000000000E+00 -0.99613609949E+02  0.13440187896E+03  0.90227455801E+02 0.  0.
        -11    1    3    3    0    0  0.27820266853E+02  0.11861282747E+02  0.57552408798E-01  0.30243356109E+02  0.51100000000E-03 0. -1.
         11    1    3    3    0    0 -0.27820266853E+02 -0.11861282747E+02 -0.99671162357E+02  0.10415852285E+03  0.51100000000E-03 0.  1.
<mgrwt>
<rscale>  0 0.90227456E+02</rscale>
<asrwt>0</asrwt>
<pdfrwt beam="1">  1        1 0.26760208E-02 0.90227456E+02</pdfrwt>
<pdfrwt beam="2">  1       -1 0.18001191E-01 0.90227456E+02</pdfrwt>
<totfact> 0.81096363E+04</totfact>
</mgrwt>
</event>
<event>
 5    1  0.2718303E+000  0.9059422E+02  0.7818608E-02  0.1301419E+00
          1   -1    0    0  501    0  0.00000000000E+00  0.00000000000E+00  0.20583599861E+02  0.20583600391E+02  0.46700000000E-02 0. -1.
         -1   -1    0    0    0  501 -0.00000000000E+00 -0.00000000000E+00 -0.99682656462E+02  0.99682656572E+02  0.46700000000E-02 0.  1.
         23    2    1    2    0    0  0.00000000000E+00  0.00000000000E+00 -0.79099056601E+02  0.12026625696E+03  0.90594215094E+02 0.  0.
        -11    1    3    3    0    0 -0.36182897417E+02 -0.26905774256E+02 -0.45291016597E+02  0.63909302441E+02  0.51100000000E-03 0.  1.
         11    1    3    3    0    0  0.36182897417E+02  0.26905774256E+02 -0.33808040004E+02  0.56356954522E+02  0.51100000000E-03 0. -1.
<mgrwt>
<rscale>  0 0.90594215E+02</rscale>
<asrwt>0</asrwt>
<pdfrwt beam="1">  1        1 0.31667078E-02 0.90594215E+02</pdfrwt>
<pdfrwt beam="2">  1       -1 0.15335793E-01 0.90594215E+02</pdfrwt>
<totfact> 0.82772915E+04</totfact>
</mgrwt>
</event>
<event>
 5    1  0.2718303E+000  0.9087048E+02  0.7818608E-02  0.1300757E+00
          1   -1    0    0  501    0  0.00000000000E+00  0.00000000000E+00  0.58285160255E+02  0.58285160442E+02  0.46700000000E-02 0. -1.
         -1   -1    0    0    0  501 -0.00000000000E+00 -0.00000000000E+00 -0.35418292327E+02  0.35418292635E+02  0.46700000000E-02 0.  1.
         23    2    1    2    0    0  0.00000000000E+00  0.00000000000E+00  0.22866867927E+02  0.93703453077E+02  0.90870476337E+02 0.  0.
        -11    1    3    3    0    0  0.34292525955E+02 -0.11232982435E+02 -0.17035309505E+02  0.39904373206E+02  0.51100000000E-03 0.  1.
         11    1    3    3    0    0 -0.34292525955E+02  0.11232982435E+02  0.39902177433E+02  0.53799079871E+02  0.51100000000E-03 0. -1.
<mgrwt>
<rscale>  0 0.90870476E+02</rscale>
<asrwt>0</asrwt>
<pdfrwt beam="1">  1        1 0.89669478E-02 0.90870476E+02</pdfrwt>
<pdfrwt beam="2">  1       -1 0.54489681E-02 0.90870476E+02</pdfrwt>
<totfact> 0.96850544E+04</totfact>
</mgrwt>
</event>
<event>
 5    1  0.2718303E+000  0.9075630E+02  0.7818608E-02  0.1301030E+00
          1   -1    0    0  501    0  0.00000000000E+00  0.00000000000E+00  0.16587958086E+03  0.16587958093E+03  0.46700000000E-02 0. -1.
         -1   -1    0    0    0  501 -0.00000000000E+00 -0.00000000000E+00 -0.12413682521E+02  0.12413683400E+02  0.46700000000E-02 0.  1.
         23    2    1    2    0    0  0.00000000000E+00  0.00000000000E+00  0.15346589834E+03  0.17829326433E+03  0.90756300890E+02 0.  0.
        -11    1    3    3    0    0 -0.26019361150E+02 -0.22908517192E+02  0.13425602430E+03  0.13865960975E+03  0.51100000000E-03 0. -1.
         11    1    3    3    0    0  0.26019361150E+02  0.22908517192E+02  0.19209874047E+02  0.39633654585E+02  0.51100000000E-03 0.  1.
<mgrwt>
<rscale>  0 0.90756301E+02</rscale>
<asrwt>0</asrwt>
<pdfrwt beam="1">  1        1 0.25519936E-01 0.90756301E+02</pdfrwt>
<pdfrwt beam="2">  1       -1 0.19097974E-02 0.90756301E+02</pdfrwt>
<totfact> 0.11567738E+05</totfact>
</mgrwt>
</event>
<event>
 5    1  0.2718303E+000  0.8187935E+02  0.7818608E-02  0.1323801E+00
         -1   -1    0    0    0  501 -0.00000000000E+00  0.00000000000E+00  0.35699393545E+02  0.35699393850E+02  0.46700000000E-02 0.  1.
          1   -1    0    0  501    0  0.00000000000E+00 -0.00000000000E+00 -0.46949177244E+02  0.46949177476E+02  0.46700000000E-02 0. -1.
         23    2    1    2    0    0  0.00000000000E+00  0.00000000000E+00 -0.11249783699E+02  0.82648571326E+02  0.81879354595E+02 0.  0.
        -11    1    3    3    0    0  0.33593404442E+02 -0.14649290073E+02  0.12793132829E+02  0.38817299874E+02  0.51100000000E-03 0.  1.
         11    1    3    3    0    0 -0.33593404442E+02  0.14649290073E+02 -0.24042916528E+02  0.43831271452E+02  0.51100000000E-03 0. -1.
<mgrwt>
<rscale>  0 0.81879355E+02</rscale>
<asrwt>0</asrwt>
<pdfrwt beam="2">  1        1 0.72229504E-02 0.81879355E+02</pdfrwt>
<pdfrwt beam="1">  1       -1 0.54922144E-02 0.81879355E+02</pdfrwt>
<totfact> 0.12521283E+05</totfact>
</mgrwt>
</event>
<event>
 5    1  0.2718303E+000  0.9499319E+02  0.7818608E-02  0.1291191E+00
          1   -1    0    0  501    0  0.00000000000E+00  0.00000000000E+00  0.21117179483E+02  0.21117180000E+02  0.46700000000E-02 0.  1.
         -1   -1    0    0    0  501 -0.00000000000E+00 -0.00000000000E+00 -0.10682897887E+03  0.10682897897E+03  0.46700000000E-02 0. -1.
         23    2    1    2    0    0  0.00000000000E+00  0.00000000000E+00 -0.85711799383E+02  0.12794615897E+03  0.94993194710E+02 0.  0.
        -11    1    3    3    0    0  0.44780373089E+02  0.13004976174E+01 -0.64107615994E+02  0.78209715105E+02  0.51100000000E-03 0. -1.
         11    1    3    3    0    0 -0.44780373089E+02 -0.13004976174E+01 -0.21604183389E+02  0.49736443864E+02  0.51100000000E-03 0.  1.
<mgrwt>
<rscale>  0 0.94993195E+02</rscale>
<asrwt>0</asrwt>
<pdfrwt beam="1">  1        1 0.32487970E-02 0.94993195E+02</pdfrwt>
<pdfrwt beam="2">  1       -1 0.16435227E-01 0.94993195E+02</pdfrwt>
<totfact> 0.72284420E+04</totfact>
</mgrwt>
</event>
<event>
 5    1  0.2718303E+000  0.9325878E+02  0.7818608E-02  0.1295147E+00
         -1   -1    0    0    0  501 -0.00000000000E+00  0.00000000000E+00  0.16759196358E+03  0.16759196364E+03  0.46700000000E-02 0. -1.
          1   -1    0    0  501    0  0.00000000000E+00 -0.00000000000E+00 -0.12973772288E+02  0.12973773128E+02  0.46700000000E-02 0.  1.
         23    2    1    2    0    0  0.00000000000E+00  0.00000000000E+00  0.15461819129E+03  0.18056573677E+03  0.93258780917E+02 0.  0.
        -11    1    3    3    0    0  0.41812979781E+02  0.17969108240E+01  0.11711846576E+03  0.12437157710E+03  0.51100000000E-03 0. -1.
         11    1    3    3    0    0 -0.41812979781E+02 -0.17969108240E+01  0.37499725528E+02  0.56194159676E+02  0.51100000000E-03 0.  1.
<mgrwt>
<rscale>  0 0.93258781E+02</rscale>
<asrwt>0</asrwt>
<pdfrwt beam="2">  1        1 0.19959649E-02 0.93258781E+02</pdfrwt>
<pdfrwt beam="1">  1       -1 0.25783381E-01 0.93258781E+02</pdfrwt>
<totfact> 0.68645416E+04</totfact>
</mgrwt>
</event>
<event>
 5    1  0.2718303E+000  0.8671641E+02  0.7818608E-02  0.1311004E+00
         -1   -1    0    0    0  501 -0.00000000000E+00  0.00000000000E+00  0.38823471095E+03  0.38823471098E+03  0.46700000000E-02 0.  1.
          1   -1    0    0  501    0  0.00000000000E+00 -0.00000000000E+00 -0.48422599290E+01  0.48422621810E+01  0.46700000000E-02 0. -1.
         23    2    1    2    0    0  0.00000000000E+00  0.00000000000E+00  0.38339245103E+03  0.39307697316E+03  0.86716407491E+02 0.  0.
        -11    1    3    3    0    0 -0.85095443914E+01 -0.41812501759E+02  0.15680872487E+03  0.16251053456E+03  0.51100000000E-03 0. -1.
         11    1    3    3    0    0  0.85095443914E+01  0.41812501759E+02  0.22658372616E+03  0.23056643860E+03  0.51100000000E-03 0.  1.
<mgrwt>
<rscale>  0 0.86716407E+02</rscale>
<asrwt>0</asrwt>
<pdfrwt beam="2">  1        1 0.74496298E-03 0.86716407E+02</pdfrwt>
<pdfrwt beam="1">  1       -1 0.59728438E-01 0.86716407E+02</pdfrwt>
<totfact> 0.61665266E+04</totfact>
</mgrwt>
</event>
<event>
 5    1  0.2718303E+000  0.8859060E+02  0.7818608E-02  0.1306301E+00
          1   -1    0    0  501    0  0.00000000000E+00  0.00000000000E+00  0.38846558021E+03  0.38846558024E+03  0.46700000000E-02 0. -1.
         -1   -1    0    0    0  501 -0.00000000000E+00 -0.00000000000E+00 -0.50508293428E+01  0.50508315017E+01  0.46700000000E-02 0.  1.
         23    2    1    2    0    0  0.00000000000E+00  0.00000000000E+00  0.38341475087E+03  0.39351641174E+03  0.88590604051E+02 0.  0.
        -11    1    3    3    0    0  0.41672326730E+02  0.86439773830E+01  0.13716470102E+03  0.14361565502E+03  0.51100000000E-03 0.  1.
         11    1    3    3    0    0 -0.41672326730E+02 -0.86439773830E+01  0.24625004985E+03  0.24990075672E+03  0.51100000000E-03 0. -1.
<mgrwt>
<rscale>  0 0.88590604E+02</rscale>
<asrwt>0</asrwt>
<pdfrwt beam="1">  1        1 0.59763952E-01 0.88590604E+02</pdfrwt>
<pdfrwt beam="2">  1       -1 0.77705062E-03 0.88590604E+02</pdfrwt>
<totfact> 0.14487973E+05</totfact>
</mgrwt>
</event>
<event>
 5    1  0.2718303E+000  0.8075021E+02  0.7818608E-02  0.1326936E+00
          1   -1    0    0  501    0  0.00000000000E+00  0.00000000000E+00  0.64595013812E+02  0.64595013981E+02  0.46700000000E-02 0. -1.
         -1   -1    0    0    0  501 -0.00000000000E+00 -0.00000000000E+00 -0.25236455120E+02  0.25236455552E+02  0.46700000000E-02 0.  1.
         23    2    1    2    0    0  0.00000000000E+00  0.00000000000E+00  0.39358558693E+02  0.89831469533E+02  0.80750212235E+02 0.  0.
        -11    1    3    3    0    0 -0.30752125676E+02  0.13007462288E+02 -0.55728985857E+01  0.33851802133E+02  0.51100000000E-03 0.  1.
         11    1    3    3    0    0  0.30752125676E+02 -0.13007462288E+02  0.44931457278E+02  0.55979667400E+02  0.51100000000E-03 0. -1.
<mgrwt>
<rscale>  0 0.80750212E+02</rscale>
<asrwt>0</asrwt>
<pdfrwt beam="1">  1        1 0.99376944E-02 0.80750212E+02</pdfrwt>
<pdfrwt beam="2">  1       -1 0.38825317E-02 0.80750212E+02</pdfrwt>
<totfact> 0.13593356E+05</totfact>
</mgrwt>
</event>
<event>
 5    1  0.2718303E+000  0.9114415E+02  0.7818608E-02  0.1300104E+00
          1   -1    0    0  501    0  0.00000000000E+00  0.00000000000E+00  0.34307291021E+03  0.34307291025E+03  0.46700000000E-02 0. -1.
         -1   -1    0    0    0  501 -0.00000000000E+00 -0.00000000000E+00 -0.60535634021E+01  0.60535652034E+01  0.46700000000E-02 0.  1.
         23    2    1    2    0    0  0.00000000000E+00  0.00000000000E+00  0.33701934681E+03  0.34912647545E+03  0.91144148107E+02 0.  0.
        -11    1    3    3    0    0  0.30948941462E+01  0.45017644366E+02  0.19293102113E+03  0.19813769351E+03  0.51100000000E-03 0.  1.
         11    1    3    3    0    0 -0.30948941462E+01 -0.45017644366E+02  0.14408832568E+03  0.15098878194E+03  0.51100000000E-03 0. -1.
<mgrwt>
<rscale>  0 0.91144148E+02</rscale>
<asrwt>0</asrwt>
<pdfrwt beam="1">  1        1 0.52780448E-01 0.91144148E+02</pdfrwt>
<pdfrwt beam="2">  1       -1 0.93131758E-03 0.91144148E+02</pdfrwt>
<totfact> 0.13148559E+05</totfact>
</mgrwt>
</event>
<event>
 5    1  0.2718303E+000  0.5530365E+02  0.7818608E-02  0.1418668E+00
         -1   -1    0    0    0  501 -0.00000000000E+00  0.00000000000E+00  0.13289940216E+03  0.13289940224E+03  0.46700000000E-02 0.  1.
          1   -1    0    0  501    0  0.00000000000E+00 -0.00000000000E+00 -0.57533991354E+01  0.57534010307E+01  0.46700000000E-02 0. -1.
         23    2    1    2    0    0  0.00000000000E+00  0.00000000000E+00  0.12714600302E+03  0.13865280327E+03  0.55303650605E+02 0.  0.
        -11    1    3    3    0    0 -0.24386302934E+02 -0.10400569101E+02  0.83275799928E+02  0.87394064228E+02  0.51100000000E-03 0. -1.
         11    1    3    3    0    0  0.24386302934E+02  0.10400569101E+02  0.43870203095E+02  0.51258739043E+02  0.51100000000E-03 0.  1.
<mgrwt>
<rscale>  0 0.55303651E+02</rscale>
<asrwt>0</asrwt>
<pdfrwt beam="2">  1        1 0.88513850E-03 0.55303651E+02</pdfrwt>
<pdfrwt beam="1">  1       -1 0.20446062E-01 0.55303651E+02</pdfrwt>
<totfact> 0.27488834E+05</totfact>
</mgrwt>
</event>
<event>
 5    1  0.2718303E+000  0.8670073E+02  0.7818608E-02  0.1311044E+00
          1   -1    0    0  501    0  0.00000000000E+00  0.00000000000E+00  0.17928141958E+03  0.17928141964E+03  0.46700000000E-02 0. -1.
         -1   -1    0    0    0  501 -0.00000000000E+00 -0.00000000000E+00 -0.10482145237E+02  0.10482146277E+02  0.46700000000E-02 0.  1.
         23    2    1    2    0    0  0.00000000000E+00  0.00000000000E+00  0.16879927434E+03  0.18976356591E+03  0.86700726242E+02 0.  0.
        -11    1    3    3    0    0 -0.40103707484E+02 -0.18042987652E+01  0.48589408725E+02  0.63027720001E+02  0.51100000000E-03 0.  1.
         11    1    3    3    0    0  0.40103707484E+02  0.18042987652E+01  0.12020986561E+03  0.12673584591E+03  0.51100000000E-03 0. -1.
<mgrwt>
<rscale>  0 0.86700726E+02</rscale>
<asrwt>0</asrwt>
<pdfrwt beam="1">  1        1 0.27581754E-01 0.86700726E+02</pdfrwt>
<pdfrwt beam="2">  1       -1 0.16126380E-02 0.86700726E+02</pdfrwt>
<totfact> 0.13266920E+05</totfact>
</mgrwt>
</event>
<event>
 5    1  0.2718303E+000  0.9135472E+02  0.7818608E-02  0.1299604E+00
         -1   -1    0    0    0  501 -0.00000000000E+00  0.00000000000E+00  0.20798284496E+03  0.20798284501E+03  0.46700000000E-02 0.  1.
          1   -1    0    0  501    0  0.00000000000E+00 -0.00000000000E+00 -0.10031697025E+02  0.10031698112E+02  0.46700000000E-02 0. -1.
         23    2    1    2    0    0  0.00000000000E+00  0.00000000000E+00  0.19795114793E+03  0.21801454312E+03  0.91354715506E+02 0.  0.
        -11    1    3    3    0    0 -0.57144801742E+01 -0.32067026794E+02  0.22553943828E+02  0.39618554662E+02  0.51100000000E-03 0.  1.
         11    1    3    3    0    0  0.57144801742E+01  0.32067026794E+02  0.17539720410E+03  0.17839598846E+03  0.51100000000E-03 0. -1.
<mgrwt>
<rscale>  0 0.91354716E+02</rscale>
<asrwt>0</asrwt>
<pdfrwt beam="2">  1        1 0.15433379E-02 0.91354716E+02</pdfrwt>
<pdfrwt beam="1">  1       -1 0.31997364E-01 0.91354716E+02</pdfrwt>
<totfact> 0.68292391E+04</totfact>
</mgrwt>
</event>
<event>
 5    1  0.2718303E+000  0.9331561E+02  0.7818608E-02  0.1295015E+00
         -1   -1    0    0    0  501 -0.00000000000E+00  0.00000000000E+00  0.89344626658E+01  0.89344638863E+01  0.46700000000E-02 0.  1.
          1   -1    0    0  501    0  0.00000000000E+00 -0.00000000000E+00 -0.24365770555E+03  0.24365770559E+03  0.46700000000E-02 0. -1.
         23    2    1    2    0    0  0.00000000000E+00  0.00000000000E+00 -0.23472324288E+03  0.25259216948E+03  0.93315611411E+02 0.  0.
        -11    1    3    3    0    0 -0.40416613949E+02  0.10932040429E+02 -0.61628023638E+02  0.74505204441E+02  0.51100000000E-03 0.  1.
         11    1    3    3    0    0  0.40416613949E+02 -0.10932040429E+02 -0.17309521924E+03  0.17808696504E+03  0.51100000000E-03 0. -1.
<mgrwt>
<rscale>  0 0.93315611E+02</rscale>
<asrwt>0</asrwt>
<pdfrwt beam="2">  1        1 0.37485796E-01 0.93315611E+02</pdfrwt>
<pdfrwt beam="1">  1       -1 0.13745330E-02 0.93315611E+02</pdfrwt>
<totfact> 0.11564482E+05</totfact>
</mgrwt>
</event>
<event>
 5    1  0.2718303E+000  0.9327937E+02  0.7818608E-02  0.1295099E+00
         -1   -1    0    0    0  501 -0.00000000000E+00  0.00000000000E+00  0.73705579095E+02  0.73705579243E+02  0.46700000000E-02 0.  1.
          1   -1    0    0  501    0  0.00000000000E+00 -0.00000000000E+00 -0.29512828192E+02  0.29512828562E+02  0.46700000000E-02 0. -1.
         23    2    1    2    0    0  0.00000000000E+00  0.00000000000E+00  0.44192750903E+02  0.10321840780E+03  0.93279367908E+02 0.  0.
        -11    1    3    3    0    0 -0.15386635827E+02 -0.14728437755E+02 -0.23816633493E+02  0.31951642711E+02  0.51100000000E-03 0. -1.
         11    1    3    3    0    0  0.15386635827E+02  0.14728437755E+02  0.68009384395E+02  0.71266765093E+02  0.51100000000E-03 0.  1.
<mgrwt>
<rscale>  0 0.93279368E+02</rscale>
<asrwt>0</asrwt>
<pdfrwt beam="2">  1        1 0.45404353E-02 0.93279368E+02</pdfrwt>
<pdfrwt beam="1">  1       -1 0.11339320E-01 0.93279368E+02</pdfrwt>
<totfact> 0.80955798E+04</totfact>
</mgrwt>
</event>
<event>
 5    1  0.2718303E+000  0.9262426E+02  0.7818608E-02  0.1296618E+00
          1   -1    0    0  501    0  0.00000000000E+00  0.00000000000E+00  0.45130699735E+02  0.45130699977E+02  0.46700000000E-02 0. -1.
         -1   -1    0    0    0  501 -0.00000000000E+00 -0.00000000000E+00 -0.47524482477E+02  0.47524482706E+02  0.46700000000E-02 0.  1.
         23    2    1    2    0    0  0.00000000000E+00  0.00000000000E+00 -0.23937827415E+01  0.92655182683E+02  0.92624255366E+02 0.  0.
        -11    1    3    3    0    0  0.41143722718E+02  0.91565502181E+01  0.17997137425E+02  0.45831706130E+02  0.51100000000E-03 0. -1.
         11    1    3    3    0    0 -0.41143722718E+02 -0.91565502181E+01 -0.20390920167E+02  0.46823476553E+02  0.51100000000E-03 0.  1.
<mgrwt>
<rscale>  0 0.92624255E+02</rscale>
<asrwt>0</asrwt>
<pdfrwt beam="1">  1        1 0.69431847E-02 0.92624255E+02</pdfrwt>
<pdfrwt beam="2">  1       -1 0.73114588E-02 0.92624255E+02</pdfrwt>
<totfact> 0.88328336E+04</totfact>
</mgrwt>
</event>
<event>
 5    1  0.2718303E+000  0.9112549E+02  0.7818608E-02  0.1300149E+00
         -1   -1    0    0    0  501 -0.00000000000E+00  0.00000000000E+00  0.83372834873E+01  0.83372847952E+01  0.46700000000E-02 0.  1.
          1   -1    0    0  501    0  0.00000000000E+00 -0.00000000000E+00 -0.24899761273E+03  0.24899761277E+03  0.46700000000E-02 0. -1.
         23    2    1    2    0    0  0.00000000000E+00  0.00000000000E+00 -0.24066032924E+03  0.25733489756E+03  0.91125492786E+02 0.  0.
        -11    1    3    3    0    0  0.31536829557E+02 -0.21356984600E+02 -0.49715793645E+02  0.62628687897E+02  0.51100000000E-03 0.  1.
         11    1    3    3    0    0 -0.31536829557E+02  0.21356984600E+02 -0.19094453559E+03  0.19470620967E+03  0.51100000000E-03 0. -1.
<mgrwt>
<rscale>  0 0.91125493E+02</rscale>
<asrwt>0</asrwt>
<pdfrwt beam="2">  1        1 0.38307319E-01 0.91125493E+02</pdfrwt>
<pdfrwt beam="1">  1       -1 0.12826593E-02 0.91125493E+02</pdfrwt>
<totfact> 0.12375951E+05</totfact>
</mgrwt>
</event>
<event>
 5    1  0.2718303E+000  0.8712146E+02  0.7818608E-02  0.1309976E+00
          1   -1    0    0  501    0  0.00000000000E+00  0.00000000000E+00  0.96753708012E+02  0.96753708124E+02  0.46700000000E-02 0. -1.
         -1   -1    0    0    0  501 -0.00000000000E+00 -0.00000000000E+00 -0.19612035192E+02  0.19612035748E+02  0.46700000000E-02 0.  1.
         23    2    1    2    0    0  0.00000000000E+00  0.00000000000E+00  0.77141672820E+02  0.11636574387E+03  0.87121459248E+02 0.  0.
        -11    1    3    3    0    0 -0.39128882365E+02  0.14949899770E+02  0.22600290023E+02  0.47595609542E+02  0.51100000000E-03 0.  1.
         11    1    3    3    0    0  0.39128882365E+02 -0.14949899770E+02  0.54541382797E+02  0.68770134331E+02  0.51100000000E-03 0. -1.
<mgrwt>
<rscale>  0 0.87121459E+02</rscale>
<asrwt>0</asrwt>
<pdfrwt beam="1">  1        1 0.14885186E-01 0.87121459E+02</pdfrwt>
<pdfrwt beam="2">  1       -1 0.30172363E-02 0.87121459E+02</pdfrwt>
<totfact> 0.11755930E+05</totfact>
</mgrwt>
</event>
<event>
 5    1  0.2718303E+000  0.9274370E+02  0.7818608E-02  0.1296340E+00
         -1   -1    0    0    0  501 -0.00000000000E+00  0.00000000000E+00  0.25908291403E+02  0.25908291824E+02  0.46700000000E-02 0.  1.
          1   -1    0    0  501    0  0.00000000000E+00 -0.00000000000E+00 -0.82998468063E+02  0.82998468194E+02  0.46700000000E-02 0. -1.
         23    2    1    2    0    0  0.00000000000E+00  0.00000000000E+00 -0.57090176660E+02  0.10890676002E+03  0.92743701169E+02 0.  0.
        -11    1    3    3    0    0  0.13600108161E+02 -0.44331612452E+02 -0.28185595209E+02  0.54264929579E+02  0.51100000000E-03 0. -1.
         11    1    3    3    0    0 -0.13600108161E+02  0.44331612452E+02 -0.28904581451E+02  0.54641830439E+02  0.51100000000E-03 0.  1.
<mgrwt>
<rscale>  0 0.92743701E+02</rscale>
<asrwt>0</asrwt>
<pdfrwt beam="2">  1        1 0.12768995E-01 0.92743701E+02</pdfrwt>
<pdfrwt beam="1">  1       -1 0.39858911E-02 0.92743701E+02</pdfrwt>
<totfact> 0.96699089E+04</totfact>
</mgrwt>
</event>
<event>
 5    1  0.2718303E+000  0.8792288E+02  0.7818608E-02  0.1307961E+00
          1   -1    0    0  501    0  0.00000000000E+00  0.00000000000E+00  0.30811670381E+02  0.30811670735E+02  0.46700000000E-02 0. -1.
         -1   -1    0    0    0  501 -0.00000000000E+00 -0.00000000000E+00 -0.62723253890E+02  0.62723254063E+02  0.46700000000E-02 0.  1.
         23    2    1    2    0    0  0.00000000000E+00  0.00000000000E+00 -0.31911583508E+02  0.93534924798E+02  0.87922880953E+02 0.  0.
        -11    1    3    3    0    0  0.39535309887E+02 -0.19157964388E+02 -0.14260353395E+02  0.46189024742E+02  0.51100000000E-03 0.  1.
         11    1    3    3    0    0 -0.39535309887E+02  0.19157964388E+02 -0.17651230113E+02  0.47345900057E+02  0.51100000000E-03 0. -1.
<mgrwt>
<rscale>  0 0.87922881E+02</rscale>
<asrwt>0</asrwt>
<pdfrwt beam="1">  1        1 0.47402570E-02 0.87922881E+02</pdfrwt>
<pdfrwt beam="2">  1       -1 0.96497314E-02 0.87922881E+02</pdfrwt>
<totfact> 0.96571605E+04</totfact>
</mgrwt>
</event>
<event>
 5    1  0.2718303E+000  0.8966080E+02  0.7818608E-02  0.1303675E+00
          1   -1    0    0  501    0  0.00000000000E+00  0.00000000000E+00  0.25011807140E+03  0.25011807144E+03  0.46700000000E-02 0. -1.
         -1   -1    0    0    0  501 -0.00000000000E+00 -0.00000000000E+00 -0.80352632502E+01  0.80352646073E+01  0.46700000000E-02 0.  1.
         23    2    1    2    0    0  0.00000000000E+00  0.00000000000E+00  0.24208280815E+03  0.25815333605E+03  0.89660799195E+02 0.  0.
        -11    1    3    3    0    0  0.16645197159E+02  0.41313759189E+02  0.10639540452E+03  0.11534240933E+03  0.51100000000E-03 0. -1.
         11    1    3    3    0    0 -0.16645197159E+02 -0.41313759189E+02  0.13568740363E+03  0.14281092672E+03  0.51100000000E-03 0.  1.
<mgrwt>
<rscale>  0 0.89660799E+02</rscale>
<asrwt>0</asrwt>
<pdfrwt beam="1">  1        1 0.38479699E-01 0.89660799E+02</pdfrwt>
<pdfrwt beam="2">  1       -1 0.12361946E-02 0.89660799E+02</pdfrwt>
<totfact> 0.12933899E+05</totfact>
</mgrwt>
</event>
<event>
 5    1  0.2718303E+000  0.8926802E+02  0.7818608E-02  0.1304634E+00
          1   -1    0    0  501    0  0.00000000000E+00  0.00000000000E+00  0.34184813031E+02  0.34184813350E+02  0.46700000000E-02 0. -1.
         -1   -1    0    0    0  501 -0.00000000000E+00 -0.00000000000E+00 -0.58277192958E+02  0.58277193145E+02  0.46700000000E-02 0.  1.
         23    2    1    2    0    0  0.00000000000E+00  0.00000000000E+00 -0.24092379927E+02  0.92462006495E+02  0.89268022687E+02 0.  0.
        -11    1    3    3    0    0 -0.50825406403E+00  0.17417125013E+02 -0.54608801847E+02  0.57321338132E+02  0.51100000000E-03 0.  1.
         11    1    3    3    0    0  0.50825406403E+00 -0.17417125013E+02  0.30516421920E+02  0.35140668362E+02  0.51100000000E-03 0. -1.
<mgrwt>
<rscale>  0 0.89268023E+02</rscale>
<asrwt>0</asrwt>
<pdfrwt beam="1">  1        1 0.52592020E-02 0.89268023E+02</pdfrwt>
<pdfrwt beam="2">  1       -1 0.89657220E-02 0.89268023E+02</pdfrwt>
<totfact> 0.93981316E+04</totfact>
</mgrwt>
</event>
<event>
 5    1  0.2718303E+000  0.9065364E+02  0.7818608E-02  0.1301276E+00
          1   -1    0    0  501    0  0.00000000000E+00  0.00000000000E+00  0.27023969649E+02  0.27023970052E+02  0.46700000000E-02 0. -1.
         -1   -1    0    0    0  501 -0.00000000000E+00 -0.00000000000E+00 -0.76025859514E+02  0.76025859657E+02  0.46700000000E-02 0.  1.
         23    2    1    2    0    0  0.00000000000E+00  0.00000000000E+00 -0.49001889865E+02  0.10304982971E+03  0.90653638608E+02 0.  0.
        -11    1    3    3    0    0 -0.28606351580E+02 -0.32537002346E+02 -0.93544908625E+01  0.44322526687E+02  0.51100000000E-03 0. -1.
         11    1    3    3    0    0  0.28606351580E+02  0.32537002346E+02 -0.39647399003E+02  0.58727303023E+02  0.51100000000E-03 0.  1.
<mgrwt>
<rscale>  0 0.90653639E+02</rscale>
<asrwt>0</asrwt>
<pdfrwt beam="1">  1        1 0.41575339E-02 0.90653639E+02</pdfrwt>
<pdfrwt beam="2">  1       -1 0.11696286E-01 0.90653639E+02</pdfrwt>
<totfact> 0.86640829E+04</totfact>
</mgrwt>
</event>
<event>
 5    1  0.2718303E+000  0.8684574E+02  0.7818608E-02  0.1310675E+00
          1   -1    0    0  501    0  0.00000000000E+00  0.00000000000E+00  0.12981309225E+03  0.12981309233E+03  0.46700000000E-02 0. -1.
         -1   -1    0    0    0  501 -0.00000000000E+00 -0.00000000000E+00 -0.14525079435E+02  0.14525080186E+02  0.46700000000E-02 0.  1.
         23    2    1    2    0    0  0.00000000000E+00  0.00000000000E+00  0.11528801281E+03  0.14433817252E+03  0.86845737647E+02 0.  0.
        -11    1    3    3    0    0  0.15802224127E+02  0.32424532083E+02  0.17463133497E+02  0.40075199313E+02  0.51100000000E-03 0.  1.
         11    1    3    3    0    0 -0.15802224127E+02 -0.32424532083E+02  0.97824879316E+02  0.10426297321E+03  0.51100000000E-03 0. -1.
<mgrwt>
<rscale>  0 0.86845738E+02</rscale>
<asrwt>0</asrwt>
<pdfrwt beam="1">  1        1 0.19971244E-01 0.86845738E+02</pdfrwt>
<pdfrwt beam="2">  1       -1 0.22346277E-02 0.86845738E+02</pdfrwt>
<totfact> 0.12456053E+05</totfact>
</mgrwt>
</event>
<event>
 5    1  0.2718303E+000  0.8710723E+02  0.7818608E-02  0.1310012E+00
          1   -1    0    0  501    0  0.00000000000E+00  0.00000000000E+00  0.16380148679E+02  0.16380149345E+02  0.46700000000E-02 0. -1.
         -1   -1    0    0    0  501 -0.00000000000E+00 -0.00000000000E+00 -0.11580586859E+03  0.11580586869E+03  0.46700000000E-02 0.  1.
         23    2    1    2    0    0  0.00000000000E+00  0.00000000000E+00 -0.99425719914E+02  0.13218601803E+03  0.87107230371E+02 0.  0.
        -11    1    3    3    0    0  0.23170702528E+02 -0.19275622398E+02 -0.20020656726E+01  0.30206610894E+02  0.51100000000E-03 0. -1.
         11    1    3    3    0    0 -0.23170702528E+02  0.19275622398E+02 -0.97423654241E+02  0.10197940714E+03  0.51100000000E-03 0.  1.
<mgrwt>
<rscale>  0 0.87107230E+02</rscale>
<asrwt>0</asrwt>
<pdfrwt beam="1">  1        1 0.25200230E-02 0.87107230E+02</pdfrwt>
<pdfrwt beam="2">  1       -1 0.17816287E-01 0.87107230E+02</pdfrwt>
<totfact> 0.88982834E+04</totfact>
</mgrwt>
</event>
<event>
 5    1  0.2718303E+000  0.9060054E+02  0.7818608E-02  0.1301404E+00
          1   -1    0    0  501    0  0.00000000000E+00  0.00000000000E+00  0.31860033152E+03  0.31860033155E+03  0.46700000000E-02 0. -1.
         -1   -1    0    0    0  501 -0.00000000000E+00 -0.00000000000E+00 -0.64410294227E+01  0.64410311156E+01  0.46700000000E-02 0.  1.
         23    2    1    2    0    0  0.00000000000E+00  0.00000000000E+00  0.31215930210E+03  0.32504136267E+03  0.90600538411E+02 0.  0.
        -11    1    3    3    0    0 -0.39662161960E+02  0.14856175034E+02  0.98417875371E+02  0.10714416093E+03  0.51100000000E-03 0.  1.
         11    1    3    3    0    0  0.39662161960E+02 -0.14856175034E+02  0.21374142673E+03  0.21789720174E+03  0.51100000000E-03 0. -1.
<mgrwt>
<rscale>  0 0.90600538E+02</rscale>
<asrwt>0</asrwt>
<pdfrwt beam="1">  1        1 0.49015439E-01 0.90600538E+02</pdfrwt>
<pdfrwt beam="2">  1       -1 0.99092767E-03 0.90600538E+02</pdfrwt>
<totfact> 0.13179011E+05</totfact>
</mgrwt>
</event>
<event>
 5    1  0.2718303E+000  0.8920078E+02  0.7818608E-02  0.1304799E+00
         -1   -1    0    0    0  501 -0.00000000000E+00  0.00000000000E+00  0.40546102692E+02  0.40546102961E+02  0.46700000000E-02 0.  1.
          1   -1    0    0  501    0  0.00000000000E+00 -0.00000000000E+00 -0.49060077517E+02  0.49060077739E+02  0.46700000000E-02 0. -1.
         23    2    1    2    0    0  0.00000000000E+00  0.00000000000E+00 -0.85139748243E+01  0.89606180700E+02  0.89200783923E+02 0.  0.
        -11    1    3    3    0    0  0.35478480684E+02 -0.32453029455E+01 -0.31210636012E+02  0.47364104376E+02  0.51100000000E-03 0. -1.
         11    1    3    3    0    0 -0.35478480684E+02  0.32453029455E+01  0.22696661188E+02  0.42242076324E+02  0.51100000000E-03 0.  1.
<mgrwt>
<rscale>  0 0.89200784E+02</rscale>
<asrwt>0</asrwt>
<pdfrwt beam="2">  1        1 0.75477043E-02 0.89200784E+02</pdfrwt>
<pdfrwt beam="1">  1       -1 0.62378620E-02 0.89200784E+02</pdfrwt>
<totfact> 0.99391908E+04</totfact>
</mgrwt>
</event>
<event>
 5    1  0.2718303E+000  0.9256863E+02  0.7818608E-02  0.1296748E+00
          1   -1    0    0  501    0  0.00000000000E+00  0.00000000000E+00  0.10885475844E+02  0.10885476845E+02  0.46700000000E-02 0. -1.
         -1   -1    0    0    0  501 -0.00000000000E+00 -0.00000000000E+00 -0.19679780372E+03  0.19679780378E+03  0.46700000000E-02 0.  1.
         23    2    1    2    0    0  0.00000000000E+00  0.00000000000E+00 -0.18591232788E+03  0.20768328062E+03  0.92568630718E+02 0.  0.
        -11    1    3    3    0    0 -0.19424136219E+02  0.28920779287E+02 -0.16132142922E+03  0.16504033467E+03  0.51100000000E-03 0.  1.
         11    1    3    3    0    0  0.19424136219E+02 -0.28920779287E+02 -0.24590898661E+02  0.42642945954E+02  0.51100000000E-03 0. -1.
<mgrwt>
<rscale>  0 0.92568631E+02</rscale>
<asrwt>0</asrwt>
<pdfrwt beam="1">  1        1 0.16746888E-02 0.92568631E+02</pdfrwt>
<pdfrwt beam="2">  1       -1 0.30276583E-01 0.92568631E+02</pdfrwt>
<totfact> 0.67041926E+04</totfact>
</mgrwt>
</event>
<event>
 5    1  0.2718303E+000  0.9754643E+02  0.7818608E-02  0.1285542E+00
         -1   -1    0    0    0  501 -0.00000000000E+00  0.00000000000E+00  0.22519551425E+02  0.22519551909E+02  0.46700000000E-02 0.  1.
          1   -1    0    0  501    0  0.00000000000E+00 -0.00000000000E+00 -0.10563383781E+03  0.10563383792E+03  0.46700000000E-02 0. -1.
         23    2    1    2    0    0  0.00000000000E+00  0.00000000000E+00 -0.83114286388E+02  0.12815338982E+03  0.97546433670E+02 0.  0.
        -11    1    3    3    0    0  0.16682553771E+02 -0.17318631454E+02  0.14190358037E+02  0.27921476630E+02  0.51100000000E-03 0.  1.
         11    1    3    3    0    0 -0.16682553771E+02  0.17318631454E+02 -0.97304644424E+02  0.10023191319E+03  0.51100000000E-03 0. -1.
<mgrwt>
<rscale>  0 0.97546434E+02</rscale>
<asrwt>0</asrwt>
<pdfrwt beam="2">  1        1 0.16251359E-01 0.97546434E+02</pdfrwt>
<pdfrwt beam="1">  1       -1 0.34645465E-02 0.97546434E+02</pdfrwt>
<totfact> 0.87633465E+04</totfact>
</mgrwt>
</event>
<event>
 5    1  0.2718303E+000  0.9201907E+02  0.7818608E-02  0.1298035E+00
         -1   -1    0    0    0  501 -0.00000000000E+00  0.00000000000E+00  0.11676502545E+03  0.11676502554E+03  0.46700000000E-02 0.  1.
          1   -1    0    0  501    0  0.00000000000E+00 -0.00000000000E+00 -0.18129376044E+02  0.18129376645E+02  0.46700000000E-02 0. -1.
         23    2    1    2    0    0  0.00000000000E+00  0.00000000000E+00  0.98635649403E+02  0.13489440219E+03  0.92019065459E+02 0.  0.
        -11    1    3    3    0    0  0.45307619687E+02 -0.44400770875E+01  0.59083933920E+02  0.74588242599E+02  0.51100000000E-03 0.  1.
         11    1    3    3    0    0 -0.45307619687E+02  0.44400770875E+01  0.39551715483E+02  0.60306159587E+02  0.51100000000E-03 0. -1.
<mgrwt>
<rscale>  0 0.92019065E+02</rscale>
<asrwt>0</asrwt>
<pdfrwt beam="2">  1        1 0.27891348E-02 0.92019065E+02</pdfrwt>
<pdfrwt beam="1">  1       -1 0.17963851E-01 0.92019065E+02</pdfrwt>
<totfact> 0.77111407E+04</totfact>
</mgrwt>
</event>
<event>
 5    1  0.2718303E+000  0.9093787E+02  0.7818608E-02  0.1300596E+00
         -1   -1    0    0    0  501 -0.00000000000E+00  0.00000000000E+00  0.54788104649E+02  0.54788104848E+02  0.46700000000E-02 0.  1.
          1   -1    0    0  501    0  0.00000000000E+00 -0.00000000000E+00 -0.37734904396E+02  0.37734904685E+02  0.46700000000E-02 0. -1.
         23    2    1    2    0    0  0.00000000000E+00  0.00000000000E+00  0.17053200252E+02  0.92523009533E+02  0.90937866998E+02 0.  0.
        -11    1    3    3    0    0 -0.44378133847E+02 -0.11712139252E+01  0.18528180616E+02  0.48104926806E+02  0.51100000000E-03 0.  1.
         11    1    3    3    0    0  0.44378133847E+02  0.11712139252E+01 -0.14749803638E+01  0.44418082727E+02  0.51100000000E-03 0. -1.
<mgrwt>
<rscale>  0 0.90937867E+02</rscale>
<asrwt>0</asrwt>
<pdfrwt beam="2">  1        1 0.58053700E-02 0.90937867E+02</pdfrwt>
<pdfrwt beam="1">  1       -1 0.84289391E-02 0.90937867E+02</pdfrwt>
<totfact> 0.90531489E+04</totfact>
</mgrwt>
</event>
<event>
 5    1  0.2718303E+000  0.9214668E+02  0.7818608E-02  0.1297735E+00
          1   -1    0    0  501    0  0.00000000000E+00  0.00000000000E+00  0.35808208987E+03  0.35808208990E+03  0.46700000000E-02 0. -1.
         -1   -1    0    0    0  501 -0.00000000000E+00 -0.00000000000E+00 -0.59281162366E+01  0.59281180760E+01  0.46700000000E-02 0.  1.
         23    2    1    2    0    0  0.00000000000E+00  0.00000000000E+00  0.35215397364E+03  0.36401020798E+03  0.92146678537E+02 0.  0.
        -11    1    3    3    0    0  0.42358533041E+02 -0.10545363227E+02  0.23430960580E+03  0.23834101908E+03  0.51100000000E-03 0. -1.
         11    1    3    3    0    0 -0.42358533041E+02  0.10545363227E+02  0.11784436784E+03  0.12566918890E+03  0.51100000000E-03 0.  1.
<mgrwt>
<rscale>  0 0.92146679E+02</rscale>
<asrwt>0</asrwt>
<pdfrwt beam="1">  1        1 0.55089551E-01 0.92146679E+02</pdfrwt>
<pdfrwt beam="2">  1       -1 0.91201805E-03 0.92146679E+02</pdfrwt>
<totfact> 0.12869212E+05</totfact>
</mgrwt>
</event>
<event>
 5    1  0.2718303E+000  0.8389709E+02  0.7818608E-02  0.1318342E+00
         -1   -1    0    0    0  501 -0.00000000000E+00  0.00000000000E+00  0.15458163742E+03  0.15458163749E+03  0.46700000000E-02 0.  1.
          1   -1    0    0  501    0  0.00000000000E+00 -0.00000000000E+00 -0.11383500667E+02  0.11383501625E+02  0.46700000000E-02 0. -1.
         23    2    1    2    0    0  0.00000000000E+00  0.00000000000E+00  0.14319813675E+03  0.16596513911E+03  0.83897085955E+02 0.  0.
        -11    1    3    3    0    0 -0.34093142760E+02  0.82368886050E+01  0.11711878091E+03  0.12225791410E+03  0.51100000000E-03 0.  1.
         11    1    3    3    0    0  0.34093142760E+02 -0.82368886050E+01  0.26079355835E+02  0.43707225011E+02  0.51100000000E-03 0. -1.
<mgrwt>
<rscale>  0 0.83897086E+02</rscale>
<asrwt>0</asrwt>
<pdfrwt beam="2">  1        1 0.17513079E-02 0.83897086E+02</pdfrwt>
<pdfrwt beam="1">  1       -1 0.23781790E-01 0.83897086E+02</pdfrwt>
<totfact> 0.92110568E+04</totfact>
</mgrwt>
</event>
<event>
 5    1  0.2718303E+000  0.9022247E+02  0.7818608E-02  0.1302314E+00
          1   -1    0    0  501    0  0.00000000000E+00  0.00000000000E+00  0.10259362485E+03  0.10259362496E+03  0.46700000000E-02 0. -1.
         -1   -1    0    0    0  501 -0.00000000000E+00 -0.00000000000E+00 -0.19835769277E+02  0.19835769827E+02  0.46700000000E-02 0.  1.
         23    2    1    2    0    0  0.00000000000E+00  0.00000000000E+00  0.82757855575E+02  0.12242939479E+03  0.90222469753E+02 0.  0.
        -11    1    3    3    0    0  0.17507313237E+02 -0.29990084114E+02  0.23058444745E+01  0.34802702207E+02  0.51100000000E-03 0.  1.
         11    1    3    3    0    0 -0.17507313237E+02  0.29990084114E+02  0.80452011100E+02  0.87626692579E+02  0.51100000000E-03 0. -1.
<mgrwt>
<rscale>  0 0.90222470E+02</rscale>
<asrwt>0</asrwt>
<pdfrwt beam="1">  1        1 0.15783635E-01 0.90222470E+02</pdfrwt>
<pdfrwt beam="2">  1       -1 0.30516569E-02 0.90222470E+02</pdfrwt>
<totfact> 0.10794488E+05</totfact>
</mgrwt>
</event>
<event>
 5    1  0.2718303E+000  0.8917198E+02  0.7818608E-02  0.1304869E+00
          1   -1    0    0  501    0  0.00000000000E+00  0.00000000000E+00  0.68973730419E+02  0.68973730577E+02  0.46700000000E-02 0. -1.
         -1   -1    0    0    0  501 -0.00000000000E+00 -0.00000000000E+00 -0.28821271092E+02  0.28821271471E+02  0.46700000000E-02 0.  1.
         23    2    1    2    0    0  0.00000000000E+00  0.00000000000E+00  0.40152459326E+02  0.97795002048E+02  0.89171982346E+02 0.  0.
        -11    1    3    3    0    0  0.18726250411E+02  0.39989248053E+02  0.13306981510E+02  0.46118197834E+02  0.51100000000E-03 0.  1.
         11    1    3    3    0    0 -0.18726250411E+02 -0.39989248053E+02  0.26845477816E+02  0.51676804214E+02  0.51100000000E-03 0. -1.
<mgrwt>
<rscale>  0 0.89171982E+02</rscale>
<asrwt>0</asrwt>
<pdfrwt beam="1">  1        1 0.10611343E-01 0.89171982E+02</pdfrwt>
<pdfrwt beam="2">  1       -1 0.44340418E-02 0.89171982E+02</pdfrwt>
<totfact> 0.10465567E+05</totfact>
</mgrwt>
</event>
<event>
 5    1  0.2718303E+000  0.9315283E+02  0.7818608E-02  0.1295391E+00
         -1   -1    0    0    0  501 -0.00000000000E+00  0.00000000000E+00  0.93751173537E+02  0.93751173653E+02  0.46700000000E-02 0.  1.
          1   -1    0    0  501    0  0.00000000000E+00 -0.00000000000E+00 -0.23139574845E+02  0.23139575316E+02  0.46700000000E-02 0. -1.
         23    2    1    2    0    0  0.00000000000E+00  0.00000000000E+00  0.70611598692E+02  0.11689074897E+03  0.93152827787E+02 0.  0.
        -11    1    3    3    0    0 -0.23562141006E+02  0.67084763434E+01 -0.14401602068E+02  0.28418027482E+02  0.51100000000E-03 0. -1.
         11    1    3    3    0    0  0.23562141006E+02 -0.67084763434E+01  0.85013200760E+02  0.88472721487E+02  0.51100000000E-03 0.  1.
<mgrwt>
<rscale>  0 0.93152828E+02</rscale>
<asrwt>0</asrwt>
<pdfrwt beam="2">  1        1 0.35599346E-02 0.93152828E+02</pdfrwt>
<pdfrwt beam="1">  1       -1 0.14423258E-01 0.93152828E+02</pdfrwt>
<totfact> 0.77916706E+04</totfact>
</mgrwt>
</event>
<event>
 5    1  0.2718303E+000  0.9262760E+02  0.7818608E-02  0.1296611E+00
         -1   -1    0    0    0  501 -0.00000000000E+00  0.00000000000E+00  0.34730587758E+03  0.34730587761E+03  0.46700000000E-02 0.  1.
          1   -1    0    0  501    0  0.00000000000E+00 -0.00000000000E+00 -0.61760185778E+01  0.61760203434E+01  0.46700000000E-02 0. -1.
         23    2    1    2    0    0  0.00000000000E+00  0.00000000000E+00  0.34112985900E+03  0.35348189795E+03  0.92627595666E+02 0.  0.
        -11    1    3    3    0    0 -0.75067236381E+01 -0.40810178029E+02  0.24906536766E+03  0.25249827504E+03  0.51100000000E-03 0.  1.
         11    1    3    3    0    0  0.75067236381E+01  0.40810178029E+02  0.92064491343E+02  0.10098362292E+03  0.51100000000E-03 0. -1.
<mgrwt>
<rscale>  0 0.92627596E+02</rscale>
<asrwt>0</asrwt>
<pdfrwt beam="2">  1        1 0.95015660E-03 0.92627596E+02</pdfrwt>
<pdfrwt beam="1">  1       -1 0.53431687E-01 0.92627596E+02</pdfrwt>
<totfact> 0.54673994E+04</totfact>
</mgrwt>
</event>
<event>
 5    1  0.2718303E+000  0.8792231E+02  0.7818608E-02  0.1307963E+00
          1   -1    0    0  501    0  0.00000000000E+00  0.00000000000E+00  0.28289131242E+02  0.28289131628E+02  0.46700000000E-02 0. -1.
         -1   -1    0    0    0  501 -0.00000000000E+00 -0.00000000000E+00 -0.68315396734E+02  0.68315396894E+02  0.46700000000E-02 0.  1.
         23    2    1    2    0    0  0.00000000000E+00  0.00000000000E+00 -0.40026265492E+02  0.96604528522E+02  0.87922312309E+02 0.  0.
        -11    1    3    3    0    0 -0.42136589529E+02 -0.12307566332E+02 -0.17409565621E+02  0.47223525297E+02  0.51100000000E-03 0. -1.
         11    1    3    3    0    0  0.42136589529E+02  0.12307566332E+02 -0.22616699871E+02  0.49381003225E+02  0.51100000000E-03 0.  1.
<mgrwt>
<rscale>  0 0.87922312E+02</rscale>
<asrwt>0</asrwt>
<pdfrwt beam="1">  1        1 0.43521741E-02 0.87922312E+02</pdfrwt>
<pdfrwt beam="2">  1       -1 0.10510061E-01 0.87922312E+02</pdfrwt>
<totfact> 0.95297423E+04</totfact>
</mgrwt>
</event>
<event>
 5    1  0.2718303E+000  0.9062258E+02  0.7818608E-02  0.1301351E+00
          1   -1    0    0  501    0  0.00000000000E+00  0.00000000000E+00  0.23017197588E+02  0.23017198062E+02  0.46700000000E-02 0. -1.
         -1   -1    0    0    0  501 -0.00000000000E+00 -0.00000000000E+00 -0.89199093644E+02  0.89199093767E+02  0.46700000000E-02 0.  1.
         23    2    1    2    0    0  0.00000000000E+00  0.00000000000E+00 -0.66181896056E+02  0.11221629183E+03  0.90622584305E+02 0.  0.
        -11    1    3    3    0    0  0.34984088853E+02  0.68599616429E+01 -0.67722295936E+02  0.76532704864E+02  0.51100000000E-03 0.  1.
         11    1    3    3    0    0 -0.34984088853E+02 -0.68599616429E+01  0.15403998798E+01  0.35683586965E+02  0.51100000000E-03 0. -1.
<mgrwt>
<rscale>  0 0.90622584E+02</rscale>
<asrwt>0</asrwt>
<pdfrwt beam="1">  1        1 0.35411074E-02 0.90622584E+02</pdfrwt>
<pdfrwt beam="2">  1       -1 0.13722937E-01 0.90622584E+02</pdfrwt>
<totfact> 0.84383523E+04</totfact>
</mgrwt>
</event>
<event>
 5    1  0.2718303E+000  0.9166064E+02  0.7818608E-02  0.1298879E+00
         -1   -1    0    0    0  501 -0.00000000000E+00  0.00000000000E+00  0.81301693908E+01  0.81301707320E+01  0.46700000000E-02 0.  1.
          1   -1    0    0  501    0  0.00000000000E+00 -0.00000000000E+00 -0.25834861578E+03  0.25834861582E+03  0.46700000000E-02 0. -1.
         23    2    1    2    0    0  0.00000000000E+00  0.00000000000E+00 -0.25021844639E+03  0.26647878655E+03  0.91660639153E+02 0.  0.
        -11    1    3    3    0    0 -0.31118518050E+02 -0.30916428002E+02 -0.16370326875E+03  0.16947845847E+03  0.51100000000E-03 0.  1.
         11    1    3    3    0    0  0.31118518050E+02  0.30916428002E+02 -0.86515177642E+02  0.97000328086E+02  0.51100000000E-03 0. -1.
<mgrwt>
<rscale>  0 0.91660639E+02</rscale>
<asrwt>0</asrwt>
<pdfrwt beam="2">  1        1 0.39745935E-01 0.91660639E+02</pdfrwt>
<pdfrwt beam="1">  1       -1 0.12507956E-02 0.91660639E+02</pdfrwt>
<totfact> 0.12271617E+05</totfact>
</mgrwt>
</event>
<event>
 5    1  0.2718303E+000  0.9170862E+02  0.7818608E-02  0.1298766E+00
          1   -1    0    0  501    0  0.00000000000E+00  0.00000000000E+00  0.58225007668E+02  0.58225007855E+02  0.46700000000E-02 0. -1.
         -1   -1    0    0    0  501 -0.00000000000E+00 -0.00000000000E+00 -0.36111934849E+02  0.36111935150E+02  0.46700000000E-02 0.  1.
         23    2    1    2    0    0  0.00000000000E+00  0.00000000000E+00  0.22113072819E+02  0.94336943006E+02  0.91708619149E+02 0.  0.
        -11    1    3    3    0    0 -0.24514338315E+02 -0.25819583583E+02 -0.18668235442E+02  0.40200829521E+02  0.51100000000E-03 0.  1.
         11    1    3    3    0    0  0.24514338315E+02  0.25819583583E+02  0.40781308262E+02  0.54136113484E+02  0.51100000000E-03 0. -1.
<mgrwt>
<rscale>  0 0.91708619E+02</rscale>
<asrwt>0</asrwt>
<pdfrwt beam="1">  1        1 0.89576935E-02 0.91708619E+02</pdfrwt>
<pdfrwt beam="2">  1       -1 0.55556823E-02 0.91708619E+02</pdfrwt>
<totfact> 0.94395765E+04</totfact>
</mgrwt>
</event>
<event>
 5    1  0.2718303E+000  0.9126546E+02  0.7818608E-02  0.1299816E+00
         -1   -1    0    0    0  501 -0.00000000000E+00  0.00000000000E+00  0.44493884354E+02  0.44493884599E+02  0.46700000000E-02 0.  1.
          1   -1    0    0  501    0  0.00000000000E+00 -0.00000000000E+00 -0.46800725926E+02  0.46800726159E+02  0.46700000000E-02 0. -1.
         23    2    1    2    0    0  0.00000000000E+00  0.00000000000E+00 -0.23068415715E+01  0.91294610758E+02  0.91265461350E+02 0.  0.
        -11    1    3    3    0    0  0.19014376073E+02  0.22184258547E+02 -0.36216838405E+02  0.46533291405E+02  0.51100000000E-03 0. -1.
         11    1    3    3    0    0 -0.19014376073E+02 -0.22184258547E+02  0.33909996833E+02  0.44761319353E+02  0.51100000000E-03 0.  1.
<mgrwt>
<rscale>  0 0.91265461E+02</rscale>
<asrwt>0</asrwt>
<pdfrwt beam="2">  1        1 0.72001117E-02 0.91265461E+02</pdfrwt>
<pdfrwt beam="1">  1       -1 0.68452130E-02 0.91265461E+02</pdfrwt>
<totfact> 0.92584945E+04</totfact>
</mgrwt>
</event>
<event>
 5    1  0.2718303E+000  0.9084415E+02  0.7818608E-02  0.1300820E+00
          1   -1    0    0  501    0  0.00000000000E+00  0.00000000000E+00  0.19329729100E+02  0.19329729664E+02  0.46700000000E-02 0. -1.
         -1   -1    0    0    0  501 -0.00000000000E+00 -0.00000000000E+00 -0.10673532868E+03  0.10673532879E+03  0.46700000000E-02 0.  1.
         23    2    1    2    0    0  0.00000000000E+00  0.00000000000E+00 -0.87405599584E+02  0.12606505845E+03  0.90844152940E+02 0.  0.
        -11    1    3    3    0    0 -0.34537634825E+02  0.93116470090E+01 -0.48566709774E+01  0.36099061519E+02  0.51100000000E-03 0. -1.
         11    1    3    3    0    0  0.34537634825E+02 -0.93116470090E+01 -0.82548928607E+02  0.89965996931E+02  0.51100000000E-03 0.  1.
<mgrwt>
<rscale>  0 0.90844153E+02</rscale>
<asrwt>0</asrwt>
<pdfrwt beam="1">  1        1 0.29738046E-02 0.90844153E+02</pdfrwt>
<pdfrwt beam="2">  1       -1 0.16420820E-01 0.90844153E+02</pdfrwt>
<totfact> 0.81135776E+04</totfact>
</mgrwt>
</event>
<event>
 5    1  0.2718303E+000  0.9489118E+02  0.7818608E-02  0.1291421E+00
         -1   -1    0    0    0  501 -0.00000000000E+00  0.00000000000E+00  0.17461936351E+03  0.17461936357E+03  0.46700000000E-02 0.  1.
          1   -1    0    0  501    0  0.00000000000E+00 -0.00000000000E+00 -0.12891375986E+02  0.12891376832E+02  0.46700000000E-02 0. -1.
         23    2    1    2    0    0  0.00000000000E+00  0.00000000000E+00  0.16172798752E+03  0.18751074040E+03  0.94891178821E+02 0.  0.
        -11    1    3    3    0    0 -0.15529574579E+02 -0.42695545529E+02  0.53841287324E+02  0.70448289657E+02  0.51100000000E-03 0. -1.
         11    1    3    3    0    0  0.15529574579E+02  0.42695545529E+02  0.10788670020E+03  0.11706245074E+03  0.51100000000E-03 0.  1.
<mgrwt>
<rscale>  0 0.94891179E+02</rscale>
<asrwt>0</asrwt>
<pdfrwt beam="2">  1        1 0.19832888E-02 0.94891179E+02</pdfrwt>
<pdfrwt beam="1">  1       -1 0.26864516E-01 0.94891179E+02</pdfrwt>
<totfact> 0.64921736E+04</totfact>
</mgrwt>
</event>
<event>
 5    1  0.2718303E+000  0.8953094E+02  0.7818608E-02  0.1303992E+00
         -1   -1    0    0    0  501 -0.00000000000E+00  0.00000000000E+00  0.24340226863E+03  0.24340226867E+03  0.46700000000E-02 0.  1.
          1   -1    0    0  501    0  0.00000000000E+00 -0.00000000000E+00 -0.82330660280E+01  0.82330673524E+01  0.46700000000E-02 0. -1.
         23    2    1    2    0    0  0.00000000000E+00  0.00000000000E+00  0.23516920260E+03  0.25163533603E+03  0.89530935910E+02 0.  0.
        -11    1    3    3    0    0  0.22859923932E+02 -0.34476614113E+02  0.16567242737E+03  0.17075879548E+03  0.51100000000E-03 0.  1.
         11    1    3    3    0    0 -0.22859923932E+02  0.34476614113E+02  0.69496775229E+02  0.80876540544E+02  0.51100000000E-03 0. -1.
<mgrwt>
<rscale>  0 0.89530936E+02</rscale>
<asrwt>0</asrwt>
<pdfrwt beam="2">  1        1 0.12666259E-02 0.89530936E+02</pdfrwt>
<pdfrwt beam="1">  1       -1 0.37446496E-01 0.89530936E+02</pdfrwt>
<totfact> 0.68527239E+04</totfact>
</mgrwt>
</event>
<event>
 5    1  0.2718303E+000  0.8870247E+02  0.7818608E-02  0.1306025E+00
         -1   -1    0    0    0  501 -0.00000000000E+00  0.00000000000E+00  0.57596713767E+01  0.57596732699E+01  0.46700000000E-02 0.  1.
          1   -1    0    0  501    0  0.00000000000E+00 -0.00000000000E+00 -0.34151805469E+03  0.34151805472E+03  0.46700000000E-02 0. -1.
         23    2    1    2    0    0  0.00000000000E+00  0.00000000000E+00 -0.33575838331E+03  0.34727772799E+03  0.88702471183E+02 0.  0.
        -11    1    3    3    0    0  0.26403619834E+02  0.33201909688E+02 -0.11720731806E+03  0.12464779723E+03  0.51100000000E-03 0.  1.
         11    1    3    3    0    0 -0.26403619834E+02 -0.33201909688E+02 -0.21855106525E+03  0.22262993076E+03  0.51100000000E-03 0. -1.
<mgrwt>
<rscale>  0 0.88702471E+02</rscale>
<asrwt>0</asrwt>
<pdfrwt beam="2">  1        1 0.52541224E-01 0.88702471E+02</pdfrwt>
<pdfrwt beam="1">  1       -1 0.88610370E-03 0.88702471E+02</pdfrwt>
<totfact> 0.14119860E+05</totfact>
</mgrwt>
</event>
<event>
 5    1  0.2718303E+000  0.9155579E+02  0.7818608E-02  0.1299127E+00
          1   -1    0    0  501    0  0.00000000000E+00  0.00000000000E+00  0.99134908855E+01  0.99134919855E+01  0.46700000000E-02 0. -1.
         -1   -1    0    0    0  501 -0.00000000000E+00 -0.00000000000E+00 -0.21139028329E+03  0.21139028334E+03  0.46700000000E-02 0.  1.
         23    2    1    2    0    0  0.00000000000E+00  0.00000000000E+00 -0.20147679240E+03  0.22130377532E+03  0.91555792260E+02 0.  0.
        -11    1    3    3    0    0  0.25843737266E+02 -0.30123260160E+02 -0.45602745469E+02  0.60455933977E+02  0.51100000000E-03 0.  1.
         11    1    3    3    0    0 -0.25843737266E+02  0.30123260160E+02 -0.15587404693E+03  0.16084784135E+03  0.51100000000E-03 0. -1.
<mgrwt>
<rscale>  0 0.91555792E+02</rscale>
<asrwt>0</asrwt>
<pdfrwt beam="1">  1        1 0.15251527E-02 0.91555792E+02</pdfrwt>
<pdfrwt beam="2">  1       -1 0.32521579E-01 0.91555792E+02</pdfrwt>
<totfact> 0.67575596E+04</totfact>
</mgrwt>
</event>
<event>
 5    1  0.2718303E+000  0.9065357E+02  0.7818608E-02  0.1301277E+00
          1   -1    0    0  501    0  0.00000000000E+00  0.00000000000E+00  0.14557996683E+03  0.14557996691E+03  0.46700000000E-02 0. -1.
         -1   -1    0    0    0  501 -0.00000000000E+00 -0.00000000000E+00 -0.14112637919E+02  0.14112638692E+02  0.46700000000E-02 0.  1.
         23    2    1    2    0    0  0.00000000000E+00  0.00000000000E+00  0.13146732891E+03  0.15969260560E+03  0.90653569767E+02 0.  0.
        -11    1    3    3    0    0  0.38715006323E+02  0.25027020350E+01  0.24443644585E+02  0.45854192752E+02  0.51100000000E-03 0.  1.
         11    1    3    3    0    0 -0.38715006323E+02 -0.25027020350E+01  0.10702368433E+03  0.11383841285E+03  0.51100000000E-03 0. -1.
<mgrwt>
<rscale>  0 0.90653570E+02</rscale>
<asrwt>0</asrwt>
<pdfrwt beam="1">  1        1 0.22396919E-01 0.90653570E+02</pdfrwt>
<pdfrwt beam="2">  1       -1 0.21711751E-02 0.90653570E+02</pdfrwt>
<totfact> 0.11326479E+05</totfact>
</mgrwt>
</event>
<event>
 5    1  0.2718303E+000  0.9077688E+02  0.7818608E-02  0.1300981E+00
          1   -1    0    0  501    0  0.00000000000E+00  0.00000000000E+00  0.12197590391E+02  0.12197591285E+02  0.46700000000E-02 0. -1.
         -1   -1    0    0    0  501 -0.00000000000E+00 -0.00000000000E+00 -0.16889486913E+03  0.16889486919E+03  0.46700000000E-02 0.  1.
         23    2    1    2    0    0  0.00000000000E+00  0.00000000000E+00 -0.15669727874E+03  0.18109246048E+03  0.90776880746E+02 0.  0.
        -11    1    3    3    0    0  0.19031216626E+02 -0.16970461367E+02 -0.34414693680E+01  0.25729894616E+02  0.51100000000E-03 0. -1.
         11    1    3    3    0    0 -0.19031216626E+02  0.16970461367E+02 -0.15325580937E+03  0.15536256586E+03  0.51100000000E-03 0.  1.
<mgrwt>
<rscale>  0 0.90776881E+02</rscale>
<asrwt>0</asrwt>
<pdfrwt beam="1">  1        1 0.18765526E-02 0.90776881E+02</pdfrwt>
<pdfrwt beam="2">  1       -1 0.25983824E-01 0.90776881E+02</pdfrwt>
<totfact> 0.73493476E+04</totfact>
</mgrwt>
</event>
<event>
 5    1  0.2718303E+000  0.9195266E+02  0.7818608E-02  0.1298191E+00
          1   -1    0    0  501    0  0.00000000000E+00  0.00000000000E+00  0.17185051872E+03  0.17185051878E+03  0.46700000000E-02 0. -1.
         -1   -1    0    0    0  501 -0.00000000000E+00 -0.00000000000E+00 -0.12300356457E+02  0.12300357344E+02  0.46700000000E-02 0.  1.
         23    2    1    2    0    0  0.00000000000E+00  0.00000000000E+00  0.15955016226E+03  0.18415087612E+03  0.91952655754E+02 0.  0.
        -11    1    3    3    0    0  0.30722095696E+02 -0.23946969724E+02  0.12868775025E+03  0.13445386416E+03  0.51100000000E-03 0. -1.
         11    1    3    3    0    0 -0.30722095696E+02  0.23946969724E+02  0.30862412011E+02  0.49697011966E+02  0.51100000000E-03 0.  1.
<mgrwt>
<rscale>  0 0.91952656E+02</rscale>
<asrwt>0</asrwt>
<pdfrwt beam="1">  1        1 0.26438542E-01 0.91952656E+02</pdfrwt>
<pdfrwt beam="2">  1       -1 0.18923626E-02 0.91952656E+02</pdfrwt>
<totfact> 0.11241529E+05</totfact>
</mgrwt>
</event>
<event>
 5    1  0.2718303E+000  0.9127395E+02  0.7818608E-02  0.1299796E+00
          1   -1    0    0  501    0  0.00000000000E+00  0.00000000000E+00  0.10954720009E+02  0.10954721004E+02  0.46700000000E-02 0. -1.
         -1   -1    0    0    0  501 -0.00000000000E+00 -0.00000000000E+00 -0.19012199388E+03  0.19012199394E+03  0.46700000000E-02 0.  1.
         23    2    1    2    0    0  0.00000000000E+00  0.00000000000E+00 -0.17916727387E+03  0.20107671494E+03  0.91273946256E+02 0.  0.
        -11    1    3    3    0    0  0.10425574442E+02 -0.44164148400E+02 -0.78888585995E+02  0.91008645781E+02  0.51100000000E-03 0. -1.
         11    1    3    3    0    0 -0.10425574442E+02  0.44164148400E+02 -0.10027868788E+03  0.11006806916E+03  0.51100000000E-03 0.  1.
<mgrwt>
<rscale>  0 0.91273946E+02</rscale>
<asrwt>0</asrwt>
<pdfrwt beam="1">  1        1 0.16853418E-02 0.91273946E+02</pdfrwt>
<pdfrwt beam="2">  1       -1 0.29249535E-01 0.91273946E+02</pdfrwt>
<totfact> 0.70224295E+04</totfact>
</mgrwt>
</event>
<event>
 5    1  0.2718303E+000  0.8048481E+02  0.7818608E-02  0.1327681E+00
         -1   -1    0    0    0  501 -0.00000000000E+00  0.00000000000E+00  0.80821689479E+02  0.80821689614E+02  0.46700000000E-02 0.  1.
          1   -1    0    0  501    0  0.00000000000E+00 -0.00000000000E+00 -0.20037332386E+02  0.20037332930E+02  0.46700000000E-02 0. -1.
         23    2    1    2    0    0  0.00000000000E+00  0.00000000000E+00  0.60784357093E+02  0.10085902254E+03  0.80484808265E+02 0.  0.
        -11    1    3    3    0    0  0.12100413053E+02 -0.26592168483E+02  0.65072521211E+02  0.71330193030E+02  0.51100000000E-03 0.  1.
         11    1    3    3    0    0 -0.12100413053E+02  0.26592168483E+02 -0.42881641188E+01  0.29528829514E+02  0.51100000000E-03 0. -1.
<mgrwt>
<rscale>  0 0.80484808E+02</rscale>
<asrwt>0</asrwt>
<pdfrwt beam="2">  1        1 0.30826666E-02 0.80484808E+02</pdfrwt>
<pdfrwt beam="1">  1       -1 0.12434106E-01 0.80484808E+02</pdfrwt>
<totfact> 0.11621783E+05</totfact>
</mgrwt>
</event>
<event>
 5    1  0.2718303E+000  0.9241495E+02  0.7818608E-02  0.1297107E+00
         -1   -1    0    0    0  501 -0.00000000000E+00  0.00000000000E+00  0.90898684503E+01  0.90898696499E+01  0.46700000000E-02 0.  1.
          1   -1    0    0  501    0  0.00000000000E+00 -0.00000000000E+00 -0.23489122913E+03  0.23489122918E+03  0.46700000000E-02 0. -1.
         23    2    1    2    0    0  0.00000000000E+00  0.00000000000E+00 -0.22580136068E+03  0.24398109883E+03  0.92414945219E+02 0.  0.
        -11    1    3    3    0    0 -0.98834671201E+01 -0.45122694683E+02 -0.10978806407E+03  0.11910986319E+03  0.51100000000E-03 0.  1.
         11    1    3    3    0    0  0.98834671201E+01  0.45122694683E+02 -0.11601329662E+03  0.12487123564E+03  0.51100000000E-03 0. -1.
<mgrwt>
<rscale>  0 0.92414945E+02</rscale>
<asrwt>0</asrwt>
<pdfrwt beam="2">  1        1 0.36137108E-01 0.92414945E+02</pdfrwt>
<pdfrwt beam="1">  1       -1 0.13984416E-02 0.92414945E+02</pdfrwt>
<totfact> 0.11784139E+05</totfact>
</mgrwt>
</event>
<event>
 5    1  0.2718303E+000  0.9004909E+02  0.7818608E-02  0.1302733E+00
         -1   -1    0    0    0  501 -0.00000000000E+00  0.00000000000E+00  0.72694706534E+01  0.72694721534E+01  0.46700000000E-02 0.  1.
          1   -1    0    0  501    0  0.00000000000E+00 -0.00000000000E+00 -0.27886616200E+03  0.27886616204E+03  0.46700000000E-02 0. -1.
         23    2    1    2    0    0  0.00000000000E+00  0.00000000000E+00 -0.27159669135E+03  0.28613563419E+03  0.90049088859E+02 0.  0.
        -11    1    3    3    0    0  0.26622886502E+02 -0.36189042689E+02 -0.14521629176E+03  0.15200722446E+03  0.51100000000E-03 0. -1.
         11    1    3    3    0    0 -0.26622886502E+02  0.36189042689E+02 -0.12638039959E+03  0.13412840973E+03  0.51100000000E-03 0.  1.
<mgrwt>
<rscale>  0 0.90049089E+02</rscale>
<asrwt>0</asrwt>
<pdfrwt beam="2">  1        1 0.42902478E-01 0.90049089E+02</pdfrwt>
<pdfrwt beam="1">  1       -1 0.11183804E-02 0.90049089E+02</pdfrwt>
<totfact> 0.13059285E+05</totfact>
</mgrwt>
</event>
<event>
 5    1  0.2718303E+000  0.9699193E+02  0.7818608E-02  0.1286752E+00
         -1   -1    0    0    0  501 -0.00000000000E+00  0.00000000000E+00  0.24981966838E+02  0.24981967275E+02  0.46700000000E-02 0.  1.
          1   -1    0    0  501    0  0.00000000000E+00 -0.00000000000E+00 -0.94142248744E+02  0.94142248860E+02  0.46700000000E-02 0. -1.
         23    2    1    2    0    0  0.00000000000E+00  0.00000000000E+00 -0.69160281906E+02  0.11912421614E+03  0.96991928924E+02 0.  0.
        -11    1    3    3    0    0 -0.40644897172E+02 -0.24600474152E+02 -0.46530063321E+02  0.66499908177E+02  0.51100000000E-03 0.  1.
         11    1    3    3    0    0  0.40644897172E+02  0.24600474152E+02 -0.22630218585E+02  0.52624307958E+02  0.51100000000E-03 0. -1.
<mgrwt>
<rscale>  0 0.96991929E+02</rscale>
<asrwt>0</asrwt>
<pdfrwt beam="2">  1        1 0.14483423E-01 0.96991929E+02</pdfrwt>
<pdfrwt beam="1">  1       -1 0.38433796E-02 0.96991929E+02</pdfrwt>
<totfact> 0.87277944E+04</totfact>
</mgrwt>
</event>
<event>
 5    1  0.2718303E+000  0.9158296E+02  0.7818608E-02  0.1299063E+00
          1   -1    0    0  501    0  0.00000000000E+00  0.00000000000E+00  0.32114635745E+02  0.32114636084E+02  0.46700000000E-02 0. -1.
         -1   -1    0    0    0  501 -0.00000000000E+00 -0.00000000000E+00 -0.65292957751E+02  0.65292957918E+02  0.46700000000E-02 0.  1.
         23    2    1    2    0    0  0.00000000000E+00  0.00000000000E+00 -0.33178322006E+02  0.97407594002E+02  0.91582958666E+02 0.  0.
        -11    1    3    3    0    0  0.67079211593E+01  0.45051866881E+02 -0.11578640303E+02  0.46997147012E+02  0.51100000000E-03 0. -1.
         11    1    3    3    0    0 -0.67079211593E+01 -0.45051866881E+02 -0.21599681703E+02  0.50410446989E+02  0.51100000000E-03 0.  1.
<mgrwt>
<rscale>  0 0.91582959E+02</rscale>
<asrwt>0</asrwt>
<pdfrwt beam="1">  1        1 0.49407132E-02 0.91582959E+02</pdfrwt>
<pdfrwt beam="2">  1       -1 0.10045070E-01 0.91582959E+02</pdfrwt>
<totfact> 0.86525193E+04</totfact>
</mgrwt>
</event>
<event>
 5    1  0.2718303E+000  0.8994018E+02  0.7818608E-02  0.1302997E+00
          1   -1    0    0  501    0  0.00000000000E+00  0.00000000000E+00  0.24134853255E+03  0.24134853259E+03  0.46700000000E-02 0. -1.
         -1   -1    0    0    0  501 -0.00000000000E+00 -0.00000000000E+00 -0.83792043776E+01  0.83792056790E+01  0.46700000000E-02 0.  1.
         23    2    1    2    0    0  0.00000000000E+00  0.00000000000E+00  0.23296932817E+03  0.24972773827E+03  0.89940176753E+02 0.  0.
        -11    1    3    3    0    0 -0.44576918857E+02 -0.22580711212E+01  0.10124919128E+03  0.11065079898E+03  0.51100000000E-03 0.  1.
         11    1    3    3    0    0  0.44576918857E+02  0.22580711212E+01  0.13172013689E+03  0.13907693930E+03  0.51100000000E-03 0. -1.
<mgrwt>
<rscale>  0 0.89940177E+02</rscale>
<asrwt>0</asrwt>
<pdfrwt beam="1">  1        1 0.37130541E-01 0.89940177E+02</pdfrwt>
<pdfrwt beam="2">  1       -1 0.12891086E-02 0.89940177E+02</pdfrwt>
<totfact> 0.12738427E+05</totfact>
</mgrwt>
</event>
<event>
 5    1  0.2718303E+000  0.9182962E+02  0.7818608E-02  0.1298481E+00
          1   -1    0    0  501    0  0.00000000000E+00  0.00000000000E+00  0.53270099824E+02  0.53270100028E+02  0.46700000000E-02 0. -1.
         -1   -1    0    0    0  501 -0.00000000000E+00 -0.00000000000E+00 -0.39575104910E+02  0.39575105186E+02  0.46700000000E-02 0.  1.
         23    2    1    2    0    0  0.00000000000E+00  0.00000000000E+00  0.13694994914E+02  0.92845205214E+02  0.91829620742E+02 0.  0.
        -11    1    3    3    0    0  0.18411127400E+02  0.32874719240E+02 -0.19681073064E+02  0.42509544980E+02  0.51100000000E-03 0.  1.
         11    1    3    3    0    0 -0.18411127400E+02 -0.32874719240E+02  0.33376067978E+02  0.50335660234E+02  0.51100000000E-03 0. -1.
<mgrwt>
<rscale>  0 0.91829621E+02</rscale>
<asrwt>0</asrwt>
<pdfrwt beam="1">  1        1 0.81953999E-02 0.91829621E+02</pdfrwt>
<pdfrwt beam="2">  1       -1 0.60884778E-02 0.91829621E+02</pdfrwt>
<totfact> 0.92793228E+04</totfact>
</mgrwt>
</event>
<event>
 5    1  0.2718303E+000  0.1222504E+03  0.7818608E-02  0.1239430E+00
          1   -1    0    0  501    0  0.00000000000E+00  0.00000000000E+00  0.98849779200E+01  0.98849790231E+01  0.46700000000E-02 0. -1.
         -1   -1    0    0    0  501 -0.00000000000E+00 -0.00000000000E+00 -0.37797662867E+03  0.37797662869E+03  0.46700000000E-02 0.  1.
         23    2    1    2    0    0  0.00000000000E+00  0.00000000000E+00 -0.36809165075E+03  0.38786160772E+03  0.12225041265E+03 0.  0.
        -11    1    3    3    0    0  0.53820687855E+02 -0.98874715421E+01 -0.27046062241E+03  0.27594089369E+03  0.51100000000E-03 0.  1.
         11    1    3    3    0    0 -0.53820687855E+02  0.98874715421E+01 -0.97631028333E+02  0.11192071403E+03  0.51100000000E-03 0. -1.
<mgrwt>
<rscale>  0 0.12225041E+03</rscale>
<asrwt>0</asrwt>
<pdfrwt beam="1">  1        1 0.15207662E-02 0.12225041E+03</pdfrwt>
<pdfrwt beam="2">  1       -1 0.58150239E-01 0.12225041E+03</pdfrwt>
<totfact> 0.25221910E+04</totfact>
</mgrwt>
</event>
<event>
 5    1  0.2718303E+000  0.8889210E+02  0.7818608E-02  0.1305557E+00
          1   -1    0    0  501    0  0.00000000000E+00  0.00000000000E+00  0.39667733650E+02  0.39667733925E+02  0.46700000000E-02 0. -1.
         -1   -1    0    0    0  501 -0.00000000000E+00 -0.00000000000E+00 -0.49799951676E+02  0.49799951895E+02  0.46700000000E-02 0.  1.
         23    2    1    2    0    0  0.00000000000E+00  0.00000000000E+00 -0.10132218026E+02  0.89467685820E+02  0.88892097308E+02 0.  0.
        -11    1    3    3    0    0  0.13678927168E+02 -0.39995530090E+01 -0.47437896670E+02  0.49532449097E+02  0.51100000000E-03 0.  1.
         11    1    3    3    0    0 -0.13678927168E+02  0.39995530090E+01  0.37305678645E+02  0.39935236723E+02  0.51100000000E-03 0. -1.
<mgrwt>
<rscale>  0 0.88892097E+02</rscale>
<asrwt>0</asrwt>
<pdfrwt beam="1">  1        1 0.61027283E-02 0.88892097E+02</pdfrwt>
<pdfrwt beam="2">  1       -1 0.76615310E-02 0.88892097E+02</pdfrwt>
<totfact> 0.97260054E+04</totfact>
</mgrwt>
</event>
<event>
 5    1  0.2718303E+000  0.8900902E+02  0.7818608E-02  0.1305269E+00
         -1   -1    0    0    0  501 -0.00000000000E+00  0.00000000000E+00  0.10666986410E+03  0.10666986420E+03  0.46700000000E-02 0.  1.
          1   -1    0    0  501    0  0.00000000000E+00 -0.00000000000E+00 -0.18568051581E+02  0.18568052168E+02  0.46700000000E-02 0. -1.
         23    2    1    2    0    0  0.00000000000E+00  0.00000000000E+00  0.88101812516E+02  0.12523791637E+03  0.89009023854E+02 0.  0.
        -11    1    3    3    0    0 -0.30042789198E+02 -0.24712489249E+02  0.74469186840E+02  0.84017474948E+02  0.51100000000E-03 0.  1.
         11    1    3    3    0    0  0.30042789198E+02  0.24712489249E+02  0.13632625676E+02  0.41220441419E+02  0.51100000000E-03 0. -1.
<mgrwt>
<rscale>  0 0.89009024E+02</rscale>
<asrwt>0</asrwt>
<pdfrwt beam="2">  1        1 0.28566234E-02 0.89009024E+02</pdfrwt>
<pdfrwt beam="1">  1       -1 0.16410748E-01 0.89009024E+02</pdfrwt>
<totfact> 0.85523569E+04</totfact>
</mgrwt>
</event>
<event>
 5    1  0.2718303E+000  0.1076289E+03  0.7818608E-02  0.1265025E+00
          1   -1    0    0  501    0  0.00000000000E+00  0.00000000000E+00  0.27934141207E+02  0.27934141597E+02  0.46700000000E-02 0.  1.
         -1   -1    0    0    0  501 -0.00000000000E+00 -0.00000000000E+00 -0.10367222362E+03  0.10367222372E+03  0.46700000000E-02 0. -1.
         23    2    1    2    0    0  0.00000000000E+00  0.00000000000E+00 -0.75738082410E+02  0.13160636532E+03  0.10762889141E+03 0.  0.
        -11    1    3    3    0    0  0.13257479786E+01 -0.52850470702E+02 -0.50161755397E+02  0.72877510701E+02  0.51100000000E-03 0. -1.
         11    1    3    3    0    0 -0.13257479786E+01  0.52850470702E+02 -0.25576327013E+02  0.58728854619E+02  0.51100000000E-03 0.  1.
<mgrwt>
<rscale>  0 0.10762889E+03</rscale>
<asrwt>0</asrwt>
<pdfrwt beam="1">  1        1 0.42975603E-02 0.10762889E+03</pdfrwt>
<pdfrwt beam="2">  1       -1 0.15949573E-01 0.10762889E+03</pdfrwt>
<totfact> 0.52644676E+04</totfact>
</mgrwt>
</event>
<event>
 5    1  0.2718303E+000  0.8906498E+02  0.7818608E-02  0.1305132E+00
          1   -1    0    0  501    0  0.00000000000E+00  0.00000000000E+00  0.93987999128E+02  0.93987999245E+02  0.46700000000E-02 0. -1.
         -1   -1    0    0    0  501 -0.00000000000E+00 -0.00000000000E+00 -0.21099954574E+02  0.21099955091E+02  0.46700000000E-02 0.  1.
         23    2    1    2    0    0  0.00000000000E+00  0.00000000000E+00  0.72888044554E+02  0.11508795434E+03  0.89064977372E+02 0.  0.
        -11    1    3    3    0    0 -0.75443652766E+01 -0.30070600495E+02 -0.48650056581E+01  0.31381949300E+02  0.51100000000E-03 0.  1.
         11    1    3    3    0    0  0.75443652766E+01  0.30070600495E+02  0.77753050212E+02  0.83706005036E+02  0.51100000000E-03 0. -1.
<mgrwt>
<rscale>  0 0.89064977E+02</rscale>
<asrwt>0</asrwt>
<pdfrwt beam="1">  1        1 0.14459692E-01 0.89064977E+02</pdfrwt>
<pdfrwt beam="2">  1       -1 0.32461470E-02 0.89064977E+02</pdfrwt>
<totfact> 0.11020512E+05</totfact>
</mgrwt>
</event>
<event>
 5    1  0.2718303E+000  0.9255767E+02  0.7818608E-02  0.1296774E+00
         -1   -1    0    0    0  501 -0.00000000000E+00  0.00000000000E+00  0.44955775969E+03  0.44955775972E+03  0.46700000000E-02 0.  1.
          1   -1    0    0  501    0  0.00000000000E+00 -0.00000000000E+00 -0.47640822514E+01  0.47640845403E+01  0.46700000000E-02 0. -1.
         23    2    1    2    0    0  0.00000000000E+00  0.00000000000E+00  0.44479367744E+03  0.45432184426E+03  0.92557672171E+02 0.  0.
        -11    1    3    3    0    0  0.31251020421E+02  0.34132492306E+02  0.22376208671E+03  0.22849753775E+03  0.51100000000E-03 0.  1.
         11    1    3    3    0    0 -0.31251020421E+02 -0.34132492306E+02  0.22103159073E+03  0.22582430650E+03  0.51100000000E-03 0. -1.
<mgrwt>
<rscale>  0 0.92557672E+02</rscale>
<asrwt>0</asrwt>
<pdfrwt beam="2">  1        1 0.73293604E-03 0.92557672E+02</pdfrwt>
<pdfrwt beam="1">  1       -1 0.69162720E-01 0.92557672E+02</pdfrwt>
<totfact> 0.48141261E+04</totfact>
</mgrwt>
</event>
<event>
 5    1  0.2718303E+000  0.8883179E+02  0.7818608E-02  0.1305706E+00
         -1   -1    0    0    0  501 -0.00000000000E+00  0.00000000000E+00  0.25277040764E+03  0.25277040768E+03  0.46700000000E-02 0.  1.
          1   -1    0    0  501    0  0.00000000000E+00 -0.00000000000E+00 -0.78045991512E+01  0.78046005484E+01  0.46700000000E-02 0. -1.
         23    2    1    2    0    0  0.00000000000E+00  0.00000000000E+00  0.24496580848E+03  0.26057500823E+03  0.88831793780E+02 0.  0.
        -11    1    3    3    0    0  0.13309685871E+01  0.37231463345E+02  0.19342024441E+03  0.19697549159E+03  0.51100000000E-03 0.  1.
         11    1    3    3    0    0 -0.13309685871E+01 -0.37231463345E+02  0.51545564077E+02  0.63599516638E+02  0.51100000000E-03 0. -1.
<mgrwt>
<rscale>  0 0.88831794E+02</rscale>
<asrwt>0</asrwt>
<pdfrwt beam="2">  1        1 0.12007076E-02 0.88831794E+02</pdfrwt>
<pdfrwt beam="1">  1       -1 0.38887759E-01 0.88831794E+02</pdfrwt>
<totfact> 0.69058852E+04</totfact>
</mgrwt>
</event>
<event>
 5    1  0.2718303E+000  0.9086037E+02  0.7818608E-02  0.1300781E+00
         -1   -1    0    0    0  501 -0.00000000000E+00  0.00000000000E+00  0.34725093047E+02  0.34725093361E+02  0.46700000000E-02 0.  1.
          1   -1    0    0  501    0  0.00000000000E+00 -0.00000000000E+00 -0.59435452034E+02  0.59435452217E+02  0.46700000000E-02 0. -1.
         23    2    1    2    0    0  0.00000000000E+00  0.00000000000E+00 -0.24710358987E+02  0.94160545578E+02  0.90860368161E+02 0.  0.
        -11    1    3    3    0    0  0.40687338538E+02  0.78672797220E+01  0.69367729888E+01  0.42017525240E+02  0.51100000000E-03 0.  1.
         11    1    3    3    0    0 -0.40687338538E+02 -0.78672797220E+01 -0.31647131976E+02  0.52143020339E+02  0.51100000000E-03 0. -1.
<mgrwt>
<rscale>  0 0.90860368E+02</rscale>
<asrwt>0</asrwt>
<pdfrwt beam="2">  1        1 0.91439157E-02 0.90860368E+02</pdfrwt>
<pdfrwt beam="1">  1       -1 0.53423221E-02 0.90860368E+02</pdfrwt>
<totfact> 0.97166173E+04</totfact>
</mgrwt>
</event>
<event>
 5    1  0.2718303E+000  0.9178745E+02  0.7818608E-02  0.1298580E+00
          1   -1    0    0  501    0  0.00000000000E+00  0.00000000000E+00  0.16085786890E+02  0.16085787568E+02  0.46700000000E-02 0. -1.
         -1   -1    0    0    0  501 -0.00000000000E+00 -0.00000000000E+00 -0.13093758178E+03  0.13093758187E+03  0.46700000000E-02 0.  1.
         23    2    1    2    0    0  0.00000000000E+00  0.00000000000E+00 -0.11485179489E+03  0.14702336943E+03  0.91787452136E+02 0.  0.
        -11    1    3    3    0    0  0.91349398866E+01  0.19868460083E+02  0.72041428191E+01  0.23023955065E+02  0.51100000000E-03 0. -1.
         11    1    3    3    0    0 -0.91349398866E+01 -0.19868460083E+02 -0.12205593771E+03  0.12399941437E+03  0.51100000000E-03 0.  1.
<mgrwt>
<rscale>  0 0.91787452E+02</rscale>
<asrwt>0</asrwt>
<pdfrwt beam="1">  1        1 0.24747366E-02 0.91787452E+02</pdfrwt>
<pdfrwt beam="2">  1       -1 0.20144243E-01 0.91787452E+02</pdfrwt>
<totfact> 0.75782912E+04</totfact>
</mgrwt>
</event>
<event>
 5    1  0.2718303E+000  0.9171662E+02  0.7818608E-02  0.1298747E+00
         -1   -1    0    0    0  501 -0.00000000000E+00  0.00000000000E+00  0.11169306103E+03  0.11169306113E+03  0.46700000000E-02 0.  1.
          1   -1    0    0  501    0  0.00000000000E+00 -0.00000000000E+00 -0.18828245313E+02  0.18828245892E+02  0.46700000000E-02 0. -1.
         23    2    1    2    0    0  0.00000000000E+00  0.00000000000E+00  0.92864815719E+02  0.13052130702E+03  0.91716615660E+02 0.  0.
        -11    1    3    3    0    0  0.18276713543E+02 -0.21737357218E+02  0.97672335233E+02  0.10171743227E+03  0.51100000000E-03 0.  1.
         11    1    3    3    0    0 -0.18276713543E+02  0.21737357218E+02 -0.48075195140E+01  0.28803874755E+02  0.51100000000E-03 0. -1.
<mgrwt>
<rscale>  0 0.91716616E+02</rscale>
<asrwt>0</asrwt>
<pdfrwt beam="2">  1        1 0.28966531E-02 0.91716616E+02</pdfrwt>
<pdfrwt beam="1">  1       -1 0.17183548E-01 0.91716616E+02</pdfrwt>
<totfact> 0.78462587E+04</totfact>
</mgrwt>
</event>
<event>
 5    1  0.2718303E+000  0.9345843E+02  0.7818608E-02  0.1294686E+00
          1   -1    0    0  501    0  0.00000000000E+00  0.00000000000E+00  0.34576120188E+02  0.34576120503E+02  0.46700000000E-02 0. -1.
         -1   -1    0    0    0  501 -0.00000000000E+00 -0.00000000000E+00 -0.63153979715E+02  0.63153979887E+02  0.46700000000E-02 0.  1.
         23    2    1    2    0    0  0.00000000000E+00  0.00000000000E+00 -0.28577859527E+02  0.97730100391E+02  0.93458431761E+02 0.  0.
        -11    1    3    3    0    0 -0.23221164361E+02  0.38168430056E+02 -0.28610456986E+02  0.53052896023E+02  0.51100000000E-03 0.  1.
         11    1    3    3    0    0  0.23221164361E+02 -0.38168430056E+02  0.32597459583E-01  0.44677204367E+02  0.51100000000E-03 0. -1.
<mgrwt>
<rscale>  0 0.93458432E+02</rscale>
<asrwt>0</asrwt>
<pdfrwt beam="1">  1        1 0.53194032E-02 0.93458432E+02</pdfrwt>
<pdfrwt beam="2">  1       -1 0.97159969E-02 0.93458432E+02</pdfrwt>
<totfact> 0.82612915E+04</totfact>
</mgrwt>
</event>
<event>
 5    1  0.2718303E+000  0.9133255E+02  0.7818608E-02  0.1299656E+00
          1   -1    0    0  501    0  0.00000000000E+00  0.00000000000E+00  0.15577909298E+02  0.15577909998E+02  0.46700000000E-02 0. -1.
         -1   -1    0    0    0  501 -0.00000000000E+00 -0.00000000000E+00 -0.13386960216E+03  0.13386960224E+03  0.46700000000E-02 0.  1.
         23    2    1    2    0    0  0.00000000000E+00  0.00000000000E+00 -0.11829169286E+03  0.14944751224E+03  0.91332547946E+02 0.  0.
        -11    1    3    3    0    0  0.27384299229E+02  0.31576697510E+02 -0.89247594033E+02  0.98550092394E+02  0.51100000000E-03 0.  1.
         11    1    3    3    0    0 -0.27384299229E+02 -0.31576697510E+02 -0.29044098831E+02  0.50897419847E+02  0.51100000000E-03 0. -1.
<mgrwt>
<rscale>  0 0.91332548E+02</rscale>
<asrwt>0</asrwt>
<pdfrwt beam="1">  1        1 0.23966016E-02 0.91332548E+02</pdfrwt>
<pdfrwt beam="2">  1       -1 0.20595323E-01 0.91332548E+02</pdfrwt>
<totfact> 0.76397558E+04</totfact>
</mgrwt>
</event>
<event>
 5    1  0.2718303E+000  0.9439367E+02  0.7818608E-02  0.1292548E+00
          1   -1    0    0  501    0  0.00000000000E+00  0.00000000000E+00  0.91809018668E+02  0.91809018787E+02  0.46700000000E-02 0. -1.
         -1   -1    0    0    0  501 -0.00000000000E+00 -0.00000000000E+00 -0.24262770184E+02  0.24262770633E+02  0.46700000000E-02 0.  1.
         23    2    1    2    0    0  0.00000000000E+00  0.00000000000E+00  0.67546248485E+02  0.11607178942E+03  0.94393668298E+02 0.  0.
        -11    1    3    3    0    0  0.46504021138E+02  0.73739006006E+01  0.29780476429E+02  0.55712432802E+02  0.51100000000E-03 0.  1.
         11    1    3    3    0    0 -0.46504021138E+02 -0.73739006006E+01  0.37765772056E+02  0.60359356618E+02  0.51100000000E-03 0. -1.
<mgrwt>
<rscale>  0 0.94393668E+02</rscale>
<asrwt>0</asrwt>
<pdfrwt beam="1">  1        1 0.14124464E-01 0.94393668E+02</pdfrwt>
<pdfrwt beam="2">  1       -1 0.37327340E-02 0.94393668E+02</pdfrwt>
<totfact> 0.93653497E+04</totfact>
</mgrwt>
</event>
<event>
 5    1  0.2718303E+000  0.9002841E+02  0.7818608E-02  0.1302783E+00
         -1   -1    0    0    0  501 -0.00000000000E+00  0.00000000000E+00  0.16730490400E+02  0.16730491052E+02  0.46700000000E-02 0.  1.
          1   -1    0    0  501    0  0.00000000000E+00 -0.00000000000E+00 -0.12111292878E+03  0.12111292887E+03  0.46700000000E-02 0. -1.
         23    2    1    2    0    0  0.00000000000E+00  0.00000000000E+00 -0.10438243838E+03  0.13784341992E+03  0.90028412036E+02 0.  0.
        -11    1    3    3    0    0  0.40417371461E+02  0.11996109678E+02 -0.76342422659E+02  0.87210297906E+02  0.51100000000E-03 0. -1.
         11    1    3    3    0    0 -0.40417371461E+02 -0.11996109678E+02 -0.28040015722E+02  0.50633122016E+02  0.51100000000E-03 0.  1.
<mgrwt>
<rscale>  0 0.90028412E+02</rscale>
<asrwt>0</asrwt>
<pdfrwt beam="2">  1        1 0.18632758E-01 0.90028412E+02</pdfrwt>
<pdfrwt beam="1">  1       -1 0.25739217E-02 0.90028412E+02</pdfrwt>
<totfact> 0.11167965E+05</totfact>
</mgrwt>
</event>
<event>
 5    1  0.2718303E+000  0.8120277E+02  0.7818608E-02  0.1325672E+00
         -1   -1    0    0    0  501 -0.00000000000E+00  0.00000000000E+00  0.37862530609E+02  0.37862530897E+02  0.46700000000E-02 0.  1.
          1   -1    0    0  501    0  0.00000000000E+00 -0.00000000000E+00 -0.43538362220E+02  0.43538362471E+02  0.46700000000E-02 0. -1.
         23    2    1    2    0    0  0.00000000000E+00  0.00000000000E+00 -0.56758316116E+01  0.81400893367E+02  0.81202773207E+02 0.  0.
        -11    1    3    3    0    0  0.24310325684E+02  0.10031124925E+02 -0.33846495369E+02  0.42862578680E+02  0.51100000000E-03 0. -1.
         11    1    3    3    0    0 -0.24310325684E+02 -0.10031124925E+02  0.28170663757E+02  0.38538314687E+02  0.51100000000E-03 0.  1.
<mgrwt>
<rscale>  0 0.81202773E+02</rscale>
<asrwt>0</asrwt>
<pdfrwt beam="2">  1        1 0.66982096E-02 0.81202773E+02</pdfrwt>
<pdfrwt beam="1">  1       -1 0.58250048E-02 0.81202773E+02</pdfrwt>
<totfact> 0.12679646E+05</totfact>
</mgrwt>
</event>
<event>
 5    1  0.2718303E+000  0.8998336E+02  0.7818608E-02  0.1302892E+00
          1   -1    0    0  501    0  0.00000000000E+00  0.00000000000E+00  0.13652464742E+03  0.13652464750E+03  0.46700000000E-02 0. -1.
         -1   -1    0    0    0  501 -0.00000000000E+00 -0.00000000000E+00 -0.14827002535E+02  0.14827003271E+02  0.46700000000E-02 0.  1.
         23    2    1    2    0    0  0.00000000000E+00  0.00000000000E+00  0.12169764489E+03  0.15135165077E+03  0.89983361911E+02 0.  0.
        -11    1    3    3    0    0 -0.41885254177E+02 -0.31640148938E+01  0.33734450441E+02  0.53873914417E+02  0.51100000000E-03 0.  1.
         11    1    3    3    0    0  0.41885254177E+02  0.31640148938E+01  0.87963194448E+02  0.97477736358E+02  0.51100000000E-03 0. -1.
<mgrwt>
<rscale>  0 0.89983362E+02</rscale>
<asrwt>0</asrwt>
<pdfrwt beam="1">  1        1 0.21003792E-01 0.89983362E+02</pdfrwt>
<pdfrwt beam="2">  1       -1 0.22810774E-02 0.89983362E+02</pdfrwt>
<totfact> 0.11422022E+05</totfact>
</mgrwt>
</event>
<event>
 5    1  0.2718303E+000  0.9155493E+02  0.7818608E-02  0.1299129E+00
         -1   -1    0    0    0  501 -0.00000000000E+00  0.00000000000E+00  0.90275049712E+02  0.90275049832E+02  0.46700000000E-02 0.  1.
          1   -1    0    0  501    0  0.00000000000E+00 -0.00000000000E+00 -0.23213241091E+02  0.23213241561E+02  0.46700000000E-02 0. -1.
         23    2    1    2    0    0  0.00000000000E+00  0.00000000000E+00  0.67061808621E+02  0.11348829139E+03  0.91554934918E+02 0.  0.
        -11    1    3    3    0    0  0.13028982977E+02  0.36460826288E+02  0.32583449298E+01  0.38855669637E+02  0.51100000000E-03 0. -1.
         11    1    3    3    0    0 -0.13028982977E+02 -0.36460826288E+02  0.63803463691E+02  0.74632621756E+02  0.51100000000E-03 0.  1.
<mgrwt>
<rscale>  0 0.91554935E+02</rscale>
<asrwt>0</asrwt>
<pdfrwt beam="2">  1        1 0.35712679E-02 0.91554935E+02</pdfrwt>
<pdfrwt beam="1">  1       -1 0.13888469E-01 0.91554935E+02</pdfrwt>
<totfact> 0.82019749E+04</totfact>
</mgrwt>
</event>
<event>
 5    1  0.2718303E+000  0.9061991E+02  0.7818608E-02  0.1301357E+00
         -1   -1    0    0    0  501 -0.00000000000E+00  0.00000000000E+00  0.20982151215E+02  0.20982151734E+02  0.46700000000E-02 0.  1.
          1   -1    0    0  501    0  0.00000000000E+00 -0.00000000000E+00 -0.97844695196E+02  0.97844695307E+02  0.46700000000E-02 0. -1.
         23    2    1    2    0    0  0.00000000000E+00  0.00000000000E+00 -0.76862543981E+02  0.11882684704E+03  0.90619914537E+02 0.  0.
        -11    1    3    3    0    0  0.41285630590E+02  0.18660971857E+02 -0.39096102886E+02  0.59843466017E+02  0.51100000000E-03 0.  1.
         11    1    3    3    0    0 -0.41285630590E+02 -0.18660971857E+02 -0.37766441095E+02  0.58983381024E+02  0.51100000000E-03 0. -1.
<mgrwt>
<rscale>  0 0.90619915E+02</rscale>
<asrwt>0</asrwt>
<pdfrwt beam="2">  1        1 0.15053030E-01 0.90619915E+02</pdfrwt>
<pdfrwt beam="1">  1       -1 0.32280234E-02 0.90619915E+02</pdfrwt>
<totfact> 0.10582749E+05</totfact>
</mgrwt>
</event>
<event>
 5    1  0.2718303E+000  0.9245110E+02  0.7818608E-02  0.1297022E+00
         -1   -1    0    0    0  501 -0.00000000000E+00  0.00000000000E+00  0.12384354803E+03  0.12384354812E+03  0.46700000000E-02 0.  1.
          1   -1    0    0  501    0  0.00000000000E+00 -0.00000000000E+00 -0.17254039019E+02  0.17254039651E+02  0.46700000000E-02 0. -1.
         23    2    1    2    0    0  0.00000000000E+00  0.00000000000E+00  0.10658950901E+03  0.14109758777E+03  0.92451099742E+02 0.  0.
        -11    1    3    3    0    0 -0.20057801233E+02  0.29825976448E+02  0.89329255861E+01  0.37036487700E+02  0.51100000000E-03 0. -1.
         11    1    3    3    0    0  0.20057801233E+02 -0.29825976448E+02  0.97656583427E+02  0.10406110007E+03  0.51100000000E-03 0.  1.
<mgrwt>
<rscale>  0 0.92451100E+02</rscale>
<asrwt>0</asrwt>
<pdfrwt beam="2">  1        1 0.26544677E-02 0.92451100E+02</pdfrwt>
<pdfrwt beam="1">  1       -1 0.19052853E-01 0.92451100E+02</pdfrwt>
<totfact> 0.75266340E+04</totfact>
</mgrwt>
</event>
<event>
 5    1  0.2718303E+000  0.9627108E+02  0.7818608E-02  0.1288339E+00
         -1   -1    0    0    0  501 -0.00000000000E+00  0.00000000000E+00  0.92440856946E+02  0.92440857064E+02  0.46700000000E-02 0. -1.
          1   -1    0    0  501    0  0.00000000000E+00 -0.00000000000E+00 -0.25065003383E+02  0.25065003818E+02  0.46700000000E-02 0.  1.
         23    2    1    2    0    0  0.00000000000E+00  0.00000000000E+00  0.67375853563E+02  0.11750586088E+03  0.96271084435E+02 0.  0.
        -11    1    3    3    0    0  0.37669271525E+02 -0.27238305263E+02  0.18436572102E+02  0.50008064170E+02  0.51100000000E-03 0.  1.
         11    1    3    3    0    0 -0.37669271525E+02  0.27238305263E+02  0.48939281461E+02  0.67497796713E+02  0.51100000000E-03 0. -1.
<mgrwt>
<rscale>  0 0.96271084E+02</rscale>
<asrwt>0</asrwt>
<pdfrwt beam="2">  1        1 0.38561545E-02 0.96271084E+02</pdfrwt>
<pdfrwt beam="1">  1       -1 0.14221670E-01 0.96271084E+02</pdfrwt>
<totfact> 0.71766803E+04</totfact>
</mgrwt>
</event>
<event>
 5    1  0.2718303E+000  0.8992093E+02  0.7818608E-02  0.1303043E+00
         -1   -1    0    0    0  501 -0.00000000000E+00  0.00000000000E+00  0.33211716572E+03  0.33211716575E+03  0.46700000000E-02 0.  1.
          1   -1    0    0  501    0  0.00000000000E+00 -0.00000000000E+00 -0.60865356832E+01  0.60865374748E+01  0.46700000000E-02 0. -1.
         23    2    1    2    0    0  0.00000000000E+00  0.00000000000E+00  0.32603063004E+03  0.33820370323E+03  0.89920927234E+02 0.  0.
        -11    1    3    3    0    0 -0.26114972299E+02  0.35590444426E+02  0.19510009522E+03  0.20003179414E+03  0.51100000000E-03 0.  1.
         11    1    3    3    0    0  0.26114972299E+02 -0.35590444426E+02  0.13093053482E+03  0.13817190908E+03  0.51100000000E-03 0. -1.
<mgrwt>
<rscale>  0 0.89920927E+02</rscale>
<asrwt>0</asrwt>
<pdfrwt beam="2">  1        1 0.93639024E-03 0.89920927E+02</pdfrwt>
<pdfrwt beam="1">  1       -1 0.51094949E-01 0.89920927E+02</pdfrwt>
<totfact> 0.60253126E+04</totfact>
</mgrwt>
</event>
<event>
 5    1  0.2718303E+000  0.9026843E+02  0.7818608E-02  0.1302203E+00
         -1   -1    0    0    0  501 -0.00000000000E+00  0.00000000000E+00  0.69536850803E+02  0.69536850960E+02  0.46700000000E-02 0.  1.
          1   -1    0    0  501    0  0.00000000000E+00 -0.00000000000E+00 -0.29295222674E+02  0.29295223046E+02  0.46700000000E-02 0. -1.
         23    2    1    2    0    0  0.00000000000E+00  0.00000000000E+00  0.40241628129E+02  0.98832074006E+02  0.90268434227E+02 0.  0.
        -11    1    3    3    0    0 -0.38879927598E+02 -0.52046992449E+01 -0.43210058803E+01  0.39464018502E+02  0.51100000000E-03 0. -1.
         11    1    3    3    0    0  0.38879927598E+02  0.52046992449E+01  0.44562634009E+02  0.59368055504E+02  0.51100000000E-03 0.  1.
<mgrwt>
<rscale>  0 0.90268434E+02</rscale>
<asrwt>0</asrwt>
<pdfrwt beam="2">  1        1 0.45069574E-02 0.90268434E+02</pdfrwt>
<pdfrwt beam="1">  1       -1 0.10697977E-01 0.90268434E+02</pdfrwt>
<totfact> 0.88869705E+04</totfact>
</mgrwt>
</event>
<event>
 5    1  0.2718303E+000  0.9094144E+02  0.7818608E-02  0.1300588E+00
          1   -1    0    0  501    0  0.00000000000E+00  0.00000000000E+00  0.20167432401E+03  0.20167432407E+03  0.46700000000E-02 0. -1.
         -1   -1    0    0    0  501 -0.00000000000E+00 -0.00000000000E+00 -0.10252104473E+02  0.10252105536E+02  0.46700000000E-02 0.  1.
         23    2    1    2    0    0  0.00000000000E+00  0.00000000000E+00  0.19142221954E+03  0.21192642960E+03  0.90941439567E+02 0.  0.
        -11    1    3    3    0    0 -0.40110617629E+02  0.10662391524E+02  0.52424174881E+02  0.66864357858E+02  0.51100000000E-03 0. -1.
         11    1    3    3    0    0  0.40110617629E+02 -0.10662391524E+02  0.13899804466E+03  0.14506207174E+03  0.51100000000E-03 0.  1.
<mgrwt>
<rscale>  0 0.90941440E+02</rscale>
<asrwt>0</asrwt>
<pdfrwt beam="1">  1        1 0.31026820E-01 0.90941440E+02</pdfrwt>
<pdfrwt beam="2">  1       -1 0.15772469E-02 0.90941440E+02</pdfrwt>
<totfact> 0.11942270E+05</totfact>
</mgrwt>
</event>
<event>
 5    1  0.2718303E+000  0.9251890E+02  0.7818608E-02  0.1296864E+00
         -1   -1    0    0    0  501 -0.00000000000E+00  0.00000000000E+00  0.22185703076E+02  0.22185703568E+02  0.46700000000E-02 0.  1.
          1   -1    0    0  501    0  0.00000000000E+00 -0.00000000000E+00 -0.96455666042E+02  0.96455666155E+02  0.46700000000E-02 0. -1.
         23    2    1    2    0    0  0.00000000000E+00  0.00000000000E+00 -0.74269962966E+02  0.11864136972E+03  0.92518901910E+02 0.  0.
        -11    1    3    3    0    0 -0.11715987788E+02 -0.19513253713E+02  0.14508847850E+02  0.26991445061E+02  0.51100000000E-03 0.  1.
         11    1    3    3    0    0  0.11715987788E+02  0.19513253713E+02 -0.88778810816E+02  0.91649924661E+02  0.51100000000E-03 0. -1.
<mgrwt>
<rscale>  0 0.92518902E+02</rscale>
<asrwt>0</asrwt>
<pdfrwt beam="2">  1        1 0.14839333E-01 0.92518902E+02</pdfrwt>
<pdfrwt beam="1">  1       -1 0.34131852E-02 0.92518902E+02</pdfrwt>
<totfact> 0.99763384E+04</totfact>
</mgrwt>
</event>
<event>
 5    1  0.2718303E+000  0.1111569E+03  0.7818608E-02  0.1258442E+00
         -1   -1    0    0    0  501 -0.00000000000E+00  0.00000000000E+00  0.21785870962E+02  0.21785871463E+02  0.46700000000E-02 0.  1.
          1   -1    0    0  501    0  0.00000000000E+00 -0.00000000000E+00 -0.14178744584E+03  0.14178744592E+03  0.46700000000E-02 0. -1.
         23    2    1    2    0    0  0.00000000000E+00  0.00000000000E+00 -0.12000157488E+03  0.16357331738E+03  0.11115688096E+03 0.  0.
        -11    1    3    3    0    0 -0.47996363853E+02  0.27814661769E+02 -0.54976623503E+02  0.78100803353E+02  0.51100000000E-03 0. -1.
         11    1    3    3    0    0  0.47996363853E+02 -0.27814661769E+02 -0.65024951375E+02  0.85472514026E+02  0.51100000000E-03 0.  1.
<mgrwt>
<rscale>  0 0.11115688E+03</rscale>
<asrwt>0</asrwt>
<pdfrwt beam="2">  1        1 0.21813453E-01 0.11115688E+03</pdfrwt>
<pdfrwt beam="1">  1       -1 0.33516726E-02 0.11115688E+03</pdfrwt>
<totfact> 0.64552331E+04</totfact>
</mgrwt>
</event>
<event>
 5    1  0.2718303E+000  0.9249842E+02  0.7818608E-02  0.1296912E+00
          1   -1    0    0  501    0  0.00000000000E+00  0.00000000000E+00  0.11779241270E+03  0.11779241279E+03  0.46700000000E-02 0. -1.
         -1   -1    0    0    0  501 -0.00000000000E+00 -0.00000000000E+00 -0.18158975697E+02  0.18158976298E+02  0.46700000000E-02 0.  1.
         23    2    1    2    0    0  0.00000000000E+00  0.00000000000E+00  0.99633437005E+02  0.13595138909E+03  0.92498423915E+02 0.  0.
        -11    1    3    3    0    0 -0.31717418338E+02  0.33466069970E+02  0.55119541412E+02  0.71861925322E+02  0.51100000000E-03 0.  1.
         11    1    3    3    0    0  0.31717418338E+02 -0.33466069970E+02  0.44513895593E+02  0.64089463771E+02  0.51100000000E-03 0. -1.
<mgrwt>
<rscale>  0 0.92498424E+02</rscale>
<asrwt>0</asrwt>
<pdfrwt beam="1">  1        1 0.18121909E-01 0.92498424E+02</pdfrwt>
<pdfrwt beam="2">  1       -1 0.27936887E-02 0.92498424E+02</pdfrwt>
<totfact> 0.10327272E+05</totfact>
</mgrwt>
</event>
<event>
 5    1  0.2718303E+000  0.9050818E+02  0.7818608E-02  0.1301626E+00
          1   -1    0    0  501    0  0.00000000000E+00  0.00000000000E+00  0.12473574884E+02  0.12473575758E+02  0.46700000000E-02 0. -1.
         -1   -1    0    0    0  501 -0.00000000000E+00 -0.00000000000E+00 -0.16418168600E+03  0.16418168607E+03  0.46700000000E-02 0.  1.
         23    2    1    2    0    0  0.00000000000E+00  0.00000000000E+00 -0.15170811112E+03  0.17665526182E+03  0.90508179474E+02 0.  0.
        -11    1    3    3    0    0 -0.19225461884E+02  0.34564917194E+02 -0.11877539354E+03  0.12518764315E+03  0.51100000000E-03 0.  1.
         11    1    3    3    0    0  0.19225461884E+02 -0.34564917194E+02 -0.32932717574E+02  0.51467618677E+02  0.51100000000E-03 0. -1.
<mgrwt>
<rscale>  0 0.90508179E+02</rscale>
<asrwt>0</asrwt>
<pdfrwt beam="1">  1        1 0.19190117E-02 0.90508179E+02</pdfrwt>
<pdfrwt beam="2">  1       -1 0.25258719E-01 0.90508179E+02</pdfrwt>
<totfact> 0.74588687E+04</totfact>
</mgrwt>
</event>
<event>
 5    1  0.2718303E+000  0.9257892E+02  0.7818608E-02  0.1296724E+00
         -1   -1    0    0    0  501 -0.00000000000E+00  0.00000000000E+00  0.18197113277E+02  0.18197113876E+02  0.46700000000E-02 0.  1.
          1   -1    0    0  501    0  0.00000000000E+00 -0.00000000000E+00 -0.11775022582E+03  0.11775022591E+03  0.46700000000E-02 0. -1.
         23    2    1    2    0    0  0.00000000000E+00  0.00000000000E+00 -0.99553112541E+02  0.13594733979E+03  0.92578922971E+02 0.  0.
        -11    1    3    3    0    0 -0.36410315560E+02 -0.21212831241E+02 -0.21644411906E+02  0.47372733249E+02  0.51100000000E-03 0.  1.
         11    1    3    3    0    0  0.36410315560E+02  0.21212831241E+02 -0.77908700635E+02  0.88574606538E+02  0.51100000000E-03 0. -1.
<mgrwt>
<rscale>  0 0.92578923E+02</rscale>
<asrwt>0</asrwt>
<pdfrwt beam="2">  1        1 0.18115419E-01 0.92578923E+02</pdfrwt>
<pdfrwt beam="1">  1       -1 0.27995560E-02 0.92578923E+02</pdfrwt>
<totfact> 0.10302217E+05</totfact>
</mgrwt>
</event>
<event>
 5    1  0.2718303E+000  0.9114341E+02  0.7818608E-02  0.1300106E+00
          1   -1    0    0  501    0  0.00000000000E+00  0.00000000000E+00  0.34677165401E+03  0.34677165404E+03  0.46700000000E-02 0. -1.
         -1   -1    0    0    0  501 -0.00000000000E+00 -0.00000000000E+00 -0.59888977692E+01  0.59888995900E+01  0.46700000000E-02 0.  1.
         23    2    1    2    0    0  0.00000000000E+00  0.00000000000E+00  0.34078275624E+03  0.35276055363E+03  0.91143410334E+02 0.  0.
        -11    1    3    3    0    0 -0.29044965521E+02 -0.33232628792E+02  0.12647265220E+03  0.13395278793E+03  0.51100000000E-03 0.  1.
         11    1    3    3    0    0  0.29044965521E+02  0.33232628792E+02  0.21431010404E+03  0.21880776570E+03  0.51100000000E-03 0. -1.
<mgrwt>
<rscale>  0 0.91143410E+02</rscale>
<asrwt>0</asrwt>
<pdfrwt beam="1">  1        1 0.53349466E-01 0.91143410E+02</pdfrwt>
<pdfrwt beam="2">  1       -1 0.92136937E-03 0.91143410E+02</pdfrwt>
<totfact> 0.13174245E+05</totfact>
</mgrwt>
</event>
<event>
 5    1  0.2718303E+000  0.1042317E+03  0.7818608E-02  0.1271641E+00
          1   -1    0    0  501    0  0.00000000000E+00  0.00000000000E+00  0.10451847351E+03  0.10451847361E+03  0.46700000000E-02 0. -1.
         -1   -1    0    0    0  501 -0.00000000000E+00 -0.00000000000E+00 -0.25986441801E+02  0.25986442220E+02  0.46700000000E-02 0.  1.
         23    2    1    2    0    0  0.00000000000E+00  0.00000000000E+00  0.78532031706E+02  0.13050491583E+03  0.10423172767E+03 0.  0.
        -11    1    3    3    0    0  0.33771633361E+02  0.30996825895E+02  0.70309578066E+02  0.83933087656E+02  0.51100000000E-03 0. -1.
         11    1    3    3    0    0 -0.33771633361E+02 -0.30996825895E+02  0.82224536402E+01  0.46571828175E+02  0.51100000000E-03 0.  1.
<mgrwt>
<rscale>  0 0.10423173E+03</rscale>
<asrwt>0</asrwt>
<pdfrwt beam="1">  1        1 0.16079765E-01 0.10423173E+03</pdfrwt>
<pdfrwt beam="2">  1       -1 0.39979142E-02 0.10423173E+03</pdfrwt>
<totfact> 0.72850243E+04</totfact>
</mgrwt>
</event>
<event>
 5    1  0.2718303E+000  0.8702755E+02  0.7818608E-02  0.1310214E+00
         -1   -1    0    0    0  501 -0.00000000000E+00  0.00000000000E+00  0.11510802808E+03  0.11510802817E+03  0.46700000000E-02 0.  1.
          1   -1    0    0  501    0  0.00000000000E+00 -0.00000000000E+00 -0.16449318819E+02  0.16449319482E+02  0.46700000000E-02 0. -1.
         23    2    1    2    0    0  0.00000000000E+00  0.00000000000E+00  0.98658709259E+02  0.13155734765E+03  0.87027552013E+02 0.  0.
        -11    1    3    3    0    0 -0.21289884248E+02 -0.32013372774E+02  0.18521828919E+02  0.42675207725E+02  0.51100000000E-03 0.  1.
         11    1    3    3    0    0  0.21289884248E+02  0.32013372774E+02  0.80136880340E+02  0.88882139930E+02  0.51100000000E-03 0. -1.
<mgrwt>
<rscale>  0 0.87027552E+02</rscale>
<asrwt>0</asrwt>
<pdfrwt beam="2">  1        1 0.25306645E-02 0.87027552E+02</pdfrwt>
<pdfrwt beam="1">  1       -1 0.17708927E-01 0.87027552E+02</pdfrwt>
<totfact> 0.89299591E+04</totfact>
</mgrwt>
</event>
<event>
 5    1  0.2718303E+000  0.9129007E+02  0.7818608E-02  0.1299757E+00
          1   -1    0    0  501    0  0.00000000000E+00  0.00000000000E+00  0.58100898162E+01  0.58100916930E+01  0.46700000000E-02 0. -1.
         -1   -1    0    0    0  501 -0.00000000000E+00 -0.00000000000E+00 -0.35859494822E+03  0.35859494825E+03  0.46700000000E-02 0.  1.
         23    2    1    2    0    0  0.00000000000E+00  0.00000000000E+00 -0.35278485840E+03  0.36440503994E+03  0.91290069652E+02 0.  0.
        -11    1    3    3    0    0  0.28875183788E+02 -0.32034355482E+02 -0.11671737362E+03  0.12443038807E+03  0.51100000000E-03 0. -1.
         11    1    3    3    0    0 -0.28875183788E+02  0.32034355482E+02 -0.23606748478E+03  0.23997465187E+03  0.51100000000E-03 0.  1.
<mgrwt>
<rscale>  0 0.91290070E+02</rscale>
<asrwt>0</asrwt>
<pdfrwt beam="1">  1        1 0.89386040E-03 0.91290070E+02</pdfrwt>
<pdfrwt beam="2">  1       -1 0.55168437E-01 0.91290070E+02</pdfrwt>
<totfact> 0.55984337E+04</totfact>
</mgrwt>
</event>
<event>
 5    1  0.2718303E+000  0.9035680E+02  0.7818608E-02  0.1301990E+00
          1   -1    0    0  501    0  0.00000000000E+00  0.00000000000E+00  0.13417741652E+03  0.13417741660E+03  0.46700000000E-02 0. -1.
         -1   -1    0    0    0  501 -0.00000000000E+00 -0.00000000000E+00 -0.15211858757E+02  0.15211859473E+02  0.46700000000E-02 0.  1.
         23    2    1    2    0    0  0.00000000000E+00  0.00000000000E+00  0.11896555777E+03  0.14938927608E+03  0.90356803133E+02 0.  0.
        -11    1    3    3    0    0 -0.15396526448E+02 -0.17273319500E+02 -0.46711245042E+01  0.23605931408E+02  0.51100000000E-03 0.  1.
         11    1    3    3    0    0  0.15396526448E+02  0.17273319500E+02  0.12363668227E+03  0.12578334467E+03  0.51100000000E-03 0. -1.
<mgrwt>
<rscale>  0 0.90356803E+02</rscale>
<asrwt>0</asrwt>
<pdfrwt beam="1">  1        1 0.20642681E-01 0.90356803E+02</pdfrwt>
<pdfrwt beam="2">  1       -1 0.23402859E-02 0.90356803E+02</pdfrwt>
<totfact> 0.11260106E+05</totfact>
</mgrwt>
</event>
<event>
 5    1  0.2718303E+000  0.9089427E+02  0.7818608E-02  0.1300700E+00
          1   -1    0    0  501    0  0.00000000000E+00  0.00000000000E+00  0.11684243856E+02  0.11684244789E+02  0.46700000000E-02 0. -1.
         -1   -1    0    0    0  501 -0.00000000000E+00 -0.00000000000E+00 -0.17677157225E+03  0.17677157231E+03  0.46700000000E-02 0.  1.
         23    2    1    2    0    0  0.00000000000E+00  0.00000000000E+00 -0.16508732840E+03  0.18845581710E+03  0.90894273763E+02 0.  0.
        -11    1    3    3    0    0  0.82237545606E+01 -0.44661782283E+02 -0.86216081866E+02  0.97444947064E+02  0.51100000000E-03 0.  1.
         11    1    3    3    0    0 -0.82237545606E+01  0.44661782283E+02 -0.78871246529E+02  0.91010870038E+02  0.51100000000E-03 0. -1.
<mgrwt>
<rscale>  0 0.90894274E+02</rscale>
<asrwt>0</asrwt>
<pdfrwt beam="1">  1        1 0.17975762E-02 0.90894274E+02</pdfrwt>
<pdfrwt beam="2">  1       -1 0.27195625E-01 0.90894274E+02</pdfrwt>
<totfact> 0.72393357E+04</totfact>
</mgrwt>
</event>
<event>
 5    1  0.2718303E+000  0.9167773E+02  0.7818608E-02  0.1298839E+00
          1   -1    0    0  501    0  0.00000000000E+00  0.00000000000E+00  0.47290600328E+02  0.47290600558E+02  0.46700000000E-02 0. -1.
         -1   -1    0    0    0  501 -0.00000000000E+00 -0.00000000000E+00 -0.44431697253E+02  0.44431697498E+02  0.46700000000E-02 0.  1.
         23    2    1    2    0    0  0.00000000000E+00  0.00000000000E+00  0.28589030747E+01  0.91722298057E+02  0.91677732487E+02 0.  0.
        -11    1    3    3    0    0 -0.17168114795E+02  0.18046448707E+02 -0.37070200176E+02  0.44661148865E+02  0.51100000000E-03 0.  1.
         11    1    3    3    0    0  0.17168114795E+02 -0.18046448707E+02  0.39929103251E+02  0.47061149192E+02  0.51100000000E-03 0. -1.
<mgrwt>
<rscale>  0 0.91677732E+02</rscale>
<asrwt>0</asrwt>
<pdfrwt beam="1">  1        1 0.72754770E-02 0.91677732E+02</pdfrwt>
<pdfrwt beam="2">  1       -1 0.68356458E-02 0.91677732E+02</pdfrwt>
<totfact> 0.91564419E+04</totfact>
</mgrwt>
</event>
<event>
 5    1  0.2718303E+000  0.9088142E+02  0.7818608E-02  0.1300731E+00
         -1   -1    0    0    0  501 -0.00000000000E+00  0.00000000000E+00  0.12176445446E+02  0.12176446341E+02  0.46700000000E-02 0.  1.
          1   -1    0    0  501    0  0.00000000000E+00 -0.00000000000E+00 -0.16957805693E+03  0.16957805700E+03  0.46700000000E-02 0. -1.
         23    2    1    2    0    0  0.00000000000E+00  0.00000000000E+00 -0.15740161149E+03  0.18175450334E+03  0.90881418261E+02 0.  0.
        -11    1    3    3    0    0 -0.39837355566E+02 -0.75403331175E+01 -0.37666774821E+02  0.55341281587E+02  0.51100000000E-03 0.  1.
         11    1    3    3    0    0  0.39837355566E+02  0.75403331175E+01 -0.11973483667E+03  0.12641322175E+03  0.51100000000E-03 0. -1.
<mgrwt>
<rscale>  0 0.90881418E+02</rscale>
<asrwt>0</asrwt>
<pdfrwt beam="2">  1        1 0.26088930E-01 0.90881418E+02</pdfrwt>
<pdfrwt beam="1">  1       -1 0.18732995E-02 0.90881418E+02</pdfrwt>
<totfact> 0.11572767E+05</totfact>
</mgrwt>
</event>
<event>
 5    1  0.2718303E+000  0.8846408E+02  0.7818608E-02  0.1306614E+00
         -1   -1    0    0    0  501 -0.00000000000E+00  0.00000000000E+00  0.45109296985E+02  0.45109297227E+02  0.46700000000E-02 0.  1.
          1   -1    0    0  501    0  0.00000000000E+00 -0.00000000000E+00 -0.43371844153E+02  0.43371844405E+02  0.46700000000E-02 0. -1.
         23    2    1    2    0    0  0.00000000000E+00  0.00000000000E+00  0.17374528315E+01  0.88481141632E+02  0.88464081310E+02 0.  0.
        -11    1    3    3    0    0 -0.90250957042E+01 -0.27596167407E+02 -0.32506445803E+02  0.43585201927E+02  0.51100000000E-03 0. -1.
         11    1    3    3    0    0  0.90250957042E+01  0.27596167407E+02  0.34243898634E+02  0.44895939705E+02  0.51100000000E-03 0.  1.
<mgrwt>
<rscale>  0 0.88464081E+02</rscale>
<asrwt>0</asrwt>
<pdfrwt beam="2">  1        1 0.66725915E-02 0.88464081E+02</pdfrwt>
<pdfrwt beam="1">  1       -1 0.69398919E-02 0.88464081E+02</pdfrwt>
<totfact> 0.99893019E+04</totfact>
</mgrwt>
</event>
<event>
 5    1  0.2718303E+000  0.9284254E+02  0.7818608E-02  0.1296110E+00
         -1   -1    0    0    0  501 -0.00000000000E+00  0.00000000000E+00  0.14158912500E+02  0.14158913270E+02  0.46700000000E-02 0.  1.
          1   -1    0    0  501    0  0.00000000000E+00 -0.00000000000E+00 -0.15219631962E+03  0.15219631969E+03  0.46700000000E-02 0. -1.
         23    2    1    2    0    0  0.00000000000E+00  0.00000000000E+00 -0.13803740712E+03  0.16635523296E+03  0.92842542885E+02 0.  0.
        -11    1    3    3    0    0 -0.20604422353E+02 -0.14194785724E+02  0.10427300942E+01  0.25042393028E+02  0.51100000000E-03 0.  1.
         11    1    3    3    0    0  0.20604422353E+02  0.14194785724E+02 -0.13908013722E+03  0.14131283993E+03  0.51100000000E-03 0. -1.
<mgrwt>
<rscale>  0 0.92842543E+02</rscale>
<asrwt>0</asrwt>
<pdfrwt beam="2">  1        1 0.23414817E-01 0.92842543E+02</pdfrwt>
<pdfrwt beam="1">  1       -1 0.21782944E-02 0.92842543E+02</pdfrwt>
<totfact> 0.10706566E+05</totfact>
</mgrwt>
</event>
<event>
 5    1  0.2718303E+000  0.8949566E+02  0.7818608E-02  0.1304078E+00
         -1   -1    0    0    0  501 -0.00000000000E+00  0.00000000000E+00  0.11126842045E+02  0.11126843025E+02  0.46700000000E-02 0.  1.
          1   -1    0    0  501    0  0.00000000000E+00 -0.00000000000E+00 -0.17995837163E+03  0.17995837169E+03  0.46700000000E-02 0. -1.
         23    2    1    2    0    0  0.00000000000E+00  0.00000000000E+00 -0.16883152959E+03  0.19108521472E+03  0.89495664148E+02 0.  0.
        -11    1    3    3    0    0  0.17218122303E+02  0.30428478769E+02 -0.24784249112E+02  0.42855747107E+02  0.51100000000E-03 0.  1.
         11    1    3    3    0    0 -0.17218122303E+02 -0.30428478769E+02 -0.14404728048E+03  0.14822946761E+03  0.51100000000E-03 0. -1.
<mgrwt>
<rscale>  0 0.89495664E+02</rscale>
<asrwt>0</asrwt>
<pdfrwt beam="2">  1        1 0.27685901E-01 0.89495664E+02</pdfrwt>
<pdfrwt beam="1">  1       -1 0.17118221E-02 0.89495664E+02</pdfrwt>
<totfact> 0.12196039E+05</totfact>
</mgrwt>
</event>
<event>
 5    1  0.2718303E+000  0.8394127E+02  0.7818608E-02  0.1318225E+00
          1   -1    0    0  501    0  0.00000000000E+00  0.00000000000E+00  0.51385621364E+02  0.51385621576E+02  0.46700000000E-02 0. -1.
         -1   -1    0    0    0  501 -0.00000000000E+00 -0.00000000000E+00 -0.34280681129E+02  0.34280681447E+02  0.46700000000E-02 0.  1.
         23    2    1    2    0    0  0.00000000000E+00  0.00000000000E+00  0.17104940235E+02  0.85666303023E+02  0.83941268118E+02 0.  0.
        -11    1    3    3    0    0 -0.30630494856E+02  0.19356738543E+02  0.30168480883E+02  0.47149207641E+02  0.51100000000E-03 0. -1.
         11    1    3    3    0    0  0.30630494856E+02 -0.19356738543E+02 -0.13063540648E+02  0.38517095382E+02  0.51100000000E-03 0.  1.
<mgrwt>
<rscale>  0 0.83941268E+02</rscale>
<asrwt>0</asrwt>
<pdfrwt beam="1">  1        1 0.79054802E-02 0.83941268E+02</pdfrwt>
<pdfrwt beam="2">  1       -1 0.52739510E-02 0.83941268E+02</pdfrwt>
<totfact> 0.11839732E+05</totfact>
</mgrwt>
</event>
<event>
 4    1  0.2718303E+000  0.1380747E+03  0.7818608E-02  0.1215943E+00
          1   -1    0    0  501    0  0.00000000000E+00  0.00000000000E+00  0.70193981011E+02  0.70193981166E+02  0.46700000000E-02 0. -1.
         -1   -1    0    0    0  501 -0.00000000000E+00 -0.00000000000E+00 -0.67899772165E+02  0.67899772325E+02  0.46700000000E-02 0.  1.
        -11    1    1    2    0    0 -0.15483617705E+02 -0.64754076412E+02  0.19406746658E+02  0.69350231761E+02  0.51100000000E-03 0.  1.
         11    1    1    2    0    0  0.15483617705E+02  0.64754076412E+02 -0.17112537811E+02  0.68743521730E+02  0.51100000000E-03 0. -1.
<mgrwt>
<rscale>  0 0.13807469E+03</rscale>
<asrwt>0</asrwt>
<pdfrwt beam="1">  1        1 0.10799074E-01 0.13807469E+03</pdfrwt>
<pdfrwt beam="2">  1       -1 0.10446119E-01 0.13807469E+03</pdfrwt>
<totfact> 0.30254294E+04</totfact>
</mgrwt>
</event>
<event>
 5    1  0.2718303E+000  0.8421545E+02  0.7818608E-02  0.1317497E+00
         -1   -1    0    0    0  501 -0.00000000000E+00  0.00000000000E+00  0.17294663736E+02  0.17294664367E+02  0.46700000000E-02 0.  1.
          1   -1    0    0  501    0  0.00000000000E+00 -0.00000000000E+00 -0.10252065650E+03  0.10252065661E+03  0.46700000000E-02 0. -1.
         23    2    1    2    0    0  0.00000000000E+00  0.00000000000E+00 -0.85225992765E+02  0.11981532097E+03  0.84215445718E+02 0.  0.
        -11    1    3    3    0    0 -0.28173384055E+02 -0.97367673054E+01 -0.84925963400E+02  0.90005352431E+02  0.51100000000E-03 0. -1.
         11    1    3    3    0    0  0.28173384055E+02  0.97367673054E+01 -0.30002936575E+00  0.29809968543E+02  0.51100000000E-03 0.  1.
<mgrwt>
<rscale>  0 0.84215446E+02</rscale>
<asrwt>0</asrwt>
<pdfrwt beam="2">  1        1 0.15772408E-01 0.84215446E+02</pdfrwt>
<pdfrwt beam="1">  1       -1 0.26607176E-02 0.84215446E+02</pdfrwt>
<totfact> 0.13005600E+05</totfact>
</mgrwt>
</event>
<event>
 5    1  0.2718303E+000  0.9423041E+02  0.7818608E-02  0.1292919E+00
         -1   -1    0    0    0  501 -0.00000000000E+00  0.00000000000E+00  0.48383269660E+02  0.48383269886E+02  0.46700000000E-02 0.  1.
          1   -1    0    0  501    0  0.00000000000E+00 -0.00000000000E+00 -0.45880370444E+02  0.45880370682E+02  0.46700000000E-02 0. -1.
         23    2    1    2    0    0  0.00000000000E+00  0.00000000000E+00  0.25028992162E+01  0.94263640568E+02  0.94230406073E+02 0.  0.
        -11    1    3    3    0    0 -0.27676054724E+02  0.37956302062E+02  0.48855652642E+01  0.47228313748E+02  0.51100000000E-03 0.  1.
         11    1    3    3    0    0  0.27676054724E+02 -0.37956302062E+02 -0.23826660480E+01  0.47035326820E+02  0.51100000000E-03 0. -1.
<mgrwt>
<rscale>  0 0.94230406E+02</rscale>
<asrwt>0</asrwt>
<pdfrwt beam="2">  1        1 0.70585186E-02 0.94230406E+02</pdfrwt>
<pdfrwt beam="1">  1       -1 0.74435800E-02 0.94230406E+02</pdfrwt>
<totfact> 0.84360208E+04</totfact>
</mgrwt>
</event>
<event>
 5    1  0.2718303E+000  0.9149053E+02  0.7818608E-02  0.1299282E+00
         -1   -1    0    0    0  501 -0.00000000000E+00  0.00000000000E+00  0.75239539345E+01  0.75239553838E+01  0.46700000000E-02 0.  1.
          1   -1    0    0  501    0  0.00000000000E+00 -0.00000000000E+00 -0.27812889620E+03  0.27812889624E+03  0.46700000000E-02 0. -1.
         23    2    1    2    0    0  0.00000000000E+00  0.00000000000E+00 -0.27060494227E+03  0.28565285163E+03  0.91490528810E+02 0.  0.
        -11    1    3    3    0    0  0.39361276985E+02 -0.44877889365E+00 -0.62539671769E+02  0.73896698665E+02  0.51100000000E-03 0. -1.
         11    1    3    3    0    0 -0.39361276985E+02  0.44877889365E+00 -0.20806527050E+03  0.21175615296E+03  0.51100000000E-03 0.  1.
<mgrwt>
<rscale>  0 0.91490529E+02</rscale>
<asrwt>0</asrwt>
<pdfrwt beam="2">  1        1 0.42789053E-01 0.91490529E+02</pdfrwt>
<pdfrwt beam="1">  1       -1 0.11575317E-02 0.91490529E+02</pdfrwt>
<totfact> 0.12511637E+05</totfact>
</mgrwt>
</event>
<event>
 5    1  0.2718303E+000  0.8917650E+02  0.7818608E-02  0.1304858E+00
          1   -1    0    0  501    0  0.00000000000E+00  0.00000000000E+00  0.17099277490E+03  0.17099277497E+03  0.46700000000E-02 0. -1.
         -1   -1    0    0    0  501 -0.00000000000E+00 -0.00000000000E+00 -0.11626877281E+02  0.11626878219E+02  0.46700000000E-02 0.  1.
         23    2    1    2    0    0  0.00000000000E+00  0.00000000000E+00  0.15936589762E+03  0.18261965319E+03  0.89176501418E+02 0.  0.
        -11    1    3    3    0    0  0.20253165416E+02 -0.39704826697E+02  0.82147288926E+02  0.93460371552E+02  0.51100000000E-03 0. -1.
         11    1    3    3    0    0 -0.20253165416E+02  0.39704826697E+02  0.77218608697E+02  0.89159281635E+02  0.51100000000E-03 0.  1.
<mgrwt>
<rscale>  0 0.89176501E+02</rscale>
<asrwt>0</asrwt>
<pdfrwt beam="1">  1        1 0.26306579E-01 0.89176501E+02</pdfrwt>
<pdfrwt beam="2">  1       -1 0.17887505E-02 0.89176501E+02</pdfrwt>
<totfact> 0.12195231E+05</totfact>
</mgrwt>
</event>
<event>
 5    1  0.2718303E+000  0.8847261E+02  0.7818608E-02  0.1306593E+00
         -1   -1    0    0    0  501 -0.00000000000E+00  0.00000000000E+00  0.79127011103E+02  0.79127011241E+02  0.46700000000E-02 0.  1.
          1   -1    0    0  501    0  0.00000000000E+00 -0.00000000000E+00 -0.24730500468E+02  0.24730500909E+02  0.46700000000E-02 0. -1.
         23    2    1    2    0    0  0.00000000000E+00  0.00000000000E+00  0.54396510635E+02  0.10385751215E+03  0.88472608533E+02 0.  0.
        -11    1    3    3    0    0 -0.33325187458E+02  0.22413804101E+02  0.48967713578E+02  0.63330748510E+02  0.51100000000E-03 0.  1.
         11    1    3    3    0    0  0.33325187458E+02 -0.22413804101E+02  0.54287970568E+01  0.40526763640E+02  0.51100000000E-03 0. -1.
<mgrwt>
<rscale>  0 0.88472609E+02</rscale>
<asrwt>0</asrwt>
<pdfrwt beam="2">  1        1 0.38046924E-02 0.88472609E+02</pdfrwt>
<pdfrwt beam="1">  1       -1 0.12173386E-01 0.88472609E+02</pdfrwt>
<totfact> 0.91591160E+04</totfact>
</mgrwt>
</event>
<event>
 5    1  0.2718303E+000  0.9196682E+02  0.7818608E-02  0.1298157E+00
         -1   -1    0    0    0  501 -0.00000000000E+00  0.00000000000E+00  0.76494690570E+02  0.76494690712E+02  0.46700000000E-02 0.  1.
          1   -1    0    0  501    0  0.00000000000E+00 -0.00000000000E+00 -0.27642102801E+02  0.27642103196E+02  0.46700000000E-02 0. -1.
         23    2    1    2    0    0  0.00000000000E+00  0.00000000000E+00  0.48852587769E+02  0.10413679391E+03  0.91966822897E+02 0.  0.
        -11    1    3    3    0    0 -0.41384191880E+02  0.19922622214E+02  0.21916729003E+02  0.50891111443E+02  0.51100000000E-03 0.  1.
         11    1    3    3    0    0  0.41384191880E+02 -0.19922622214E+02  0.26935858765E+02  0.53245682465E+02  0.51100000000E-03 0. -1.
<mgrwt>
<rscale>  0 0.91966823E+02</rscale>
<asrwt>0</asrwt>
<pdfrwt beam="2">  1        1 0.42526313E-02 0.91966823E+02</pdfrwt>
<pdfrwt beam="1">  1       -1 0.11768414E-01 0.91966823E+02</pdfrwt>
<totfact> 0.83426749E+04</totfact>
</mgrwt>
</event>
<event>
 5    1  0.2718303E+000  0.9133134E+02  0.7818608E-02  0.1299659E+00
          1   -1    0    0  501    0  0.00000000000E+00  0.00000000000E+00  0.18227367307E+03  0.18227367313E+03  0.46700000000E-02 0. -1.
         -1   -1    0    0    0  501 -0.00000000000E+00 -0.00000000000E+00 -0.11440782678E+02  0.11440783631E+02  0.46700000000E-02 0.  1.
         23    2    1    2    0    0  0.00000000000E+00  0.00000000000E+00  0.17083289039E+03  0.19371445676E+03  0.91331343569E+02 0.  0.
        -11    1    3    3    0    0  0.30484903559E+02  0.31805934520E+02  0.11090445666E+03  0.11933459399E+03  0.51100000000E-03 0. -1.
         11    1    3    3    0    0 -0.30484903559E+02 -0.31805934520E+02  0.59928433732E+02  0.74379862769E+02  0.51100000000E-03 0.  1.
<mgrwt>
<rscale>  0 0.91331344E+02</rscale>
<asrwt>0</asrwt>
<pdfrwt beam="1">  1        1 0.28042102E-01 0.91331344E+02</pdfrwt>
<pdfrwt beam="2">  1       -1 0.17601206E-02 0.91331344E+02</pdfrwt>
<totfact> 0.11577703E+05</totfact>
</mgrwt>
</event>
<event>
 5    1  0.2718303E+000  0.9191910E+02  0.7818608E-02  0.1298270E+00
          1   -1    0    0  501    0  0.00000000000E+00  0.00000000000E+00  0.19120345637E+03  0.19120345642E+03  0.46700000000E-02 0. -1.
         -1   -1    0    0    0  501 -0.00000000000E+00 -0.00000000000E+00 -0.11047291709E+02  0.11047292696E+02  0.46700000000E-02 0.  1.
         23    2    1    2    0    0  0.00000000000E+00  0.00000000000E+00  0.18015616466E+03  0.20225074912E+03  0.91919104951E+02 0.  0.
        -11    1    3    3    0    0  0.42064545695E+02 -0.10469313553E+02  0.12368225856E+03  0.13105851218E+03  0.51100000000E-03 0.  1.
         11    1    3    3    0    0 -0.42064545695E+02  0.10469313553E+02  0.56473906094E+02  0.71192236940E+02  0.51100000000E-03 0. -1.
<mgrwt>
<rscale>  0 0.91919105E+02</rscale>
<asrwt>0</asrwt>
<pdfrwt beam="1">  1        1 0.29415913E-01 0.91919105E+02</pdfrwt>
<pdfrwt beam="2">  1       -1 0.16995836E-02 0.91919105E+02</pdfrwt>
<totfact> 0.11485014E+05</totfact>
</mgrwt>
</event>
<event>
 5    1  0.2718303E+000  0.9644722E+02  0.7818608E-02  0.1287949E+00
          1   -1    0    0  501    0  0.00000000000E+00  0.00000000000E+00  0.82803265145E+02  0.82803265277E+02  0.46700000000E-02 0. -1.
         -1   -1    0    0    0  501 -0.00000000000E+00 -0.00000000000E+00 -0.28084839599E+02  0.28084839988E+02  0.46700000000E-02 0.  1.
         23    2    1    2    0    0  0.00000000000E+00  0.00000000000E+00  0.54718425546E+02  0.11088810526E+03  0.96447217663E+02 0.  0.
        -11    1    3    3    0    0 -0.43290099564E+02 -0.20507995672E+02  0.20967525066E+02  0.52290034561E+02  0.51100000000E-03 0.  1.
         11    1    3    3    0    0  0.43290099564E+02  0.20507995672E+02  0.33750900480E+02  0.58598070703E+02  0.51100000000E-03 0. -1.
<mgrwt>
<rscale>  0 0.96447218E+02</rscale>
<asrwt>0</asrwt>
<pdfrwt beam="1">  1        1 0.12738964E-01 0.96447218E+02</pdfrwt>
<pdfrwt beam="2">  1       -1 0.43207446E-02 0.96447218E+02</pdfrwt>
<totfact> 0.86768625E+04</totfact>
</mgrwt>
</event>
<event>
 5    1  0.2718303E+000  0.9245777E+02  0.7818608E-02  0.1297007E+00
         -1   -1    0    0    0  501 -0.00000000000E+00  0.00000000000E+00  0.54829265992E+02  0.54829266191E+02  0.46700000000E-02 0.  1.
          1   -1    0    0  501    0  0.00000000000E+00 -0.00000000000E+00 -0.38977537445E+02  0.38977537725E+02  0.46700000000E-02 0. -1.
         23    2    1    2    0    0  0.00000000000E+00  0.00000000000E+00  0.15851728547E+02  0.93806803916E+02  0.92457769620E+02 0.  0.
        -11    1    3    3    0    0 -0.14605714207E+02  0.20456063361E+02  0.47290580747E+02  0.53555358680E+02  0.51100000000E-03 0.  1.
         11    1    3    3    0    0  0.14605714207E+02 -0.20456063361E+02 -0.31438852200E+02  0.40251445236E+02  0.51100000000E-03 0. -1.
<mgrwt>
<rscale>  0 0.92457770E+02</rscale>
<asrwt>0</asrwt>
<pdfrwt beam="2">  1        1 0.59965443E-02 0.92457770E+02</pdfrwt>
<pdfrwt beam="1">  1       -1 0.84352717E-02 0.92457770E+02</pdfrwt>
<totfact> 0.86805337E+04</totfact>
</mgrwt>
</event>
<event>
 5    1  0.2718303E+000  0.9178613E+02  0.7818608E-02  0.1298583E+00
          1   -1    0    0  501    0  0.00000000000E+00  0.00000000000E+00  0.13021518289E+03  0.13021518297E+03  0.46700000000E-02 0. -1.
         -1   -1    0    0    0  501 -0.00000000000E+00 -0.00000000000E+00 -0.16174561507E+02  0.16174562181E+02  0.46700000000E-02 0.  1.
         23    2    1    2    0    0  0.00000000000E+00  0.00000000000E+00  0.11404062138E+03  0.14638974515E+03  0.91786132727E+02 0.  0.
        -11    1    3    3    0    0  0.44270839410E+02  0.24280021423E+00  0.37735374359E+02  0.58171510658E+02  0.51100000000E-03 0.  1.
         11    1    3    3    0    0 -0.44270839410E+02 -0.24280021423E+00  0.76305247023E+02  0.88218234495E+02  0.51100000000E-03 0. -1.
<mgrwt>
<rscale>  0 0.91786133E+02</rscale>
<asrwt>0</asrwt>
<pdfrwt beam="1">  1        1 0.20033106E-01 0.91786133E+02</pdfrwt>
<pdfrwt beam="2">  1       -1 0.24883940E-02 0.91786133E+02</pdfrwt>
<totfact> 0.10734410E+05</totfact>
</mgrwt>
</event>
<event>
 5    1  0.2718303E+000  0.9153097E+02  0.7818608E-02  0.1299186E+00
          1   -1    0    0  501    0  0.00000000000E+00  0.00000000000E+00  0.11573043035E+03  0.11573043045E+03  0.46700000000E-02 0. -1.
         -1   -1    0    0    0  501 -0.00000000000E+00 -0.00000000000E+00 -0.18097915626E+02  0.18097916229E+02  0.46700000000E-02 0.  1.
         23    2    1    2    0    0  0.00000000000E+00  0.00000000000E+00  0.97632514726E+02  0.13382834668E+03  0.91530969852E+02 0.  0.
        -11    1    3    3    0    0 -0.26807407093E+02  0.12892821540E+02  0.99667797740E+02  0.10401217154E+03  0.51100000000E-03 0. -1.
         11    1    3    3    0    0  0.26807407093E+02 -0.12892821540E+02 -0.20352830141E+01  0.29816175133E+02  0.51100000000E-03 0.  1.
<mgrwt>
<rscale>  0 0.91530970E+02</rscale>
<asrwt>0</asrwt>
<pdfrwt beam="1">  1        1 0.17804681E-01 0.91530970E+02</pdfrwt>
<pdfrwt beam="2">  1       -1 0.27842948E-02 0.91530970E+02</pdfrwt>
<totfact> 0.10594374E+05</totfact>
</mgrwt>
</event>
<event>
 5    1  0.2718303E+000  0.7521324E+02  0.7818608E-02  0.1343212E+00
         -1   -1    0    0    0  501 -0.00000000000E+00  0.00000000000E+00  0.56133765378E+02  0.56133765573E+02  0.46700000000E-02 0.  1.
          1   -1    0    0  501    0  0.00000000000E+00 -0.00000000000E+00 -0.25194422363E+02  0.25194422796E+02  0.46700000000E-02 0. -1.
         23    2    1    2    0    0  0.00000000000E+00  0.00000000000E+00  0.30939343015E+02  0.81328188369E+02  0.75213238709E+02 0.  0.
        -11    1    3    3    0    0  0.84369882159E+01  0.22049726285E+02  0.47122168933E+02  0.52705521576E+02  0.51100000000E-03 0.  1.
         11    1    3    3    0    0 -0.84369882159E+01 -0.22049726285E+02 -0.16182825918E+02  0.28622666793E+02  0.51100000000E-03 0. -1.
<mgrwt>
<rscale>  0 0.75213239E+02</rscale>
<asrwt>0</asrwt>
<pdfrwt beam="2">  1        1 0.38760650E-02 0.75213239E+02</pdfrwt>
<pdfrwt beam="1">  1       -1 0.86359640E-02 0.75213239E+02</pdfrwt>
<totfact> 0.14568182E+05</totfact>
</mgrwt>
</event>
<event>
 5    1  0.2718303E+000  0.9301140E+02  0.7818608E-02  0.1295719E+00
          1   -1    0    0  501    0  0.00000000000E+00  0.00000000000E+00  0.36240016925E+02  0.36240017226E+02  0.46700000000E-02 0. -1.
         -1   -1    0    0    0  501 -0.00000000000E+00 -0.00000000000E+00 -0.59679329181E+02  0.59679329363E+02  0.46700000000E-02 0.  1.
         23    2    1    2    0    0  0.00000000000E+00  0.00000000000E+00 -0.23439312255E+02  0.95919346589E+02  0.93011395491E+02 0.  0.
        -11    1    3    3    0    0  0.20415597778E+02  0.38003659009E+02 -0.29632372242E+02  0.52336910643E+02  0.51100000000E-03 0.  1.
         11    1    3    3    0    0 -0.20415597778E+02 -0.38003659009E+02  0.61930599866E+01  0.43582435946E+02  0.51100000000E-03 0. -1.
<mgrwt>
<rscale>  0 0.93011395E+02</rscale>
<asrwt>0</asrwt>
<pdfrwt beam="1">  1        1 0.55753873E-02 0.93011395E+02</pdfrwt>
<pdfrwt beam="2">  1       -1 0.91814353E-02 0.93011395E+02</pdfrwt>
<totfact> 0.84379460E+04</totfact>
</mgrwt>
</event>
<event>
 5    1  0.2718303E+000  0.9077888E+02  0.7818608E-02  0.1300976E+00
          1   -1    0    0  501    0  0.00000000000E+00  0.00000000000E+00  0.57094694419E+02  0.57094694610E+02  0.46700000000E-02 0. -1.
         -1   -1    0    0    0  501 -0.00000000000E+00 -0.00000000000E+00 -0.36083935554E+02  0.36083935856E+02  0.46700000000E-02 0.  1.
         23    2    1    2    0    0  0.00000000000E+00  0.00000000000E+00  0.21010758865E+02  0.93178630467E+02  0.90778880735E+02 0.  0.
        -11    1    3    3    0    0 -0.39244341233E+01 -0.21917635506E+02 -0.30092917295E+02  0.37434844744E+02  0.51100000000E-03 0.  1.
         11    1    3    3    0    0  0.39244341233E+01  0.21917635506E+02  0.51103676160E+02  0.55743785723E+02  0.51100000000E-03 0. -1.
<mgrwt>
<rscale>  0 0.90778881E+02</rscale>
<asrwt>0</asrwt>
<pdfrwt beam="1">  1        1 0.87837991E-02 0.90778881E+02</pdfrwt>
<pdfrwt beam="2">  1       -1 0.55513748E-02 0.90778881E+02</pdfrwt>
<totfact> 0.96820909E+04</totfact>
</mgrwt>
</event>
<event>
 5    1  0.2718303E+000  0.8897373E+02  0.7818608E-02  0.1305356E+00
          1   -1    0    0  501    0  0.00000000000E+00  0.00000000000E+00  0.75438767330E+02  0.75438767475E+02  0.46700000000E-02 0. -1.
         -1   -1    0    0    0  501 -0.00000000000E+00 -0.00000000000E+00 -0.26234269529E+02  0.26234269944E+02  0.46700000000E-02 0.  1.
         23    2    1    2    0    0  0.00000000000E+00  0.00000000000E+00  0.49204497802E+02  0.10167303742E+03  0.88973726089E+02 0.  0.
        -11    1    3    3    0    0 -0.40167031467E+02 -0.40172384764E+01  0.32373845555E+01  0.40497028050E+02  0.51100000000E-03 0. -1.
         11    1    3    3    0    0  0.40167031467E+02  0.40172384764E+01  0.45967113246E+02  0.61176009369E+02  0.51100000000E-03 0.  1.
<mgrwt>
<rscale>  0 0.88973726E+02</rscale>
<asrwt>0</asrwt>
<pdfrwt beam="1">  1        1 0.11605964E-01 0.88973726E+02</pdfrwt>
<pdfrwt beam="2">  1       -1 0.40360415E-02 0.88973726E+02</pdfrwt>
<totfact> 0.10674785E+05</totfact>
</mgrwt>
</event>
<event>
 5    1  0.2718303E+000  0.9755999E+02  0.7818608E-02  0.1285512E+00
          1   -1    0    0  501    0  0.00000000000E+00  0.00000000000E+00  0.14958612918E+03  0.14958612925E+03  0.46700000000E-02 0.  1.
         -1   -1    0    0    0  501 -0.00000000000E+00 -0.00000000000E+00 -0.15907142193E+02  0.15907142878E+02  0.46700000000E-02 0. -1.
         23    2    1    2    0    0  0.00000000000E+00  0.00000000000E+00  0.13367898699E+03  0.16549327213E+03  0.97559989539E+02 0.  0.
        -11    1    3    3    0    0  0.41178054893E+02 -0.26761009671E+01  0.11096653536E+03  0.11839073313E+03  0.51100000000E-03 0.  1.
         11    1    3    3    0    0 -0.41178054893E+02  0.26761009671E+01  0.22712451629E+02  0.47102539002E+02  0.51100000000E-03 0. -1.
<mgrwt>
<rscale>  0 0.97559990E+02</rscale>
<asrwt>0</asrwt>
<pdfrwt beam="1">  1        1 0.23013252E-01 0.97559990E+02</pdfrwt>
<pdfrwt beam="2">  1       -1 0.24472526E-02 0.97559990E+02</pdfrwt>
<totfact> 0.93294425E+04</totfact>
</mgrwt>
</event>
<event>
 5    1  0.2718303E+000  0.9096713E+02  0.7818608E-02  0.1300526E+00
          1   -1    0    0  501    0  0.00000000000E+00  0.00000000000E+00  0.44068157010E+02  0.44068157257E+02  0.46700000000E-02 0. -1.
         -1   -1    0    0    0  501 -0.00000000000E+00 -0.00000000000E+00 -0.46944430680E+02  0.46944430912E+02  0.46700000000E-02 0.  1.
         23    2    1    2    0    0  0.00000000000E+00  0.00000000000E+00 -0.28762736699E+01  0.91012588169E+02  0.90967127332E+02 0.  0.
        -11    1    3    3    0    0  0.39368501536E+02 -0.23611985205E+01  0.21229319219E+02  0.44789933762E+02  0.51100000000E-03 0. -1.
         11    1    3    3    0    0 -0.39368501536E+02  0.23611985205E+01 -0.24105592888E+02  0.46222654407E+02  0.51100000000E-03 0.  1.
<mgrwt>
<rscale>  0 0.90967127E+02</rscale>
<asrwt>0</asrwt>
<pdfrwt beam="1">  1        1 0.67797165E-02 0.90967127E+02</pdfrwt>
<pdfrwt beam="2">  1       -1 0.72222201E-02 0.90967127E+02</pdfrwt>
<totfact> 0.92599171E+04</totfact>
</mgrwt>
</event>
<event>
 5    1  0.2718303E+000  0.9097086E+02  0.7818608E-02  0.1300517E+00
         -1   -1    0    0    0  501 -0.00000000000E+00  0.00000000000E+00  0.18191661274E+03  0.18191661280E+03  0.46700000000E-02 0.  1.
          1   -1    0    0  501    0  0.00000000000E+00 -0.00000000000E+00 -0.11372927370E+02  0.11372928329E+02  0.46700000000E-02 0. -1.
         23    2    1    2    0    0  0.00000000000E+00  0.00000000000E+00  0.17054368537E+03  0.19328954113E+03  0.90970863965E+02 0.  0.
        -11    1    3    3    0    0 -0.31918809931E+01  0.45110582631E+02  0.95631291251E+02  0.10578514374E+03  0.51100000000E-03 0. -1.
         11    1    3    3    0    0  0.31918809931E+01 -0.45110582631E+02  0.74912394121E+02  0.87504397391E+02  0.51100000000E-03 0.  1.
<mgrwt>
<rscale>  0 0.90970864E+02</rscale>
<asrwt>0</asrwt>
<pdfrwt beam="2">  1        1 0.17496811E-02 0.90970864E+02</pdfrwt>
<pdfrwt beam="1">  1       -1 0.27987174E-01 0.90970864E+02</pdfrwt>
<totfact> 0.71688854E+04</totfact>
</mgrwt>
</event>
<event>
 5    1  0.2718303E+000  0.7973497E+02  0.7818608E-02  0.1329805E+00
          1   -1    0    0  501    0  0.00000000000E+00  0.00000000000E+00  0.49167273848E+01  0.49167296026E+01  0.46700000000E-02 0. -1.
         -1   -1    0    0    0  501 -0.00000000000E+00 -0.00000000000E+00 -0.32326707360E+03  0.32326707363E+03  0.46700000000E-02 0.  1.
         23    2    1    2    0    0  0.00000000000E+00  0.00000000000E+00 -0.31835034621E+03  0.32818380323E+03  0.79734972071E+02 0.  0.
        -11    1    3    3    0    0 -0.31385708925E+02  0.24217234367E+02 -0.14177140536E+03  0.14720960751E+03  0.51100000000E-03 0. -1.
         11    1    3    3    0    0  0.31385708925E+02 -0.24217234367E+02 -0.17657894085E+03  0.18097419572E+03  0.51100000000E-03 0.  1.
<mgrwt>
<rscale>  0 0.79734972E+02</rscale>
<asrwt>0</asrwt>
<pdfrwt beam="1">  1        1 0.75642002E-03 0.79734972E+02</pdfrwt>
<pdfrwt beam="2">  1       -1 0.49733380E-01 0.79734972E+02</pdfrwt>
<totfact> 0.83327265E+04</totfact>
</mgrwt>
</event>
<event>
 5    1  0.2718303E+000  0.9045457E+02  0.7818608E-02  0.1301755E+00
         -1   -1    0    0    0  501 -0.00000000000E+00  0.00000000000E+00  0.16601316503E+03  0.16601316509E+03  0.46700000000E-02 0.  1.
          1   -1    0    0  501    0  0.00000000000E+00 -0.00000000000E+00 -0.12321356498E+02  0.12321357383E+02  0.46700000000E-02 0. -1.
         23    2    1    2    0    0  0.00000000000E+00  0.00000000000E+00  0.15369180853E+03  0.17833452248E+03  0.90454573669E+02 0.  0.
        -11    1    3    3    0    0  0.17353379325E+02 -0.30964174468E+02  0.13210480000E+03  0.13679034344E+03  0.51100000000E-03 0.  1.
         11    1    3    3    0    0 -0.17353379325E+02  0.30964174468E+02  0.21587008529E+02  0.41544179038E+02  0.51100000000E-03 0. -1.
<mgrwt>
<rscale>  0 0.90454574E+02</rscale>
<asrwt>0</asrwt>
<pdfrwt beam="2">  1        1 0.18955936E-02 0.90454574E+02</pdfrwt>
<pdfrwt beam="1">  1       -1 0.25540485E-01 0.90454574E+02</pdfrwt>
<totfact> 0.74497230E+04</totfact>
</mgrwt>
</event>
<event>
 5    1  0.2718303E+000  0.9702483E+02  0.7818608E-02  0.1286680E+00
          1   -1    0    0  501    0  0.00000000000E+00  0.00000000000E+00  0.29635323695E+02  0.29635324063E+02  0.46700000000E-02 0. -1.
         -1   -1    0    0    0  501 -0.00000000000E+00 -0.00000000000E+00 -0.79413816493E+02  0.79413816631E+02  0.46700000000E-02 0.  1.
         23    2    1    2    0    0  0.00000000000E+00  0.00000000000E+00 -0.49778492798E+02  0.10904914069E+03  0.97024825384E+02 0.  0.
        -11    1    3    3    0    0 -0.27526377415E+02 -0.28573302558E+02 -0.56265207757E+02  0.68846994683E+02  0.51100000000E-03 0.  1.
         11    1    3    3    0    0  0.27526377415E+02  0.28573302558E+02  0.64867149587E+01  0.40202146011E+02  0.51100000000E-03 0. -1.
<mgrwt>
<rscale>  0 0.97024825E+02</rscale>
<asrwt>0</asrwt>
<pdfrwt beam="1">  1        1 0.45592806E-02 0.97024825E+02</pdfrwt>
<pdfrwt beam="2">  1       -1 0.12217510E-01 0.97024825E+02</pdfrwt>
<totfact> 0.72272670E+04</totfact>
</mgrwt>
</event>
<event>
 5    1  0.2718303E+000  0.7537369E+02  0.7818608E-02  0.1342718E+00
          1   -1    0    0  501    0  0.00000000000E+00  0.00000000000E+00  0.15991907703E+03  0.15991907710E+03  0.46700000000E-02 0. -1.
         -1   -1    0    0    0  501 -0.00000000000E+00 -0.00000000000E+00 -0.88813549603E+01  0.88813561881E+01  0.46700000000E-02 0.  1.
         23    2    1    2    0    0  0.00000000000E+00  0.00000000000E+00  0.15103772207E+03  0.16880043329E+03  0.75373687648E+02 0.  0.
        -11    1    3    3    0    0 -0.35193122927E+02  0.63532999458E+01  0.10214722713E+03  0.10822650476E+03  0.51100000000E-03 0. -1.
         11    1    3    3    0    0  0.35193122927E+02 -0.63532999458E+01  0.48890494936E+02  0.60573928524E+02  0.51100000000E-03 0.  1.
<mgrwt>
<rscale>  0 0.75373688E+02</rscale>
<asrwt>0</asrwt>
<pdfrwt beam="1">  1        1 0.24602937E-01 0.75373688E+02</pdfrwt>
<pdfrwt beam="2">  1       -1 0.13663623E-02 0.75373688E+02</pdfrwt>
<totfact> 0.18839789E+05</totfact>
</mgrwt>
</event>
<event>
 5    1  0.2718303E+000  0.9174716E+02  0.7818608E-02  0.1298675E+00
          1   -1    0    0  501    0  0.00000000000E+00  0.00000000000E+00  0.31752029956E+03  0.31752029959E+03  0.46700000000E-02 0. -1.
         -1   -1    0    0    0  501 -0.00000000000E+00 -0.00000000000E+00 -0.66275607261E+01  0.66275623714E+01  0.46700000000E-02 0.  1.
         23    2    1    2    0    0  0.00000000000E+00  0.00000000000E+00  0.31089273883E+03  0.32414786196E+03  0.91747159941E+02 0.  0.
        -11    1    3    3    0    0  0.17906772801E+02  0.41971483668E+02  0.13882696009E+03  0.14613412607E+03  0.51100000000E-03 0.  1.
         11    1    3    3    0    0 -0.17906772801E+02 -0.41971483668E+02  0.17206577874E+03  0.17801373589E+03  0.51100000000E-03 0. -1.
<mgrwt>
<rscale>  0 0.91747160E+02</rscale>
<asrwt>0</asrwt>
<pdfrwt beam="1">  1        1 0.48849280E-01 0.91747160E+02</pdfrwt>
<pdfrwt beam="2">  1       -1 0.10196248E-02 0.91747160E+02</pdfrwt>
<totfact> 0.12736876E+05</totfact>
</mgrwt>
</event>
<event>
 5    1  0.2718303E+000  0.9133722E+02  0.7818608E-02  0.1299645E+00
         -1   -1    0    0    0  501 -0.00000000000E+00  0.00000000000E+00  0.55932658347E+01  0.55932677842E+01  0.46700000000E-02 0.  1.
          1   -1    0    0  501    0  0.00000000000E+00 -0.00000000000E+00 -0.37288085331E+03  0.37288085334E+03  0.46700000000E-02 0. -1.
         23    2    1    2    0    0  0.00000000000E+00  0.00000000000E+00 -0.36728758748E+03  0.37847412113E+03  0.91337223775E+02 0.  0.
        -11    1    3    3    0    0 -0.43692998750E+02  0.37208539319E+00 -0.12860809652E+03  0.13582804967E+03  0.51100000000E-03 0.  1.
         11    1    3    3    0    0  0.43692998750E+02 -0.37208539319E+00 -0.23867949096E+03  0.24264607145E+03  0.51100000000E-03 0. -1.
<mgrwt>
<rscale>  0 0.91337224E+02</rscale>
<asrwt>0</asrwt>
<pdfrwt beam="2">  1        1 0.57366266E-01 0.91337224E+02</pdfrwt>
<pdfrwt beam="1">  1       -1 0.86050288E-03 0.91337224E+02</pdfrwt>
<totfact> 0.13268203E+05</totfact>
</mgrwt>
</event>
<event>
 5    1  0.2718303E+000  0.9054220E+02  0.7818608E-02  0.1301544E+00
          1   -1    0    0  501    0  0.00000000000E+00  0.00000000000E+00  0.42171529461E+02  0.42171529720E+02  0.46700000000E-02 0. -1.
         -1   -1    0    0    0  501 -0.00000000000E+00 -0.00000000000E+00 -0.48598489308E+02  0.48598489532E+02  0.46700000000E-02 0.  1.
         23    2    1    2    0    0  0.00000000000E+00  0.00000000000E+00 -0.64269598465E+01  0.90770019252E+02  0.90542203320E+02 0.  0.
        -11    1    3    3    0    0 -0.32107314205E+02  0.21134984757E+02 -0.27188196530E+02  0.47082536433E+02  0.51100000000E-03 0. -1.
         11    1    3    3    0    0  0.32107314205E+02 -0.21134984757E+02  0.20761236683E+02  0.43687482819E+02  0.51100000000E-03 0.  1.
<mgrwt>
<rscale>  0 0.90542203E+02</rscale>
<asrwt>0</asrwt>
<pdfrwt beam="1">  1        1 0.64879277E-02 0.90542203E+02</pdfrwt>
<pdfrwt beam="2">  1       -1 0.74766907E-02 0.90542203E+02</pdfrwt>
<totfact> 0.93207116E+04</totfact>
</mgrwt>
</event>
<event>
 5    1  0.2718303E+000  0.9063791E+02  0.7818608E-02  0.1301314E+00
         -1   -1    0    0    0  501 -0.00000000000E+00  0.00000000000E+00  0.26325089924E+03  0.26325089928E+03  0.46700000000E-02 0.  1.
          1   -1    0    0  501    0  0.00000000000E+00 -0.00000000000E+00 -0.78017106189E+01  0.78017120166E+01  0.46700000000E-02 0. -1.
         23    2    1    2    0    0  0.00000000000E+00  0.00000000000E+00  0.25544918862E+03  0.27105261130E+03  0.90637906663E+02 0.  0.
        -11    1    3    3    0    0  0.40051865015E+02 -0.20792858815E+02  0.11528157848E+03  0.12379958484E+03  0.51100000000E-03 0. -1.
         11    1    3    3    0    0 -0.40051865015E+02  0.20792858815E+02  0.14016761014E+03  0.14725302646E+03  0.51100000000E-03 0.  1.
<mgrwt>
<rscale>  0 0.90637907E+02</rscale>
<asrwt>0</asrwt>
<pdfrwt beam="2">  1        1 0.12002632E-02 0.90637907E+02</pdfrwt>
<pdfrwt beam="1">  1       -1 0.40500140E-01 0.90637907E+02</pdfrwt>
<totfact> 0.64608915E+04</totfact>
</mgrwt>
</event>
<event>
 5    1  0.2718303E+000  0.8432426E+02  0.7818608E-02  0.1317209E+00
         -1   -1    0    0    0  501 -0.00000000000E+00  0.00000000000E+00  0.36248122078E+02  0.36248122379E+02  0.46700000000E-02 0.  1.
          1   -1    0    0  501    0  0.00000000000E+00 -0.00000000000E+00 -0.49041029587E+02  0.49041029809E+02  0.46700000000E-02 0. -1.
         23    2    1    2    0    0  0.00000000000E+00  0.00000000000E+00 -0.12792907509E+02  0.85289152188E+02  0.84324261031E+02 0.  0.
        -11    1    3    3    0    0 -0.20667344809E+02 -0.33584729508E+02 -0.21486013469E+02  0.44907927726E+02  0.51100000000E-03 0. -1.
         11    1    3    3    0    0  0.20667344809E+02  0.33584729508E+02  0.86931059603E+01  0.40381224462E+02  0.51100000000E-03 0.  1.
<mgrwt>
<rscale>  0 0.84324261E+02</rscale>
<asrwt>0</asrwt>
<pdfrwt beam="2">  1        1 0.75447738E-02 0.84324261E+02</pdfrwt>
<pdfrwt beam="1">  1       -1 0.55766342E-02 0.84324261E+02</pdfrwt>
<totfact> 0.11615483E+05</totfact>
</mgrwt>
</event>
<event>
 5    1  0.2718303E+000  0.9142945E+02  0.7818608E-02  0.1299427E+00
          1   -1    0    0  501    0  0.00000000000E+00  0.00000000000E+00  0.12042413918E+03  0.12042413927E+03  0.46700000000E-02 0. -1.
         -1   -1    0    0    0  501 -0.00000000000E+00 -0.00000000000E+00 -0.17353963962E+02  0.17353964590E+02  0.46700000000E-02 0.  1.
         23    2    1    2    0    0  0.00000000000E+00  0.00000000000E+00  0.10307017522E+03  0.13777810386E+03  0.91429453044E+02 0.  0.
        -11    1    3    3    0    0 -0.70274763695E+01  0.25522586546E+02  0.10769840689E+03  0.11090416897E+03  0.51100000000E-03 0. -1.
         11    1    3    3    0    0  0.70274763695E+01 -0.25522586546E+02 -0.46282316663E+01  0.26873934895E+02  0.51100000000E-03 0.  1.
<mgrwt>
<rscale>  0 0.91429453E+02</rscale>
<asrwt>0</asrwt>
<pdfrwt beam="1">  1        1 0.18526791E-01 0.91429453E+02</pdfrwt>
<pdfrwt beam="2">  1       -1 0.26698406E-02 0.91429453E+02</pdfrwt>
<totfact> 0.10699813E+05</totfact>
</mgrwt>
</event>
<event>
 5    1  0.2718303E+000  0.9445880E+02  0.7818608E-02  0.1292400E+00
          1   -1    0    0  501    0  0.00000000000E+00  0.00000000000E+00  0.83301602947E+02  0.83301603078E+02  0.46700000000E-02 0. -1.
         -1   -1    0    0    0  501 -0.00000000000E+00 -0.00000000000E+00 -0.26777590006E+02  0.26777590413E+02  0.46700000000E-02 0.  1.
         23    2    1    2    0    0  0.00000000000E+00  0.00000000000E+00  0.56524012941E+02  0.11007919349E+03  0.94458799488E+02 0.  0.
        -11    1    3    3    0    0  0.17554128700E+02  0.43834096326E+02  0.29450889468E+02  0.55650070313E+02  0.51100000000E-03 0.  1.
         11    1    3    3    0    0 -0.17554128700E+02 -0.43834096326E+02  0.27073123474E+02  0.54429123179E+02  0.51100000000E-03 0. -1.
<mgrwt>
<rscale>  0 0.94458799E+02</rscale>
<asrwt>0</asrwt>
<pdfrwt beam="1">  1        1 0.12815631E-01 0.94458799E+02</pdfrwt>
<pdfrwt beam="2">  1       -1 0.41196293E-02 0.94458799E+02</pdfrwt>
<totfact> 0.91995452E+04</totfact>
</mgrwt>
</event>
<event>
 5    1  0.2718303E+000  0.9130033E+02  0.7818608E-02  0.1299733E+00
          1   -1    0    0  501    0  0.00000000000E+00  0.00000000000E+00  0.31796172082E+02  0.31796172425E+02  0.46700000000E-02 0. -1.
         -1   -1    0    0    0  501 -0.00000000000E+00 -0.00000000000E+00 -0.65540512106E+02  0.65540512272E+02  0.46700000000E-02 0.  1.
         23    2    1    2    0    0  0.00000000000E+00  0.00000000000E+00 -0.33744340023E+02  0.97336684697E+02  0.91300326967E+02 0.  0.
        -11    1    3    3    0    0 -0.14524102269E+02 -0.32472099043E+01 -0.62881485424E+02  0.64618690240E+02  0.51100000000E-03 0.  1.
         11    1    3    3    0    0  0.14524102269E+02  0.32472099043E+01  0.29137145401E+02  0.32717994457E+02  0.51100000000E-03 0. -1.
<mgrwt>
<rscale>  0 0.91300327E+02</rscale>
<asrwt>0</asrwt>
<pdfrwt beam="1">  1        1 0.48917188E-02 0.91300327E+02</pdfrwt>
<pdfrwt beam="2">  1       -1 0.10083156E-01 0.91300327E+02</pdfrwt>
<totfact> 0.87156356E+04</totfact>
</mgrwt>
</event>
<event>
 5    1  0.2718303E+000  0.9077962E+02  0.7818608E-02  0.1300975E+00
          1   -1    0    0  501    0  0.00000000000E+00  0.00000000000E+00  0.41665990761E+02  0.41665991022E+02  0.46700000000E-02 0. -1.
         -1   -1    0    0    0  501 -0.00000000000E+00 -0.00000000000E+00 -0.49446435286E+02  0.49446435506E+02  0.46700000000E-02 0.  1.
         23    2    1    2    0    0  0.00000000000E+00  0.00000000000E+00 -0.77804445250E+01  0.91112426528E+02  0.90779617486E+02 0.  0.
        -11    1    3    3    0    0 -0.33035351316E+02  0.27426469394E+02 -0.18664551570E+02  0.46817850715E+02  0.51100000000E-03 0.  1.
         11    1    3    3    0    0  0.33035351316E+02 -0.27426469394E+02  0.10884107045E+02  0.44294575813E+02  0.51100000000E-03 0. -1.
<mgrwt>
<rscale>  0 0.90779617E+02</rscale>
<asrwt>0</asrwt>
<pdfrwt beam="1">  1        1 0.64101524E-02 0.90779617E+02</pdfrwt>
<pdfrwt beam="2">  1       -1 0.76071440E-02 0.90779617E+02</pdfrwt>
<totfact> 0.92355426E+04</totfact>
</mgrwt>
</event>
<event>
 5    1  0.2718303E+000  0.9300980E+02  0.7818608E-02  0.1295722E+00
          1   -1    0    0  501    0  0.00000000000E+00  0.00000000000E+00  0.22937518607E+02  0.22937519083E+02  0.46700000000E-02 0. -1.
         -1   -1    0    0    0  501 -0.00000000000E+00 -0.00000000000E+00 -0.94286816480E+02  0.94286816596E+02  0.46700000000E-02 0.  1.
         23    2    1    2    0    0  0.00000000000E+00  0.00000000000E+00 -0.71349297872E+02  0.11722433568E+03  0.93009798238E+02 0.  0.
        -11    1    3    3    0    0 -0.38304754183E+02  0.26033943759E+02 -0.30374423692E+02  0.55386153825E+02  0.51100000000E-03 0.  1.
         11    1    3    3    0    0  0.38304754183E+02 -0.26033943759E+02 -0.40974874180E+02  0.61838181854E+02  0.51100000000E-03 0. -1.
<mgrwt>
<rscale>  0 0.93009798E+02</rscale>
<asrwt>0</asrwt>
<pdfrwt beam="1">  1        1 0.35288491E-02 0.93009798E+02</pdfrwt>
<pdfrwt beam="2">  1       -1 0.14505664E-01 0.93009798E+02</pdfrwt>
<totfact> 0.78144484E+04</totfact>
</mgrwt>
</event>
<event>
 4    1  0.2718303E+000  0.3827106E+02  0.7818608E-02  0.1521334E+00
         -1   -1    0    0    0  501 -0.00000000000E+00  0.00000000000E+00  0.35367746707E+02  0.35367747015E+02  0.46700000000E-02 0.  1.
          1   -1    0    0  501    0  0.00000000000E+00 -0.00000000000E+00 -0.10353175572E+02  0.10353176625E+02  0.46700000000E-02 0. -1.
        -11    1    1    2    0    0 -0.94638805931E+01 -0.12909778163E+02  0.25033636154E+02  0.29713807354E+02  0.51100000000E-03 0.  1.
         11    1    1    2    0    0  0.94638805931E+01  0.12909778163E+02 -0.19065019323E-01  0.16007116287E+02  0.51100000000E-03 0. -1.
<mgrwt>
<rscale>  0 0.38271061E+02</rscale>
<asrwt>0</asrwt>
<pdfrwt beam="2">  1        1 0.15927963E-02 0.38271061E+02</pdfrwt>
<pdfrwt beam="1">  1       -1 0.54411920E-02 0.38271061E+02</pdfrwt>
<totfact> 0.80842982E+05</totfact>
</mgrwt>
</event>
<event>
 5    1  0.2718303E+000  0.9437313E+02  0.7818608E-02  0.1292594E+00
          1   -1    0    0  501    0  0.00000000000E+00  0.00000000000E+00  0.27892082611E+02  0.27892083002E+02  0.46700000000E-02 0. -1.
         -1   -1    0    0    0  501 -0.00000000000E+00 -0.00000000000E+00 -0.79828102192E+02  0.79828102329E+02  0.46700000000E-02 0.  1.
         23    2    1    2    0    0  0.00000000000E+00  0.00000000000E+00 -0.51936019581E+02  0.10772018533E+03  0.94373132818E+02 0.  0.
        -11    1    3    3    0    0 -0.68426029302E+01 -0.32067301283E+02 -0.64699944551E+02  0.72534239168E+02  0.51100000000E-03 0.  1.
         11    1    3    3    0    0  0.68426029302E+01  0.32067301283E+02  0.12763924971E+02  0.35185946163E+02  0.51100000000E-03 0. -1.
<mgrwt>
<rscale>  0 0.94373133E+02</rscale>
<asrwt>0</asrwt>
<pdfrwt beam="1">  1        1 0.42910897E-02 0.94373133E+02</pdfrwt>
<pdfrwt beam="2">  1       -1 0.12281246E-01 0.94373133E+02</pdfrwt>
<totfact> 0.77523968E+04</totfact>
</mgrwt>
</event>
<event>
 5    1  0.2718303E+000  0.9084973E+02  0.7818608E-02  0.1300807E+00
          1   -1    0    0  501    0  0.00000000000E+00  0.00000000000E+00  0.25890876539E+03  0.25890876543E+03  0.46700000000E-02 0. -1.
         -1   -1    0    0    0  501 -0.00000000000E+00 -0.00000000000E+00 -0.79696732634E+01  0.79696746317E+01  0.46700000000E-02 0.  1.
         23    2    1    2    0    0  0.00000000000E+00  0.00000000000E+00  0.25093909212E+03  0.26687844006E+03  0.90849732050E+02 0.  0.
        -11    1    3    3    0    0  0.35560462523E+02 -0.82019854749E+01  0.20492551129E+03  0.20814966788E+03  0.51100000000E-03 0. -1.
         11    1    3    3    0    0 -0.35560462523E+02  0.82019854749E+01  0.46013580836E+02  0.58728772183E+02  0.51100000000E-03 0.  1.
<mgrwt>
<rscale>  0 0.90849732E+02</rscale>
<asrwt>0</asrwt>
<pdfrwt beam="1">  1        1 0.39832121E-01 0.90849732E+02</pdfrwt>
<pdfrwt beam="2">  1       -1 0.12261036E-02 0.90849732E+02</pdfrwt>
<totfact> 0.12571746E+05</totfact>
</mgrwt>
</event>
<event>
 5    1  0.2718303E+000  0.9171516E+02  0.7818608E-02  0.1298751E+00
          1   -1    0    0  501    0  0.00000000000E+00  0.00000000000E+00  0.74604454705E+02  0.74604454852E+02  0.46700000000E-02 0. -1.
         -1   -1    0    0    0  501 -0.00000000000E+00 -0.00000000000E+00 -0.28187561415E+02  0.28187561802E+02  0.46700000000E-02 0.  1.
         23    2    1    2    0    0  0.00000000000E+00  0.00000000000E+00  0.46416893290E+02  0.10279201665E+03  0.91715160715E+02 0.  0.
        -11    1    3    3    0    0  0.30475830550E+02 -0.30146403364E+01 -0.15046814029E+02  0.34121414343E+02  0.51100000000E-03 0.  1.
         11    1    3    3    0    0 -0.30475830550E+02  0.30146403364E+01  0.61463707319E+02  0.68670602311E+02  0.51100000000E-03 0. -1.
<mgrwt>
<rscale>  0 0.91715161E+02</rscale>
<asrwt>0</asrwt>
<pdfrwt beam="1">  1        1 0.11477608E-01 0.91715161E+02</pdfrwt>
<pdfrwt beam="2">  1       -1 0.43365480E-02 0.91715161E+02</pdfrwt>
<totfact> 0.98043643E+04</totfact>
</mgrwt>
</event>
<event>
 5    1  0.2718303E+000  0.9210807E+02  0.7818608E-02  0.1297826E+00
          1   -1    0    0  501    0  0.00000000000E+00  0.00000000000E+00  0.39930737249E+02  0.39930737522E+02  0.46700000000E-02 0. -1.
         -1   -1    0    0    0  501 -0.00000000000E+00 -0.00000000000E+00 -0.53116327840E+02  0.53116328046E+02  0.46700000000E-02 0.  1.
         23    2    1    2    0    0  0.00000000000E+00  0.00000000000E+00 -0.13185590591E+02  0.93047065568E+02  0.92108070285E+02 0.  0.
        -11    1    3    3    0    0  0.29109901268E+02  0.32573731446E+01 -0.42493483478E+02  0.51610977223E+02  0.51100000000E-03 0.  1.
         11    1    3    3    0    0 -0.29109901268E+02 -0.32573731446E+01  0.29307892887E+02  0.41436088345E+02  0.51100000000E-03 0. -1.
<mgrwt>
<rscale>  0 0.92108070E+02</rscale>
<asrwt>0</asrwt>
<pdfrwt beam="1">  1        1 0.61431904E-02 0.92108070E+02</pdfrwt>
<pdfrwt beam="2">  1       -1 0.81717428E-02 0.92108070E+02</pdfrwt>
<totfact> 0.88070177E+04</totfact>
</mgrwt>
</event>
<event>
 5    1  0.2718303E+000  0.9323807E+02  0.7818608E-02  0.1295194E+00
          1   -1    0    0  501    0  0.00000000000E+00  0.00000000000E+00  0.26049353113E+02  0.26049353532E+02  0.46700000000E-02 0. -1.
         -1   -1    0    0    0  501 -0.00000000000E+00 -0.00000000000E+00 -0.83431410815E+02  0.83431410946E+02  0.46700000000E-02 0.  1.
         23    2    1    2    0    0  0.00000000000E+00  0.00000000000E+00 -0.57382057702E+02  0.10948076448E+03  0.93238067572E+02 0.  0.
        -11    1    3    3    0    0 -0.34702652549E+02 -0.28116777820E+02 -0.44379196069E+02  0.62963007655E+02  0.51100000000E-03 0. -1.
         11    1    3    3    0    0  0.34702652549E+02  0.28116777820E+02 -0.13002861632E+02  0.46517756823E+02  0.51100000000E-03 0.  1.
<mgrwt>
<rscale>  0 0.93238068E+02</rscale>
<asrwt>0</asrwt>
<pdfrwt beam="1">  1        1 0.40075928E-02 0.93238068E+02</pdfrwt>
<pdfrwt beam="2">  1       -1 0.12835602E-01 0.93238068E+02</pdfrwt>
<totfact> 0.79361186E+04</totfact>
</mgrwt>
</event>
<event>
 5    1  0.2718303E+000  0.1060043E+03  0.7818608E-02  0.1268153E+00
          1   -1    0    0  501    0  0.00000000000E+00  0.00000000000E+00  0.86111311968E+02  0.86111312094E+02  0.46700000000E-02 0. -1.
         -1   -1    0    0    0  501 -0.00000000000E+00 -0.00000000000E+00 -0.32623228574E+02  0.32623228908E+02  0.46700000000E-02 0.  1.
         23    2    1    2    0    0  0.00000000000E+00  0.00000000000E+00  0.53488083394E+02  0.11873454100E+03  0.10600432143E+03 0.  0.
        -11    1    3    3    0    0  0.42027435332E+02  0.25389644719E+02  0.49097927279E+02  0.69437351929E+02  0.51100000000E-03 0. -1.
         11    1    3    3    0    0 -0.42027435332E+02 -0.25389644719E+02  0.43901561152E+01  0.49297189074E+02  0.51100000000E-03 0.  1.
<mgrwt>
<rscale>  0 0.10600432E+03</rscale>
<asrwt>0</asrwt>
<pdfrwt beam="1">  1        1 0.13247894E-01 0.10600432E+03</pdfrwt>
<pdfrwt beam="2">  1       -1 0.50189583E-02 0.10600432E+03</pdfrwt>
<totfact> 0.67165129E+04</totfact>
</mgrwt>
</event>
<event>
 5    1  0.2718303E+000  0.9214932E+02  0.7818608E-02  0.1297729E+00
         -1   -1    0    0    0  501 -0.00000000000E+00  0.00000000000E+00  0.96698619638E+01  0.96698630915E+01  0.46700000000E-02 0.  1.
          1   -1    0    0  501    0  0.00000000000E+00 -0.00000000000E+00 -0.21953511629E+03  0.21953511634E+03  0.46700000000E-02 0. -1.
         23    2    1    2    0    0  0.00000000000E+00  0.00000000000E+00 -0.20986525433E+03  0.22920497943E+03  0.92149322421E+02 0.  0.
        -11    1    3    3    0    0 -0.25631397598E+02  0.37152628794E+02 -0.81921471347E+02  0.93532955888E+02  0.51100000000E-03 0.  1.
         11    1    3    3    0    0  0.25631397598E+02 -0.37152628794E+02 -0.12794378298E+03  0.13567202354E+03  0.51100000000E-03 0. -1.
<mgrwt>
<rscale>  0 0.92149322E+02</rscale>
<asrwt>0</asrwt>
<pdfrwt beam="2">  1        1 0.33774630E-01 0.92149322E+02</pdfrwt>
<pdfrwt beam="1">  1       -1 0.14876713E-02 0.92149322E+02</pdfrwt>
<totfact> 0.11719226E+05</totfact>
</mgrwt>
</event>
<event>
 5    1  0.2718303E+000  0.9173190E+02  0.7818608E-02  0.1298711E+00
         -1   -1    0    0    0  501 -0.00000000000E+00  0.00000000000E+00  0.47847303374E+02  0.47847303602E+02  0.46700000000E-02 0.  1.
          1   -1    0    0  501    0  0.00000000000E+00 -0.00000000000E+00 -0.43966641044E+02  0.43966641292E+02  0.46700000000E-02 0. -1.
         23    2    1    2    0    0  0.00000000000E+00  0.00000000000E+00  0.38806623306E+01  0.91813944894E+02  0.91731897053E+02 0.  0.
        -11    1    3    3    0    0  0.11559027060E+02  0.12674464883E+02  0.44515797560E+02  0.47706492213E+02  0.51100000000E-03 0.  1.
         11    1    3    3    0    0 -0.11559027060E+02 -0.12674464883E+02 -0.40635135229E+02  0.44107452681E+02  0.51100000000E-03 0. -1.
<mgrwt>
<rscale>  0 0.91731897E+02</rscale>
<asrwt>0</asrwt>
<pdfrwt beam="2">  1        1 0.67640986E-02 0.91731897E+02</pdfrwt>
<pdfrwt beam="1">  1       -1 0.73611237E-02 0.91731897E+02</pdfrwt>
<totfact> 0.90411093E+04</totfact>
</mgrwt>
</event>
<event>
 5    1  0.2718303E+000  0.9166882E+02  0.7818608E-02  0.1298860E+00
         -1   -1    0    0    0  501 -0.00000000000E+00  0.00000000000E+00  0.12342188708E+02  0.12342189592E+02  0.46700000000E-02 0.  1.
          1   -1    0    0  501    0  0.00000000000E+00 -0.00000000000E+00 -0.17021235235E+03  0.17021235241E+03  0.46700000000E-02 0. -1.
         23    2    1    2    0    0  0.00000000000E+00  0.00000000000E+00 -0.15787016364E+03  0.18255454200E+03  0.91668818245E+02 0.  0.
        -11    1    3    3    0    0  0.20388025604E+02  0.31583725425E+02 -0.26715220979E+02  0.46118394725E+02  0.51100000000E-03 0.  1.
         11    1    3    3    0    0 -0.20388025604E+02 -0.31583725425E+02 -0.13115494266E+03  0.13643614728E+03  0.51100000000E-03 0. -1.
<mgrwt>
<rscale>  0 0.91668818E+02</rscale>
<asrwt>0</asrwt>
<pdfrwt beam="2">  1        1 0.26186514E-01 0.91668818E+02</pdfrwt>
<pdfrwt beam="1">  1       -1 0.18987985E-02 0.91668818E+02</pdfrwt>
<totfact> 0.11315063E+05</totfact>
</mgrwt>
</event>
<event>
 5    1  0.2718303E+000  0.8911696E+02  0.7818608E-02  0.1305004E+00
         -1   -1    0    0    0  501 -0.00000000000E+00  0.00000000000E+00  0.14663109067E+02  0.14663109811E+02  0.46700000000E-02 0.  1.
          1   -1    0    0  501    0  0.00000000000E+00 -0.00000000000E+00 -0.13540497872E+03  0.13540497880E+03  0.46700000000E-02 0. -1.
         23    2    1    2    0    0  0.00000000000E+00  0.00000000000E+00 -0.12074186965E+03  0.15006808861E+03  0.89116957601E+02 0.  0.
        -11    1    3    3    0    0  0.35566471021E+02  0.21260958704E+02 -0.32780127991E+02  0.52835016961E+02  0.51100000000E-03 0.  1.
         11    1    3    3    0    0 -0.35566471021E+02 -0.21260958704E+02 -0.87961741662E+02  0.97233071649E+02  0.51100000000E-03 0. -1.
<mgrwt>
<rscale>  0 0.89116958E+02</rscale>
<asrwt>0</asrwt>
<pdfrwt beam="2">  1        1 0.20831534E-01 0.89116958E+02</pdfrwt>
<pdfrwt beam="1">  1       -1 0.22558631E-02 0.89116958E+02</pdfrwt>
<totfact> 0.11706614E+05</totfact>
</mgrwt>
</event>
<event>
 5    1  0.2718303E+000  0.9196217E+02  0.7818608E-02  0.1298168E+00
         -1   -1    0    0    0  501 -0.00000000000E+00  0.00000000000E+00  0.10392572449E+03  0.10392572459E+03  0.46700000000E-02 0.  1.
          1   -1    0    0  501    0  0.00000000000E+00 -0.00000000000E+00 -0.20343953915E+02  0.20343954451E+02  0.46700000000E-02 0. -1.
         23    2    1    2    0    0  0.00000000000E+00  0.00000000000E+00  0.83581770574E+02  0.12426967905E+03  0.91962170254E+02 0.  0.
        -11    1    3    3    0    0  0.43705423851E+02 -0.92784956159E+01  0.56470252569E+02  0.72007943869E+02  0.51100000000E-03 0.  1.
         11    1    3    3    0    0 -0.43705423851E+02  0.92784956159E+01  0.27111518005E+02  0.52261735177E+02  0.51100000000E-03 0. -1.
<mgrwt>
<rscale>  0 0.91962170E+02</rscale>
<asrwt>0</asrwt>
<pdfrwt beam="2">  1        1 0.31298391E-02 0.91962170E+02</pdfrwt>
<pdfrwt beam="1">  1       -1 0.15988573E-01 0.91962170E+02</pdfrwt>
<totfact> 0.79016354E+04</totfact>
</mgrwt>
</event>
<event>
 5    1  0.2718303E+000  0.8790108E+02  0.7818608E-02  0.1308016E+00
          1   -1    0    0  501    0  0.00000000000E+00  0.00000000000E+00  0.50785038818E+02  0.50785039033E+02  0.46700000000E-02 0. -1.
         -1   -1    0    0    0  501 -0.00000000000E+00 -0.00000000000E+00 -0.38035807112E+02  0.38035807398E+02  0.46700000000E-02 0.  1.
         23    2    1    2    0    0  0.00000000000E+00  0.00000000000E+00  0.12749231706E+02  0.88820846431E+02  0.87901079923E+02 0.  0.
        -11    1    3    3    0    0 -0.25645429922E+02 -0.26976052380E+02  0.29991261026E+02  0.47800326527E+02  0.51100000000E-03 0. -1.
         11    1    3    3    0    0  0.25645429922E+02  0.26976052380E+02 -0.17242029320E+02  0.41020519904E+02  0.51100000000E-03 0.  1.
<mgrwt>
<rscale>  0 0.87901080E+02</rscale>
<asrwt>0</asrwt>
<pdfrwt beam="1">  1        1 0.78130828E-02 0.87901080E+02</pdfrwt>
<pdfrwt beam="2">  1       -1 0.58516627E-02 0.87901080E+02</pdfrwt>
<totfact> 0.10405630E+05</totfact>
</mgrwt>
</event>
<event>
 5    1  0.2718303E+000  0.9109537E+02  0.7818608E-02  0.1300221E+00
         -1   -1    0    0    0  501 -0.00000000000E+00  0.00000000000E+00  0.19366488629E+03  0.19366488635E+03  0.46700000000E-02 0.  1.
          1   -1    0    0  501    0  0.00000000000E+00 -0.00000000000E+00 -0.10712273950E+02  0.10712274968E+02  0.46700000000E-02 0. -1.
         23    2    1    2    0    0  0.00000000000E+00  0.00000000000E+00  0.18295261234E+03  0.20437716132E+03  0.91095365989E+02 0.  0.
        -11    1    3    3    0    0  0.16364988251E+01 -0.44592016247E+02  0.11197325784E+03  0.12053686786E+03  0.51100000000E-03 0.  1.
         11    1    3    3    0    0 -0.16364988251E+01  0.44592016247E+02  0.70979354507E+02  0.83840293463E+02  0.51100000000E-03 0. -1.
<mgrwt>
<rscale>  0 0.91095366E+02</rscale>
<asrwt>0</asrwt>
<pdfrwt beam="2">  1        1 0.16480421E-02 0.91095366E+02</pdfrwt>
<pdfrwt beam="1">  1       -1 0.29794599E-01 0.91095366E+02</pdfrwt>
<totfact> 0.70222776E+04</totfact>
</mgrwt>
</event>
<event>
 5    1  0.2718303E+000  0.8941479E+02  0.7818608E-02  0.1304275E+00
          1   -1    0    0  501    0  0.00000000000E+00  0.00000000000E+00  0.10272433625E+03  0.10272433635E+03  0.46700000000E-02 0. -1.
         -1   -1    0    0    0  501 -0.00000000000E+00 -0.00000000000E+00 -0.19457425684E+02  0.19457426244E+02  0.46700000000E-02 0.  1.
         23    2    1    2    0    0  0.00000000000E+00  0.00000000000E+00  0.83266910564E+02  0.12218176260E+03  0.89414790258E+02 0.  0.
        -11    1    3    3    0    0  0.37140423253E+02  0.24006434299E+02  0.32669720177E+02  0.54982092938E+02  0.51100000000E-03 0.  1.
         11    1    3    3    0    0 -0.37140423253E+02 -0.24006434299E+02  0.50597190387E+02  0.67199669661E+02  0.51100000000E-03 0. -1.
<mgrwt>
<rscale>  0 0.89414790E+02</rscale>
<asrwt>0</asrwt>
<pdfrwt beam="1">  1        1 0.15803744E-01 0.89414790E+02</pdfrwt>
<pdfrwt beam="2">  1       -1 0.29934502E-02 0.89414790E+02</pdfrwt>
<totfact> 0.11063742E+05</totfact>
</mgrwt>
</event>
<event>
 5    1  0.2718303E+000  0.9239891E+02  0.7818608E-02  0.1297144E+00
         -1   -1    0    0    0  501 -0.00000000000E+00  0.00000000000E+00  0.13638116568E+03  0.13638116576E+03  0.46700000000E-02 0. -1.
          1   -1    0    0  501    0  0.00000000000E+00 -0.00000000000E+00 -0.15650177425E+02  0.15650178122E+02  0.46700000000E-02 0.  1.
         23    2    1    2    0    0  0.00000000000E+00  0.00000000000E+00  0.12073098825E+03  0.15203134388E+03  0.92398906906E+02 0.  0.
        -11    1    3    3    0    0 -0.97895757758E+01  0.25702164552E+02  0.12144329834E+03  0.12451872055E+03  0.51100000000E-03 0. -1.
         11    1    3    3    0    0  0.97895757758E+01 -0.25702164552E+02 -0.71231008416E+00  0.27512623329E+02  0.51100000000E-03 0.  1.
<mgrwt>
<rscale>  0 0.92398907E+02</rscale>
<asrwt>0</asrwt>
<pdfrwt beam="2">  1        1 0.24077197E-02 0.92398907E+02</pdfrwt>
<pdfrwt beam="1">  1       -1 0.20981717E-01 0.92398907E+02</pdfrwt>
<totfact> 0.73828993E+04</totfact>
</mgrwt>
</event>
<event>
 5    1  0.2718303E+000  0.9202105E+02  0.7818608E-02  0.1298030E+00
          1   -1    0    0  501    0  0.00000000000E+00  0.00000000000E+00  0.19188569657E+02  0.19188570225E+02  0.46700000000E-02 0. -1.
         -1   -1    0    0    0  501 -0.00000000000E+00 -0.00000000000E+00 -0.11032444421E+03  0.11032444431E+03  0.46700000000E-02 0.  1.
         23    2    1    2    0    0  0.00000000000E+00  0.00000000000E+00 -0.91135874557E+02  0.12951301454E+03  0.92021048155E+02 0.  0.
        -11    1    3    3    0    0 -0.28557072480E+02  0.25503559261E+02 -0.96569891762E+01  0.39486647918E+02  0.51100000000E-03 0.  1.
         11    1    3    3    0    0  0.28557072480E+02 -0.25503559261E+02 -0.81478885381E+02  0.90026366620E+02  0.51100000000E-03 0. -1.
<mgrwt>
<rscale>  0 0.92021048E+02</rscale>
<asrwt>0</asrwt>
<pdfrwt beam="1">  1        1 0.29520877E-02 0.92021048E+02</pdfrwt>
<pdfrwt beam="2">  1       -1 0.16972991E-01 0.92021048E+02</pdfrwt>
<totfact> 0.77982085E+04</totfact>
</mgrwt>
</event>
<event>
 4    1  0.2718303E+000  0.4774905E+02  0.7818608E-02  0.1457875E+00
         -1   -1    0    0    0  501 -0.00000000000E+00  0.00000000000E+00  0.21621004144E+02  0.21621004648E+02  0.46700000000E-02 0. -1.
          1   -1    0    0  501    0  0.00000000000E+00 -0.00000000000E+00 -0.26362930483E+02  0.26362930896E+02  0.46700000000E-02 0.  1.
        -11    1    1    2    0    0  0.21595115810E+02  0.16112799311E+01 -0.12472664464E+02  0.24990250278E+02  0.51100000000E-03 0.  1.
         11    1    1    2    0    0 -0.21595115810E+02 -0.16112799311E+01  0.77307381256E+01  0.22993685266E+02  0.51100000000E-03 0. -1.
<mgrwt>
<rscale>  0 0.47749054E+02</rscale>
<asrwt>0</asrwt>
<pdfrwt beam="2">  1        1 0.40558355E-02 0.47749054E+02</pdfrwt>
<pdfrwt beam="1">  1       -1 0.33263084E-02 0.47749054E+02</pdfrwt>
<totfact> 0.49507341E+05</totfact>
</mgrwt>
</event>
<event>
 5    1  0.2718303E+000  0.8412167E+02  0.7818608E-02  0.1317746E+00
         -1   -1    0    0    0  501 -0.00000000000E+00  0.00000000000E+00  0.12647704016E+02  0.12647704878E+02  0.46700000000E-02 0.  1.
          1   -1    0    0  501    0  0.00000000000E+00 -0.00000000000E+00 -0.13987626264E+03  0.13987626272E+03  0.46700000000E-02 0. -1.
         23    2    1    2    0    0  0.00000000000E+00  0.00000000000E+00 -0.12722855862E+03  0.15252396760E+03  0.84121665233E+02 0.  0.
        -11    1    3    3    0    0  0.29077750156E+01  0.40310923449E+02 -0.84734616612E+02  0.93879608849E+02  0.51100000000E-03 0. -1.
         11    1    3    3    0    0 -0.29077750156E+01 -0.40310923449E+02 -0.42493942012E+02  0.58644358747E+02  0.51100000000E-03 0.  1.
<mgrwt>
<rscale>  0 0.84121665E+02</rscale>
<asrwt>0</asrwt>
<pdfrwt beam="2">  1        1 0.21519424E-01 0.84121665E+02</pdfrwt>
<pdfrwt beam="1">  1       -1 0.19458008E-02 0.84121665E+02</pdfrwt>
<totfact> 0.13746496E+05</totfact>
</mgrwt>
</event>
<event>
 5    1  0.2718303E+000  0.8875644E+02  0.7818608E-02  0.1305891E+00
         -1   -1    0    0    0  501 -0.00000000000E+00  0.00000000000E+00  0.25690981085E+03  0.25690981089E+03  0.46700000000E-02 0.  1.
          1   -1    0    0  501    0  0.00000000000E+00 -0.00000000000E+00 -0.76658263793E+01  0.76658278017E+01  0.46700000000E-02 0. -1.
         23    2    1    2    0    0  0.00000000000E+00  0.00000000000E+00  0.24924398447E+03  0.26457563869E+03  0.88756435234E+02 0.  0.
        -11    1    3    3    0    0  0.39164718171E+02 -0.11577345659E+02  0.72860681229E+02  0.83525977704E+02  0.51100000000E-03 0. -1.
         11    1    3    3    0    0 -0.39164718171E+02  0.11577345659E+02  0.17638330324E+03  0.18104966099E+03  0.51100000000E-03 0.  1.
<mgrwt>
<rscale>  0 0.88756435E+02</rscale>
<asrwt>0</asrwt>
<pdfrwt beam="2">  1        1 0.11793581E-02 0.88756435E+02</pdfrwt>
<pdfrwt beam="1">  1       -1 0.39524584E-01 0.88756435E+02</pdfrwt>
<totfact> 0.68826615E+04</totfact>
</mgrwt>
</event>
<event>
 5    1  0.2718303E+000  0.8971056E+02  0.7818608E-02  0.1303554E+00
          1   -1    0    0  501    0  0.00000000000E+00  0.00000000000E+00  0.85551010719E+02  0.85551010846E+02  0.46700000000E-02 0. -1.
         -1   -1    0    0    0  501 -0.00000000000E+00 -0.00000000000E+00 -0.23518086715E+02  0.23518087179E+02  0.46700000000E-02 0.  1.
         23    2    1    2    0    0  0.00000000000E+00  0.00000000000E+00  0.62032924003E+02  0.10906909802E+03  0.89710559488E+02 0.  0.
        -11    1    3    3    0    0  0.30410585573E+02 -0.27026860932E+02  0.80531362242E+01  0.41474183899E+02  0.51100000000E-03 0.  1.
         11    1    3    3    0    0 -0.30410585573E+02  0.27026860932E+02  0.53979787779E+02  0.67594914126E+02  0.51100000000E-03 0. -1.
<mgrwt>
<rscale>  0 0.89710559E+02</rscale>
<asrwt>0</asrwt>
<pdfrwt beam="1">  1        1 0.13161694E-01 0.89710559E+02</pdfrwt>
<pdfrwt beam="2">  1       -1 0.36181673E-02 0.89710559E+02</pdfrwt>
<totfact> 0.10643906E+05</totfact>
</mgrwt>
</event>
<event>
 5    1  0.2718303E+000  0.9004909E+02  0.7818608E-02  0.1302733E+00
         -1   -1    0    0    0  501 -0.00000000000E+00  0.00000000000E+00  0.13515350196E+02  0.13515351003E+02  0.46700000000E-02 0.  1.
          1   -1    0    0  501    0  0.00000000000E+00 -0.00000000000E+00 -0.14999311325E+03  0.14999311333E+03  0.46700000000E-02 0. -1.
         23    2    1    2    0    0  0.00000000000E+00  0.00000000000E+00 -0.13647776306E+03  0.16350846433E+03  0.90049087159E+02 0.  0.
        -11    1    3    3    0    0 -0.29211191066E+02  0.33466986749E+02 -0.81566764524E+02  0.92878791771E+02  0.51100000000E-03 0. -1.
         11    1    3    3    0    0  0.29211191066E+02 -0.33466986749E+02 -0.54910998532E+02  0.70629672558E+02  0.51100000000E-03 0.  1.
<mgrwt>
<rscale>  0 0.90049087E+02</rscale>
<asrwt>0</asrwt>
<pdfrwt beam="2">  1        1 0.23075862E-01 0.90049087E+02</pdfrwt>
<pdfrwt beam="1">  1       -1 0.20792848E-02 0.90049087E+02</pdfrwt>
<totfact> 0.11595532E+05</totfact>
</mgrwt>
</event>
<event>
 5    1  0.2718303E+000  0.8536426E+02  0.7818608E-02  0.1314483E+00
          1   -1    0    0  501    0  0.00000000000E+00  0.00000000000E+00  0.27373628970E+03  0.27373628974E+03  0.46700000000E-02 0. -1.
         -1   -1    0    0    0  501 -0.00000000000E+00 -0.00000000000E+00 -0.66551791736E+01  0.66551808121E+01  0.46700000000E-02 0.  1.
         23    2    1    2    0    0  0.00000000000E+00  0.00000000000E+00  0.26708111053E+03  0.28039147055E+03  0.85364261598E+02 0.  0.
        -11    1    3    3    0    0  0.19120191437E+02 -0.35057981066E+02  0.84039220554E+02  0.93044260160E+02  0.51100000000E-03 0.  1.
         11    1    3    3    0    0 -0.19120191437E+02  0.35057981066E+02  0.18304188997E+03  0.18734721039E+03  0.51100000000E-03 0. -1.
<mgrwt>
<rscale>  0 0.85364262E+02</rscale>
<asrwt>0</asrwt>
<pdfrwt beam="1">  1        1 0.42113274E-01 0.85364262E+02</pdfrwt>
<pdfrwt beam="2">  1       -1 0.10238739E-02 0.85364262E+02</pdfrwt>
<totfact> 0.14996044E+05</totfact>
</mgrwt>
</event>
<event>
 5    1  0.2718303E+000  0.1005913E+03  0.7818608E-02  0.1279057E+00
          1   -1    0    0  501    0  0.00000000000E+00  0.00000000000E+00  0.46740352573E+02  0.46740352807E+02  0.46700000000E-02 0. -1.
         -1   -1    0    0    0  501 -0.00000000000E+00 -0.00000000000E+00 -0.54121415077E+02  0.54121415279E+02  0.46700000000E-02 0.  1.
         23    2    1    2    0    0  0.00000000000E+00  0.00000000000E+00 -0.73810625037E+01  0.10086176809E+03  0.10059133252E+03 0.  0.
        -11    1    3    3    0    0  0.28891745072E+01 -0.23195804242E+02  0.40963018939E+02  0.47163137986E+02  0.51100000000E-03 0. -1.
         11    1    3    3    0    0 -0.28891745072E+01  0.23195804242E+02 -0.48344081443E+02  0.53698630100E+02  0.51100000000E-03 0.  1.
<mgrwt>
<rscale>  0 0.10059133E+03</rscale>
<asrwt>0</asrwt>
<pdfrwt beam="1">  1        1 0.71908235E-02 0.10059133E+03</pdfrwt>
<pdfrwt beam="2">  1       -1 0.83263716E-02 0.10059133E+03</pdfrwt>
<totfact> 0.70296013E+04</totfact>
</mgrwt>
</event>
<event>
 5    1  0.2718303E+000  0.9052463E+02  0.7818608E-02  0.1301586E+00
          1   -1    0    0  501    0  0.00000000000E+00  0.00000000000E+00  0.79093160490E+01  0.79093174276E+01  0.46700000000E-02 0. -1.
         -1   -1    0    0    0  501 -0.00000000000E+00 -0.00000000000E+00 -0.25902073473E+03  0.25902073477E+03  0.46700000000E-02 0.  1.
         23    2    1    2    0    0  0.00000000000E+00  0.00000000000E+00 -0.25111141868E+03  0.26693005220E+03  0.90524627451E+02 0.  0.
        -11    1    3    3    0    0 -0.24291374467E+02 -0.36502076144E+02 -0.92429760250E+02  0.10230216526E+03  0.51100000000E-03 0.  1.
         11    1    3    3    0    0  0.24291374467E+02  0.36502076144E+02 -0.15868165843E+03  0.16462788694E+03  0.51100000000E-03 0. -1.
<mgrwt>
<rscale>  0 0.90524627E+02</rscale>
<asrwt>0</asrwt>
<pdfrwt beam="1">  1        1 0.12168182E-02 0.90524627E+02</pdfrwt>
<pdfrwt beam="2">  1       -1 0.39849337E-01 0.90524627E+02</pdfrwt>
<totfact> 0.65190427E+04</totfact>
</mgrwt>
</event>
<event>
 5    1  0.2718303E+000  0.9075445E+02  0.7818608E-02  0.1301035E+00
         -1   -1    0    0    0  501 -0.00000000000E+00  0.00000000000E+00  0.28524729049E+02  0.28524729432E+02  0.46700000000E-02 0.  1.
          1   -1    0    0  501    0  0.00000000000E+00 -0.00000000000E+00 -0.72186231396E+02  0.72186231547E+02  0.46700000000E-02 0. -1.
         23    2    1    2    0    0  0.00000000000E+00  0.00000000000E+00 -0.43661502347E+02  0.10071096098E+03  0.90754453743E+02 0.  0.
        -11    1    3    3    0    0 -0.15445850322E+02 -0.22422459856E+02  0.18452599672E+02  0.32891327627E+02  0.51100000000E-03 0.  1.
         11    1    3    3    0    0  0.15445850322E+02  0.22422459856E+02 -0.62114102018E+02  0.67819633352E+02  0.51100000000E-03 0. -1.
<mgrwt>
<rscale>  0 0.90754454E+02</rscale>
<asrwt>0</asrwt>
<pdfrwt beam="2">  1        1 0.11105574E-01 0.90754454E+02</pdfrwt>
<pdfrwt beam="1">  1       -1 0.43884199E-02 0.90754454E+02</pdfrwt>
<totfact> 0.10041305E+05</totfact>
</mgrwt>
</event>
<event>
 5    1  0.2718303E+000  0.9133010E+02  0.7818608E-02  0.1299662E+00
          1   -1    0    0  501    0  0.00000000000E+00  0.00000000000E+00  0.30786520049E+02  0.30786520403E+02  0.46700000000E-02 0. -1.
         -1   -1    0    0    0  501 -0.00000000000E+00 -0.00000000000E+00 -0.67734091181E+02  0.67734091342E+02  0.46700000000E-02 0.  1.
         23    2    1    2    0    0  0.00000000000E+00  0.00000000000E+00 -0.36947571132E+02  0.98520611746E+02  0.91330104162E+02 0.  0.
        -11    1    3    3    0    0  0.25505543753E+01 -0.16239654124E+02 -0.64431589971E+02  0.66495574892E+02  0.51100000000E-03 0.  1.
         11    1    3    3    0    0 -0.25505543753E+01  0.16239654124E+02  0.27484018839E+02  0.32025036854E+02  0.51100000000E-03 0. -1.
<mgrwt>
<rscale>  0 0.91330104E+02</rscale>
<asrwt>0</asrwt>
<pdfrwt beam="1">  1        1 0.47363878E-02 0.91330104E+02</pdfrwt>
<pdfrwt beam="2">  1       -1 0.10420629E-01 0.91330104E+02</pdfrwt>
<totfact> 0.86627283E+04</totfact>
</mgrwt>
</event>
<event>
 5    1  0.2718303E+000  0.9091461E+02  0.7818608E-02  0.1300652E+00
          1   -1    0    0  501    0  0.00000000000E+00  0.00000000000E+00  0.33456695218E+02  0.33456695544E+02  0.46700000000E-02 0. -1.
         -1   -1    0    0    0  501 -0.00000000000E+00 -0.00000000000E+00 -0.61762416989E+02  0.61762417166E+02  0.46700000000E-02 0.  1.
         23    2    1    2    0    0  0.00000000000E+00  0.00000000000E+00 -0.28305721771E+02  0.95219112710E+02  0.90914605759E+02 0.  0.
        -11    1    3    3    0    0  0.40189879507E+02 -0.19943934440E+02 -0.21804905860E+02  0.49884274632E+02  0.51100000000E-03 0.  1.
         11    1    3    3    0    0 -0.40189879507E+02  0.19943934440E+02 -0.65008159110E+01  0.45334838078E+02  0.51100000000E-03 0. -1.
<mgrwt>
<rscale>  0 0.90914606E+02</rscale>
<asrwt>0</asrwt>
<pdfrwt beam="1">  1        1 0.51471839E-02 0.90914606E+02</pdfrwt>
<pdfrwt beam="2">  1       -1 0.95019104E-02 0.90914606E+02</pdfrwt>
<totfact> 0.88928187E+04</totfact>
</mgrwt>
</event>
<event>
 5    1  0.2718303E+000  0.8982904E+02  0.7818608E-02  0.1303266E+00
         -1   -1    0    0    0  501 -0.00000000000E+00  0.00000000000E+00  0.30106542482E+03  0.30106542485E+03  0.46700000000E-02 0.  1.
          1   -1    0    0  501    0  0.00000000000E+00 -0.00000000000E+00 -0.67005823843E+01  0.67005840117E+01  0.46700000000E-02 0. -1.
         23    2    1    2    0    0  0.00000000000E+00  0.00000000000E+00  0.29436484243E+03  0.30776600886E+03  0.89829036242E+02 0.  0.
        -11    1    3    3    0    0  0.32339472043E+02 -0.19891931396E+02  0.64970738156E+02  0.75251094367E+02  0.51100000000E-03 0. -1.
         11    1    3    3    0    0 -0.32339472043E+02  0.19891931396E+02  0.22939410428E+03  0.23251491450E+03  0.51100000000E-03 0.  1.
<mgrwt>
<rscale>  0 0.89829036E+02</rscale>
<asrwt>0</asrwt>
<pdfrwt beam="2">  1        1 0.10308590E-02 0.89829036E+02</pdfrwt>
<pdfrwt beam="1">  1       -1 0.46317757E-01 0.89829036E+02</pdfrwt>
<totfact> 0.62902138E+04</totfact>
</mgrwt>
</event>
<event>
 5    1  0.2718303E+000  0.9092636E+02  0.7818608E-02  0.1300624E+00
          1   -1    0    0  501    0  0.00000000000E+00  0.00000000000E+00  0.45671025593E+02  0.45671025832E+02  0.46700000000E-02 0. -1.
         -1   -1    0    0    0  501 -0.00000000000E+00 -0.00000000000E+00 -0.45256275464E+02  0.45256275705E+02  0.46700000000E-02 0.  1.
         23    2    1    2    0    0  0.00000000000E+00  0.00000000000E+00  0.41475012919E+00  0.90927301536E+02  0.90926355624E+02 0.  0.
        -11    1    3    3    0    0  0.27406032039E+02  0.32475254455E+02 -0.15953479689E+02  0.45389935652E+02  0.51100000000E-03 0. -1.
         11    1    3    3    0    0 -0.27406032039E+02 -0.32475254455E+02  0.16368229818E+02  0.45537365884E+02  0.51100000000E-03 0.  1.
<mgrwt>
<rscale>  0 0.90926356E+02</rscale>
<asrwt>0</asrwt>
<pdfrwt beam="1">  1        1 0.70263117E-02 0.90926356E+02</pdfrwt>
<pdfrwt beam="2">  1       -1 0.69625040E-02 0.90926356E+02</pdfrwt>
<totfact> 0.93214378E+04</totfact>
</mgrwt>
</event>
<event>
 5    1  0.2718303E+000  0.8988143E+02  0.7818608E-02  0.1303139E+00
          1   -1    0    0  501    0  0.00000000000E+00  0.00000000000E+00  0.45986161271E+02  0.45986161508E+02  0.46700000000E-02 0. -1.
         -1   -1    0    0    0  501 -0.00000000000E+00 -0.00000000000E+00 -0.43919038434E+02  0.43919038682E+02  0.46700000000E-02 0.  1.
         23    2    1    2    0    0  0.00000000000E+00  0.00000000000E+00  0.20671228373E+01  0.89905200190E+02  0.89881433146E+02 0.  0.
        -11    1    3    3    0    0 -0.41075607426E+02  0.25849496947E+01 -0.17020602320E+02  0.44537494249E+02  0.51100000000E-03 0.  1.
         11    1    3    3    0    0  0.41075607426E+02 -0.25849496947E+01  0.19087725158E+02  0.45367705941E+02  0.51100000000E-03 0. -1.
<mgrwt>
<rscale>  0 0.89881433E+02</rscale>
<asrwt>0</asrwt>
<pdfrwt beam="1">  1        1 0.70747941E-02 0.89881433E+02</pdfrwt>
<pdfrwt beam="2">  1       -1 0.67567752E-02 0.89881433E+02</pdfrwt>
<totfact> 0.96378779E+04</totfact>
</mgrwt>
</event>
<event>
 5    1  0.2718303E+000  0.9195093E+02  0.7818608E-02  0.1298195E+00
         -1   -1    0    0    0  501 -0.00000000000E+00  0.00000000000E+00  0.92001779380E+01  0.92001791232E+01  0.46700000000E-02 0.  1.
          1   -1    0    0  501    0  0.00000000000E+00 -0.00000000000E+00 -0.22975027628E+03  0.22975027633E+03  0.46700000000E-02 0. -1.
         23    2    1    2    0    0  0.00000000000E+00  0.00000000000E+00 -0.22055009834E+03  0.23895045545E+03  0.91950934098E+02 0.  0.
        -11    1    3    3    0    0  0.34979837115E+02 -0.99707549798E+01 -0.18334994246E+03  0.18692299581E+03  0.51100000000E-03 0. -1.
         11    1    3    3    0    0 -0.34979837115E+02  0.99707549798E+01 -0.37200155881E+02  0.52027459647E+02  0.51100000000E-03 0.  1.
<mgrwt>
<rscale>  0 0.91950934E+02</rscale>
<asrwt>0</asrwt>
<pdfrwt beam="2">  1        1 0.35346192E-01 0.91950934E+02</pdfrwt>
<pdfrwt beam="1">  1       -1 0.14154123E-02 0.91950934E+02</pdfrwt>
<totfact> 0.11892531E+05</totfact>
</mgrwt>
</event>
<event>
 5    1  0.2718303E+000  0.9106453E+02  0.7818608E-02  0.1300294E+00
         -1   -1    0    0    0  501 -0.00000000000E+00  0.00000000000E+00  0.12758820100E+03  0.12758820109E+03  0.46700000000E-02 0.  1.
          1   -1    0    0  501    0  0.00000000000E+00 -0.00000000000E+00 -0.16249050214E+02  0.16249050885E+02  0.46700000000E-02 0. -1.
         23    2    1    2    0    0  0.00000000000E+00  0.00000000000E+00  0.11133915079E+03  0.14383725197E+03  0.91064529631E+02 0.  0.
        -11    1    3    3    0    0  0.31541385505E+02  0.17712733494E+02  0.99344849913E+02  0.10572605702E+03  0.51100000000E-03 0.  1.
         11    1    3    3    0    0 -0.31541385505E+02 -0.17712733494E+02  0.11994300877E+02  0.38111194959E+02  0.51100000000E-03 0. -1.
<mgrwt>
<rscale>  0 0.91064530E+02</rscale>
<asrwt>0</asrwt>
<pdfrwt beam="2">  1        1 0.24998539E-02 0.91064530E+02</pdfrwt>
<pdfrwt beam="1">  1       -1 0.19628955E-01 0.91064530E+02</pdfrwt>
<totfact> 0.77781833E+04</totfact>
</mgrwt>
</event>
<event>
 5    1  0.2718303E+000  0.8955589E+02  0.7818608E-02  0.1303931E+00
          1   -1    0    0  501    0  0.00000000000E+00  0.00000000000E+00  0.17663769553E+03  0.17663769560E+03  0.46700000000E-02 0. -1.
         -1   -1    0    0    0  501 -0.00000000000E+00 -0.00000000000E+00 -0.11351280741E+02  0.11351281702E+02  0.46700000000E-02 0.  1.
         23    2    1    2    0    0  0.00000000000E+00  0.00000000000E+00  0.16528641479E+03  0.18798897730E+03  0.89555885737E+02 0.  0.
        -11    1    3    3    0    0  0.41254295703E+02 -0.73773660504E+01  0.49538091632E+02  0.64887325161E+02  0.51100000000E-03 0.  1.
         11    1    3    3    0    0 -0.41254295703E+02  0.73773660504E+01  0.11574832316E+03  0.12310165214E+03  0.51100000000E-03 0. -1.
<mgrwt>
<rscale>  0 0.89555886E+02</rscale>
<asrwt>0</asrwt>
<pdfrwt beam="1">  1        1 0.27175031E-01 0.89555886E+02</pdfrwt>
<pdfrwt beam="2">  1       -1 0.17463509E-02 0.89555886E+02</pdfrwt>
<totfact> 0.12131065E+05</totfact>
</mgrwt>
</event>
<event>
 5    1  0.2718303E+000  0.8688317E+02  0.7818608E-02  0.1310580E+00
         -1   -1    0    0    0  501 -0.00000000000E+00  0.00000000000E+00  0.97078338695E+01  0.97078349927E+01  0.46700000000E-02 0.  1.
          1   -1    0    0  501    0  0.00000000000E+00 -0.00000000000E+00 -0.19439671616E+03  0.19439671621E+03  0.46700000000E-02 0. -1.
         23    2    1    2    0    0  0.00000000000E+00  0.00000000000E+00 -0.18468888229E+03  0.20410455121E+03  0.86883166277E+02 0.  0.
        -11    1    3    3    0    0 -0.29497311827E+02 -0.25057394107E+02 -0.45998978046E+02  0.60115475429E+02  0.51100000000E-03 0.  1.
         11    1    3    3    0    0  0.29497311827E+02  0.25057394107E+02 -0.13868990424E+03  0.14398907578E+03  0.51100000000E-03 0. -1.
<mgrwt>
<rscale>  0 0.86883166E+02</rscale>
<asrwt>0</asrwt>
<pdfrwt beam="2">  1        1 0.29907184E-01 0.86883166E+02</pdfrwt>
<pdfrwt beam="1">  1       -1 0.14935131E-02 0.86883166E+02</pdfrwt>
<totfact> 0.13397053E+05</totfact>
</mgrwt>
</event>
<event>
 5    1  0.2718303E+000  0.9035972E+02  0.7818608E-02  0.1301983E+00
         -1   -1    0    0    0  501 -0.00000000000E+00  0.00000000000E+00  0.17742224201E+03  0.17742224207E+03  0.46700000000E-02 0.  1.
          1   -1    0    0  501    0  0.00000000000E+00 -0.00000000000E+00 -0.11504870140E+02  0.11504871088E+02  0.46700000000E-02 0. -1.
         23    2    1    2    0    0  0.00000000000E+00  0.00000000000E+00  0.16591737187E+03  0.18892711316E+03  0.90359724427E+02 0.  0.
        -11    1    3    3    0    0 -0.11463254999E+02  0.26626980055E+02  0.10505426919E+02  0.30834498165E+02  0.51100000000E-03 0. -1.
         11    1    3    3    0    0  0.11463254999E+02 -0.26626980055E+02  0.15541194495E+03  0.15809261499E+03  0.51100000000E-03 0.  1.
<mgrwt>
<rscale>  0 0.90359724E+02</rscale>
<asrwt>0</asrwt>
<pdfrwt beam="2">  1        1 0.17699802E-02 0.90359724E+02</pdfrwt>
<pdfrwt beam="1">  1       -1 0.27295728E-01 0.90359724E+02</pdfrwt>
<totfact> 0.73440592E+04</totfact>
</mgrwt>
</event>
<event>
 5    1  0.2718303E+000  0.9249419E+02  0.7818608E-02  0.1296922E+00
          1   -1    0    0  501    0  0.00000000000E+00  0.00000000000E+00  0.18736767405E+02  0.18736767987E+02  0.46700000000E-02 0. -1.
         -1   -1    0    0    0  501 -0.00000000000E+00 -0.00000000000E+00 -0.11414955375E+03  0.11414955384E+03  0.46700000000E-02 0.  1.
         23    2    1    2    0    0  0.00000000000E+00  0.00000000000E+00 -0.95412786341E+02  0.13288632183E+03  0.92494187556E+02 0.  0.
        -11    1    3    3    0    0 -0.61220807696E+00 -0.46191896119E+02 -0.50830220175E+02  0.68686078277E+02  0.51100000000E-03 0. -1.
         11    1    3    3    0    0  0.61220807696E+00  0.46191896119E+02 -0.44582566166E+02  0.64200243551E+02  0.51100000000E-03 0.  1.
<mgrwt>
<rscale>  0 0.92494188E+02</rscale>
<asrwt>0</asrwt>
<pdfrwt beam="1">  1        1 0.28825797E-02 0.92494188E+02</pdfrwt>
<pdfrwt beam="2">  1       -1 0.17561470E-01 0.92494188E+02</pdfrwt>
<totfact> 0.76437973E+04</totfact>
</mgrwt>
</event>
<event>
 5    1  0.2718303E+000  0.9469310E+02  0.7818608E-02  0.1291869E+00
         -1   -1    0    0    0  501 -0.00000000000E+00  0.00000000000E+00  0.27381093283E+03  0.27381093287E+03  0.46700000000E-02 0.  1.
          1   -1    0    0  501    0  0.00000000000E+00 -0.00000000000E+00 -0.81870206551E+01  0.81870219870E+01  0.46700000000E-02 0. -1.
         23    2    1    2    0    0  0.00000000000E+00  0.00000000000E+00  0.26562391217E+03  0.28199795486E+03  0.94693103362E+02 0.  0.
        -11    1    3    3    0    0 -0.11527770197E+02 -0.37687591906E+02  0.21095033662E+03  0.21460029961E+03  0.51100000000E-03 0.  1.
         11    1    3    3    0    0  0.11527770197E+02  0.37687591906E+02  0.54673575551E+02  0.67397655250E+02  0.51100000000E-03 0. -1.
<mgrwt>
<rscale>  0 0.94693103E+02</rscale>
<asrwt>0</asrwt>
<pdfrwt beam="2">  1        1 0.12595418E-02 0.94693103E+02</pdfrwt>
<pdfrwt beam="1">  1       -1 0.42124756E-01 0.94693103E+02</pdfrwt>
<totfact> 0.56806477E+04</totfact>
</mgrwt>
</event>
<event>
 5    1  0.2718303E+000  0.8983942E+02  0.7818608E-02  0.1303241E+00
          1   -1    0    0  501    0  0.00000000000E+00  0.00000000000E+00  0.90860136584E+02  0.90860136704E+02  0.46700000000E-02 0. -1.
         -1   -1    0    0    0  501 -0.00000000000E+00 -0.00000000000E+00 -0.22207542181E+02  0.22207542672E+02  0.46700000000E-02 0.  1.
         23    2    1    2    0    0  0.00000000000E+00  0.00000000000E+00  0.68652594403E+02  0.11306767938E+03  0.89839420085E+02 0.  0.
        -11    1    3    3    0    0 -0.36746946373E+02 -0.94796684092E+01  0.40796720781E+01  0.38168650819E+02  0.51100000000E-03 0.  1.
         11    1    3    3    0    0  0.36746946373E+02  0.94796684092E+01  0.64572922325E+02  0.74899028556E+02  0.51100000000E-03 0. -1.
<mgrwt>
<rscale>  0 0.89839420E+02</rscale>
<asrwt>0</asrwt>
<pdfrwt beam="1">  1        1 0.13978483E-01 0.89839420E+02</pdfrwt>
<pdfrwt beam="2">  1       -1 0.34165450E-02 0.89839420E+02</pdfrwt>
<totfact> 0.10705017E+05</totfact>
</mgrwt>
</event>
<event>
 5    1  0.2718303E+000  0.8946951E+02  0.7818608E-02  0.1304141E+00
         -1   -1    0    0    0  501 -0.00000000000E+00  0.00000000000E+00  0.16575619455E+02  0.16575620113E+02  0.46700000000E-02 0. -1.
          1   -1    0    0  501    0  0.00000000000E+00 -0.00000000000E+00 -0.12073144090E+03  0.12073144099E+03  0.46700000000E-02 0.  1.
         23    2    1    2    0    0  0.00000000000E+00  0.00000000000E+00 -0.10415582144E+03  0.13730706110E+03  0.89469513734E+02 0.  0.
        -11    1    3    3    0    0 -0.27587401374E+02 -0.23311172171E+02 -0.92586570171E+02  0.99381831533E+02  0.51100000000E-03 0.  1.
         11    1    3    3    0    0  0.27587401374E+02  0.23311172171E+02 -0.11569251272E+02  0.37925229569E+02  0.51100000000E-03 0. -1.
<mgrwt>
<rscale>  0 0.89469514E+02</rscale>
<asrwt>0</asrwt>
<pdfrwt beam="2">  1        1 0.18574067E-01 0.89469514E+02</pdfrwt>
<pdfrwt beam="1">  1       -1 0.25500954E-02 0.89469514E+02</pdfrwt>
<totfact> 0.11351413E+05</totfact>
</mgrwt>
</event>
<event>
 5    1  0.2718303E+000  0.8926627E+02  0.7818608E-02  0.1304638E+00
         -1   -1    0    0    0  501 -0.00000000000E+00  0.00000000000E+00  0.13880434948E+02  0.13880435734E+02  0.46700000000E-02 0. -1.
          1   -1    0    0  501    0  0.00000000000E+00 -0.00000000000E+00 -0.14351974990E+03  0.14351974998E+03  0.46700000000E-02 0.  1.
         23    2    1    2    0    0  0.00000000000E+00  0.00000000000E+00 -0.12963931495E+03  0.15740018571E+03  0.89266267314E+02 0.  0.
        -11    1    3    3    0    0 -0.39358081104E+02 -0.14574638449E+02 -0.91597974797E+02  0.10075548432E+03  0.51100000000E-03 0.  1.
         11    1    3    3    0    0  0.39358081104E+02  0.14574638449E+02 -0.38041340156E+02  0.56644701387E+02  0.51100000000E-03 0. -1.
<mgrwt>
<rscale>  0 0.89266267E+02</rscale>
<asrwt>0</asrwt>
<pdfrwt beam="2">  1        1 0.22079961E-01 0.89266267E+02</pdfrwt>
<pdfrwt beam="1">  1       -1 0.21354517E-02 0.89266267E+02</pdfrwt>
<totfact> 0.11776350E+05</totfact>
</mgrwt>
</event>
<event>
 5    1  0.2718303E+000  0.9262751E+02  0.7818608E-02  0.1296611E+00
          1   -1    0    0  501    0  0.00000000000E+00  0.00000000000E+00  0.39332027567E+03  0.39332027570E+03  0.46700000000E-02 0. -1.
         -1   -1    0    0    0  501 -0.00000000000E+00 -0.00000000000E+00 -0.54534785145E+01  0.54534805141E+01  0.46700000000E-02 0.  1.
         23    2    1    2    0    0  0.00000000000E+00  0.00000000000E+00  0.38786679716E+03  0.39877375621E+03  0.92627513772E+02 0.  0.
        -11    1    3    3    0    0 -0.63532457271E+01 -0.44688413644E+02  0.14928727507E+03  0.15596188170E+03  0.51100000000E-03 0.  1.
         11    1    3    3    0    0  0.63532457271E+01  0.44688413644E+02  0.23857952209E+03  0.24281187451E+03  0.51100000000E-03 0. -1.
<mgrwt>
<rscale>  0 0.92627514E+02</rscale>
<asrwt>0</asrwt>
<pdfrwt beam="1">  1        1 0.60510812E-01 0.92627514E+02</pdfrwt>
<pdfrwt beam="2">  1       -1 0.83899685E-03 0.92627514E+02</pdfrwt>
<totfact> 0.12898763E+05</totfact>
</mgrwt>
</event>
<event>
 5    1  0.2718303E+000  0.9127110E+02  0.7818608E-02  0.1299802E+00
         -1   -1    0    0    0  501 -0.00000000000E+00  0.00000000000E+00  0.20947661215E+02  0.20947661736E+02  0.46700000000E-02 0.  1.
          1   -1    0    0  501    0  0.00000000000E+00 -0.00000000000E+00 -0.99419375663E+02  0.99419375772E+02  0.46700000000E-02 0. -1.
         23    2    1    2    0    0  0.00000000000E+00  0.00000000000E+00 -0.78471714447E+02  0.12036703751E+03  0.91271100301E+02 0.  0.
        -11    1    3    3    0    0 -0.43897666336E+01 -0.30155952021E+02  0.55631249671E+01  0.30977408753E+02  0.51100000000E-03 0.  1.
         11    1    3    3    0    0  0.43897666336E+01  0.30155952021E+02 -0.84034839414E+02  0.89389628755E+02  0.51100000000E-03 0. -1.
<mgrwt>
<rscale>  0 0.91271100E+02</rscale>
<asrwt>0</asrwt>
<pdfrwt beam="2">  1        1 0.15295288E-01 0.91271100E+02</pdfrwt>
<pdfrwt beam="1">  1       -1 0.32227172E-02 0.91271100E+02</pdfrwt>
<totfact> 0.10405685E+05</totfact>
</mgrwt>
</event>
<event>
 5    1  0.2718303E+000  0.9803749E+02  0.7818608E-02  0.1284478E+00
          1   -1    0    0  501    0  0.00000000000E+00  0.00000000000E+00  0.13713700663E+03  0.13713700671E+03  0.46700000000E-02 0. -1.
         -1   -1    0    0    0  501 -0.00000000000E+00 -0.00000000000E+00 -0.17521437767E+02  0.17521438389E+02  0.46700000000E-02 0.  1.
         23    2    1    2    0    0  0.00000000000E+00  0.00000000000E+00  0.11961556886E+03  0.15465844510E+03  0.98037494490E+02 0.  0.
        -11    1    3    3    0    0  0.44385301482E+01  0.34795824546E+02  0.57924525454E+01  0.35552812301E+02  0.51100000000E-03 0.  1.
         11    1    3    3    0    0 -0.44385301482E+01 -0.34795824546E+02  0.11382311632E+03  0.11910563280E+03  0.51100000000E-03 0. -1.
<mgrwt>
<rscale>  0 0.98037494E+02</rscale>
<asrwt>0</asrwt>
<pdfrwt beam="1">  1        1 0.21098001E-01 0.98037494E+02</pdfrwt>
<pdfrwt beam="2">  1       -1 0.26956059E-02 0.98037494E+02</pdfrwt>
<totfact> 0.90581550E+04</totfact>
</mgrwt>
</event>
<event>
 5    1  0.2718303E+000  0.9089999E+02  0.7818608E-02  0.1300687E+00
         -1   -1    0    0    0  501 -0.00000000000E+00  0.00000000000E+00  0.53862191696E+02  0.53862191898E+02  0.46700000000E-02 0.  1.
          1   -1    0    0  501    0  0.00000000000E+00 -0.00000000000E+00 -0.38351617793E+02  0.38351618077E+02  0.46700000000E-02 0. -1.
         23    2    1    2    0    0  0.00000000000E+00  0.00000000000E+00  0.15510573903E+02  0.92213809975E+02  0.90899993660E+02 0.  0.
        -11    1    3    3    0    0  0.42583205332E+02 -0.15456749554E+02  0.40332341825E+01  0.45480847192E+02  0.51100000000E-03 0.  1.
         11    1    3    3    0    0 -0.42583205332E+02  0.15456749554E+02  0.11477339720E+02  0.46732962783E+02  0.51100000000E-03 0. -1.
<mgrwt>
<rscale>  0 0.90899994E+02</rscale>
<asrwt>0</asrwt>
<pdfrwt beam="2">  1        1 0.59002489E-02 0.90899994E+02</pdfrwt>
<pdfrwt beam="1">  1       -1 0.82864911E-02 0.90899994E+02</pdfrwt>
<totfact> 0.90862721E+04</totfact>
</mgrwt>
</event>
<event>
 4    1  0.2718303E+000  0.3571614E+02  0.7818608E-02  0.1542331E+00
          1   -1    0    0  501    0  0.00000000000E+00  0.00000000000E+00  0.60417630429E+02  0.60417630610E+02  0.46700000000E-02 0.  1.
         -1   -1    0    0    0  501 -0.00000000000E+00 -0.00000000000E+00 -0.52784360415E+01  0.52784381074E+01  0.46700000000E-02 0. -1.
        -11    1    1    2    0    0 -0.93410753221E+01 -0.14896365506E+02  0.21825124583E+02  0.28026656183E+02  0.51100000000E-03 0. -1.
         11    1    1    2    0    0  0.93410753221E+01  0.14896365506E+02  0.33314069805E+02  0.37669412534E+02  0.51100000000E-03 0.  1.
<mgrwt>
<rscale>  0 0.35716140E+02</rscale>
<asrwt>0</asrwt>
<pdfrwt beam="1">  1        1 0.92950204E-02 0.35716140E+02</pdfrwt>
<pdfrwt beam="2">  1       -1 0.81206724E-03 0.35716140E+02</pdfrwt>
<totfact> 0.10976414E+06</totfact>
</mgrwt>
</event>
<event>
 5    1  0.2718303E+000  0.9058267E+02  0.7818608E-02  0.1301447E+00
          1   -1    0    0  501    0  0.00000000000E+00  0.00000000000E+00  0.88672509517E+02  0.88672509640E+02  0.46700000000E-02 0. -1.
         -1   -1    0    0    0  501 -0.00000000000E+00 -0.00000000000E+00 -0.23133495874E+02  0.23133496345E+02  0.46700000000E-02 0.  1.
         23    2    1    2    0    0  0.00000000000E+00  0.00000000000E+00  0.65539013643E+02  0.11180600599E+03  0.90582673095E+02 0.  0.
        -11    1    3    3    0    0 -0.29111754481E+02 -0.15281802187E+01  0.75553121627E+02  0.80982120073E+02  0.51100000000E-03 0. -1.
         11    1    3    3    0    0  0.29111754481E+02  0.15281802187E+01 -0.10014107983E+02  0.30823885912E+02  0.51100000000E-03 0.  1.
<mgrwt>
<rscale>  0 0.90582673E+02</rscale>
<asrwt>0</asrwt>
<pdfrwt beam="1">  1        1 0.13641925E-01 0.90582673E+02</pdfrwt>
<pdfrwt beam="2">  1       -1 0.35589994E-02 0.90582673E+02</pdfrwt>
<totfact> 0.10426027E+05</totfact>
</mgrwt>
</event>
<event>
 5    1  0.2718303E+000  0.9074881E+02  0.7818608E-02  0.1301048E+00
          1   -1    0    0  501    0  0.00000000000E+00  0.00000000000E+00  0.20879627482E+03  0.20879627487E+03  0.46700000000E-02 0. -1.
         -1   -1    0    0    0  501 -0.00000000000E+00 -0.00000000000E+00 -0.98605038397E+01  0.98605049456E+01  0.46700000000E-02 0.  1.
         23    2    1    2    0    0  0.00000000000E+00  0.00000000000E+00  0.19893577098E+03  0.21865677982E+03  0.90748809274E+02 0.  0.
        -11    1    3    3    0    0 -0.14108217665E+02 -0.40444951611E+02  0.63406145277E+02  0.76519116407E+02  0.51100000000E-03 0.  1.
         11    1    3    3    0    0  0.14108217665E+02  0.40444951611E+02  0.13552962570E+03  0.14213766341E+03  0.51100000000E-03 0. -1.
<mgrwt>
<rscale>  0 0.90748809E+02</rscale>
<asrwt>0</asrwt>
<pdfrwt beam="1">  1        1 0.32122500E-01 0.90748809E+02</pdfrwt>
<pdfrwt beam="2">  1       -1 0.15170009E-02 0.90748809E+02</pdfrwt>
<totfact> 0.12091483E+05</totfact>
</mgrwt>
</event>
<event>
 5    1  0.2718303E+000  0.9164798E+02  0.7818608E-02  0.1298909E+00
         -1   -1    0    0    0  501 -0.00000000000E+00  0.00000000000E+00  0.14089274658E+02  0.14089275432E+02  0.46700000000E-02 0.  1.
          1   -1    0    0  501    0  0.00000000000E+00 -0.00000000000E+00 -0.14903805869E+03  0.14903805876E+03  0.46700000000E-02 0. -1.
         23    2    1    2    0    0  0.00000000000E+00  0.00000000000E+00 -0.13494878403E+03  0.16312733419E+03  0.91647983336E+02 0.  0.
        -11    1    3    3    0    0  0.15283392542E+02  0.43105815013E+02 -0.62394610727E+02  0.77361365187E+02  0.51100000000E-03 0.  1.
         11    1    3    3    0    0 -0.15283392542E+02 -0.43105815013E+02 -0.72554173301E+02  0.85765969004E+02  0.51100000000E-03 0. -1.
<mgrwt>
<rscale>  0 0.91647983E+02</rscale>
<asrwt>0</asrwt>
<pdfrwt beam="2">  1        1 0.22928931E-01 0.91647983E+02</pdfrwt>
<pdfrwt beam="1">  1       -1 0.21675809E-02 0.91647983E+02</pdfrwt>
<totfact> 0.11045169E+05</totfact>
</mgrwt>
</event>
<event>
 5    1  0.2718303E+000  0.9518054E+02  0.7818608E-02  0.1290770E+00
          1   -1    0    0  501    0  0.00000000000E+00  0.00000000000E+00  0.11107403093E+03  0.11107403103E+03  0.46700000000E-02 0. -1.
         -1   -1    0    0    0  501 -0.00000000000E+00 -0.00000000000E+00 -0.20390309434E+02  0.20390309969E+02  0.46700000000E-02 0.  1.
         23    2    1    2    0    0  0.00000000000E+00  0.00000000000E+00  0.90683721498E+02  0.13146434100E+03  0.95180542180E+02 0.  0.
        -11    1    3    3    0    0  0.38398260872E+02  0.73905645345E+01  0.78759878492E+01  0.39888319932E+02  0.51100000000E-03 0.  1.
         11    1    3    3    0    0 -0.38398260872E+02 -0.73905645345E+01  0.82807733649E+02  0.91576021067E+02  0.51100000000E-03 0. -1.
<mgrwt>
<rscale>  0 0.95180542E+02</rscale>
<asrwt>0</asrwt>
<pdfrwt beam="1">  1        1 0.17088313E-01 0.95180542E+02</pdfrwt>
<pdfrwt beam="2">  1       -1 0.31369707E-02 0.95180542E+02</pdfrwt>
<totfact> 0.94555876E+04</totfact>
</mgrwt>
</event>
<event>
 5    1  0.2718303E+000  0.8863861E+02  0.7818608E-02  0.1306182E+00
         -1   -1    0    0    0  501 -0.00000000000E+00  0.00000000000E+00  0.20262689364E+02  0.20262689902E+02  0.46700000000E-02 0.  1.
          1   -1    0    0  501    0  0.00000000000E+00 -0.00000000000E+00 -0.96936833237E+02  0.96936833349E+02  0.46700000000E-02 0. -1.
         23    2    1    2    0    0  0.00000000000E+00  0.00000000000E+00 -0.76674143873E+02  0.11719952325E+03  0.88638614113E+02 0.  0.
        -11    1    3    3    0    0  0.22594285486E+02 -0.24515005101E+02 -0.76947491860E+02  0.83859428304E+02  0.51100000000E-03 0. -1.
         11    1    3    3    0    0 -0.22594285486E+02  0.24515005101E+02  0.27334798739E+00  0.33340094948E+02  0.51100000000E-03 0.  1.
<mgrwt>
<rscale>  0 0.88638614E+02</rscale>
<asrwt>0</asrwt>
<pdfrwt beam="2">  1        1 0.14913359E-01 0.88638614E+02</pdfrwt>
<pdfrwt beam="1">  1       -1 0.31173369E-02 0.88638614E+02</pdfrwt>
<totfact> 0.11221352E+05</totfact>
</mgrwt>
</event>
<event>
 5    1  0.2718303E+000  0.9150788E+02  0.7818608E-02  0.1299241E+00
          1   -1    0    0  501    0  0.00000000000E+00  0.00000000000E+00  0.21704116655E+02  0.21704117157E+02  0.46700000000E-02 0. -1.
         -1   -1    0    0    0  501 -0.00000000000E+00 -0.00000000000E+00 -0.96452816245E+02  0.96452816358E+02  0.46700000000E-02 0.  1.
         23    2    1    2    0    0  0.00000000000E+00  0.00000000000E+00 -0.74748699590E+02  0.11815693352E+03  0.91507884072E+02 0.  0.
        -11    1    3    3    0    0 -0.21477336083E+01  0.31693319577E+02 -0.79893465886E+02  0.85977003652E+02  0.51100000000E-03 0.  1.
         11    1    3    3    0    0  0.21477336083E+01 -0.31693319577E+02  0.51447662958E+01  0.32179929863E+02  0.51100000000E-03 0. -1.
<mgrwt>
<rscale>  0 0.91507884E+02</rscale>
<asrwt>0</asrwt>
<pdfrwt beam="1">  1        1 0.33390950E-02 0.91507884E+02</pdfrwt>
<pdfrwt beam="2">  1       -1 0.14838895E-01 0.91507884E+02</pdfrwt>
<totfact> 0.81153210E+04</totfact>
</mgrwt>
</event>
<event>
 5    1  0.2718303E+000  0.9182210E+02  0.7818608E-02  0.1298498E+00
          1   -1    0    0  501    0  0.00000000000E+00  0.00000000000E+00  0.26381133727E+03  0.26381133731E+03  0.46700000000E-02 0. -1.
         -1   -1    0    0    0  501 -0.00000000000E+00 -0.00000000000E+00 -0.79898933623E+01  0.79898947270E+01  0.46700000000E-02 0.  1.
         23    2    1    2    0    0  0.00000000000E+00  0.00000000000E+00  0.25582144391E+03  0.27180123204E+03  0.91822102865E+02 0.  0.
        -11    1    3    3    0    0 -0.16403761786E+02  0.36564189588E+02  0.61602089690E+02  0.73490413085E+02  0.51100000000E-03 0.  1.
         11    1    3    3    0    0  0.16403761786E+02 -0.36564189588E+02  0.19421935422E+03  0.19831081895E+03  0.51100000000E-03 0. -1.
<mgrwt>
<rscale>  0 0.91822103E+02</rscale>
<asrwt>0</asrwt>
<pdfrwt beam="1">  1        1 0.40586355E-01 0.91822103E+02</pdfrwt>
<pdfrwt beam="2">  1       -1 0.12292146E-02 0.91822103E+02</pdfrwt>
<totfact> 0.12264213E+05</totfact>
</mgrwt>
</event>
<event>
 5    1  0.2718303E+000  0.9167904E+02  0.7818608E-02  0.1298836E+00
          1   -1    0    0  501    0  0.00000000000E+00  0.00000000000E+00  0.18646874211E+03  0.18646874217E+03  0.46700000000E-02 0. -1.
         -1   -1    0    0    0  501 -0.00000000000E+00 -0.00000000000E+00 -0.11268705751E+02  0.11268706719E+02  0.46700000000E-02 0.  1.
         23    2    1    2    0    0  0.00000000000E+00  0.00000000000E+00  0.17520003636E+03  0.19773744889E+03  0.91679037692E+02 0.  0.
        -11    1    3    3    0    0 -0.14277556301E+02  0.33624614293E+02  0.27874569701E+02  0.45950570579E+02  0.51100000000E-03 0.  1.
         11    1    3    3    0    0  0.14277556301E+02 -0.33624614293E+02  0.14732546666E+03  0.15178687831E+03  0.51100000000E-03 0. -1.
<mgrwt>
<rscale>  0 0.91679038E+02</rscale>
<asrwt>0</asrwt>
<pdfrwt beam="1">  1        1 0.28687497E-01 0.91679038E+02</pdfrwt>
<pdfrwt beam="2">  1       -1 0.17336472E-02 0.91679038E+02</pdfrwt>
<totfact> 0.11510225E+05</totfact>
</mgrwt>
</event>
<event>
 5    1  0.2718303E+000  0.8106318E+02  0.7818608E-02  0.1326061E+00
          1   -1    0    0  501    0  0.00000000000E+00  0.00000000000E+00  0.25027487063E+02  0.25027487499E+02  0.46700000000E-02 0. -1.
         -1   -1    0    0    0  501 -0.00000000000E+00 -0.00000000000E+00 -0.65640213092E+02  0.65640213258E+02  0.46700000000E-02 0.  1.
         23    2    1    2    0    0  0.00000000000E+00  0.00000000000E+00 -0.40612726030E+02  0.90667700757E+02  0.81063175641E+02 0.  0.
        -11    1    3    3    0    0  0.65068970437E+01  0.33395842247E+02 -0.44943137376E+02  0.56369385183E+02  0.51100000000E-03 0.  1.
         11    1    3    3    0    0 -0.65068970437E+01 -0.33395842247E+02  0.43304113465E+01  0.34298315574E+02  0.51100000000E-03 0. -1.
<mgrwt>
<rscale>  0 0.81063176E+02</rscale>
<asrwt>0</asrwt>
<pdfrwt beam="1">  1        1 0.38503827E-02 0.81063176E+02</pdfrwt>
<pdfrwt beam="2">  1       -1 0.10098494E-01 0.81063176E+02</pdfrwt>
<totfact> 0.11786107E+05</totfact>
</mgrwt>
</event>
<event>
 5    1  0.2718303E+000  0.8984537E+02  0.7818608E-02  0.1303227E+00
         -1   -1    0    0    0  501 -0.00000000000E+00  0.00000000000E+00  0.21777442428E+02  0.21777442928E+02  0.46700000000E-02 0.  1.
          1   -1    0    0  501    0  0.00000000000E+00 -0.00000000000E+00 -0.92666870733E+02  0.92666870851E+02  0.46700000000E-02 0. -1.
         23    2    1    2    0    0  0.00000000000E+00  0.00000000000E+00 -0.70889428306E+02  0.11444431378E+03  0.89845366664E+02 0.  0.
        -11    1    3    3    0    0  0.38883088071E+02 -0.10571874512E+02 -0.60741223965E+02  0.72891394264E+02  0.51100000000E-03 0. -1.
         11    1    3    3    0    0 -0.38883088071E+02  0.10571874512E+02 -0.10148204341E+02  0.41552919516E+02  0.51100000000E-03 0.  1.
<mgrwt>
<rscale>  0 0.89845367E+02</rscale>
<asrwt>0</asrwt>
<pdfrwt beam="2">  1        1 0.14256441E-01 0.89845367E+02</pdfrwt>
<pdfrwt beam="1">  1       -1 0.33503759E-02 0.89845367E+02</pdfrwt>
<totfact> 0.10737216E+05</totfact>
</mgrwt>
</event>
<event>
 5    1  0.2718303E+000  0.8102609E+02  0.7818608E-02  0.1326165E+00
         -1   -1    0    0    0  501 -0.00000000000E+00  0.00000000000E+00  0.28001904672E+02  0.28001905062E+02  0.46700000000E-02 0.  1.
          1   -1    0    0  501    0  0.00000000000E+00 -0.00000000000E+00 -0.58614107942E+02  0.58614108128E+02  0.46700000000E-02 0. -1.
         23    2    1    2    0    0  0.00000000000E+00  0.00000000000E+00 -0.30612203269E+02  0.86616013190E+02  0.81026086860E+02 0.  0.
        -11    1    3    3    0    0  0.34077013479E+02  0.13180883013E+02 -0.34015800087E+02  0.49920468552E+02  0.51100000000E-03 0. -1.
         11    1    3    3    0    0 -0.34077013479E+02 -0.13180883013E+02  0.34035968175E+01  0.36695544637E+02  0.51100000000E-03 0.  1.
<mgrwt>
<rscale>  0 0.81026087E+02</rscale>
<asrwt>0</asrwt>
<pdfrwt beam="2">  1        1 0.90175551E-02 0.81026087E+02</pdfrwt>
<pdfrwt beam="1">  1       -1 0.43079854E-02 0.81026087E+02</pdfrwt>
<totfact> 0.13286098E+05</totfact>
</mgrwt>
</event>
<event>
 5    1  0.2718303E+000  0.8938066E+02  0.7818608E-02  0.1304358E+00
          1   -1    0    0  501    0  0.00000000000E+00  0.00000000000E+00  0.22396018130E+02  0.22396018617E+02  0.46700000000E-02 0. -1.
         -1   -1    0    0    0  501 -0.00000000000E+00 -0.00000000000E+00 -0.89177710464E+02  0.89177710587E+02  0.46700000000E-02 0.  1.
         23    2    1    2    0    0  0.00000000000E+00  0.00000000000E+00 -0.66781692334E+02  0.11157372920E+03  0.89380661316E+02 0.  0.
        -11    1    3    3    0    0 -0.87612051170E+01  0.15809893239E+02 -0.84411200820E+02  0.86324748847E+02  0.51100000000E-03 0.  1.
         11    1    3    3    0    0  0.87612051170E+01 -0.15809893239E+02  0.17629508486E+02  0.25248980357E+02  0.51100000000E-03 0. -1.
<mgrwt>
<rscale>  0 0.89380661E+02</rscale>
<asrwt>0</asrwt>
<pdfrwt beam="1">  1        1 0.34455413E-02 0.89380661E+02</pdfrwt>
<pdfrwt beam="2">  1       -1 0.13719648E-01 0.89380661E+02</pdfrwt>
<totfact> 0.87426393E+04</totfact>
</mgrwt>
</event>
<event>
 5    1  0.2718303E+000  0.9624339E+02  0.7818608E-02  0.1288400E+00
         -1   -1    0    0    0  501 -0.00000000000E+00  0.00000000000E+00  0.87623325124E+02  0.87623325248E+02  0.46700000000E-02 0.  1.
          1   -1    0    0  501    0  0.00000000000E+00 -0.00000000000E+00 -0.26427863573E+02  0.26427863986E+02  0.46700000000E-02 0. -1.
         23    2    1    2    0    0  0.00000000000E+00  0.00000000000E+00  0.61195461551E+02  0.11405118923E+03  0.96243385494E+02 0.  0.
        -11    1    3    3    0    0 -0.44642053136E+02  0.17881182548E+02  0.32666519346E+02  0.58135626632E+02  0.51100000000E-03 0.  1.
         11    1    3    3    0    0  0.44642053136E+02 -0.17881182548E+02  0.28528942205E+02  0.55915562602E+02  0.51100000000E-03 0. -1.
<mgrwt>
<rscale>  0 0.96243385E+02</rscale>
<asrwt>0</asrwt>
<pdfrwt beam="2">  1        1 0.40658252E-02 0.96243385E+02</pdfrwt>
<pdfrwt beam="1">  1       -1 0.13480511E-01 0.96243385E+02</pdfrwt>
<totfact> 0.72520167E+04</totfact>
</mgrwt>
</event>
<event>
 5    1  0.2718303E+000  0.9047942E+02  0.7818608E-02  0.1301695E+00
         -1   -1    0    0    0  501 -0.00000000000E+00  0.00000000000E+00  0.15475377631E+02  0.15475378336E+02  0.46700000000E-02 0.  1.
          1   -1    0    0  501    0  0.00000000000E+00 -0.00000000000E+00 -0.13225081363E+03  0.13225081371E+03  0.46700000000E-02 0. -1.
         23    2    1    2    0    0  0.00000000000E+00  0.00000000000E+00 -0.11677543599E+03  0.14772619204E+03  0.90479419561E+02 0.  0.
        -11    1    3    3    0    0  0.19439252286E+02 -0.23224425391E+02 -0.35188028000E+01  0.30490005536E+02  0.51100000000E-03 0.  1.
         11    1    3    3    0    0 -0.19439252286E+02  0.23224425391E+02 -0.11325663319E+03  0.11723618651E+03  0.51100000000E-03 0. -1.
<mgrwt>
<rscale>  0 0.90479420E+02</rscale>
<asrwt>0</asrwt>
<pdfrwt beam="2">  1        1 0.20346278E-01 0.90479420E+02</pdfrwt>
<pdfrwt beam="1">  1       -1 0.23808275E-02 0.90479420E+02</pdfrwt>
<totfact> 0.11190045E+05</totfact>
</mgrwt>
</event>
<event>
 5    1  0.2718303E+000  0.9168962E+02  0.7818608E-02  0.1298811E+00
         -1   -1    0    0    0  501 -0.00000000000E+00  0.00000000000E+00  0.27995505307E+02  0.27995505697E+02  0.46700000000E-02 0.  1.
          1   -1    0    0  501    0  0.00000000000E+00 -0.00000000000E+00 -0.75074428992E+02  0.75074429137E+02  0.46700000000E-02 0. -1.
         23    2    1    2    0    0  0.00000000000E+00  0.00000000000E+00 -0.47078923684E+02  0.10306993483E+03  0.91689619976E+02 0.  0.
        -11    1    3    3    0    0 -0.16635915611E+02  0.25183263628E+01  0.24399266037E+02  0.29638148379E+02  0.51100000000E-03 0.  1.
         11    1    3    3    0    0  0.16635915611E+02 -0.25183263628E+01 -0.71478189722E+02  0.73431786455E+02  0.51100000000E-03 0. -1.
<mgrwt>
<rscale>  0 0.91689620E+02</rscale>
<asrwt>0</asrwt>
<pdfrwt beam="2">  1        1 0.11549912E-01 0.91689620E+02</pdfrwt>
<pdfrwt beam="1">  1       -1 0.43070009E-02 0.91689620E+02</pdfrwt>
<totfact> 0.98215496E+04</totfact>
</mgrwt>
</event>
<event>
 5    1  0.2718303E+000  0.9297851E+02  0.7818608E-02  0.1295795E+00
         -1   -1    0    0    0  501 -0.00000000000E+00  0.00000000000E+00  0.12239843595E+03  0.12239843604E+03  0.46700000000E-02 0.  1.
          1   -1    0    0  501    0  0.00000000000E+00 -0.00000000000E+00 -0.17657501676E+02  0.17657502293E+02  0.46700000000E-02 0. -1.
         23    2    1    2    0    0  0.00000000000E+00  0.00000000000E+00  0.10474093427E+03  0.14005593833E+03  0.92978505847E+02 0.  0.
        -11    1    3    3    0    0 -0.29614552000E+02  0.55441614961E+01 -0.96051883103E+00  0.30144352930E+02  0.51100000000E-03 0. -1.
         11    1    3    3    0    0  0.29614552000E+02 -0.55441614961E+01  0.10570145310E+03  0.10991158540E+03  0.51100000000E-03 0.  1.
<mgrwt>
<rscale>  0 0.92978506E+02</rscale>
<asrwt>0</asrwt>
<pdfrwt beam="2">  1        1 0.27165388E-02 0.92978506E+02</pdfrwt>
<pdfrwt beam="1">  1       -1 0.18830528E-01 0.92978506E+02</pdfrwt>
<totfact> 0.74347211E+04</totfact>
</mgrwt>
</event>
<event>
 5    1  0.2718303E+000  0.9349315E+02  0.7818608E-02  0.1294606E+00
         -1   -1    0    0    0  501 -0.00000000000E+00  0.00000000000E+00  0.29470982379E+02  0.29470982749E+02  0.46700000000E-02 0.  1.
          1   -1    0    0  501    0  0.00000000000E+00 -0.00000000000E+00 -0.74148950060E+02  0.74148950207E+02  0.46700000000E-02 0. -1.
         23    2    1    2    0    0  0.00000000000E+00  0.00000000000E+00 -0.44677967681E+02  0.10361993296E+03  0.93493153278E+02 0.  0.
        -11    1    3    3    0    0  0.15178074366E+02  0.19613462511E+02  0.21578585873E+02  0.32873959628E+02  0.51100000000E-03 0.  1.
         11    1    3    3    0    0 -0.15178074366E+02 -0.19613462511E+02 -0.66256553553E+02  0.70745973328E+02  0.51100000000E-03 0. -1.
<mgrwt>
<rscale>  0 0.93493153E+02</rscale>
<asrwt>0</asrwt>
<pdfrwt beam="2">  1        1 0.11407531E-01 0.93493153E+02</pdfrwt>
<pdfrwt beam="1">  1       -1 0.45339974E-02 0.93493153E+02</pdfrwt>
<totfact> 0.92892742E+04</totfact>
</mgrwt>
</event>
<event>
 5    1  0.2718303E+000  0.9426503E+02  0.7818608E-02  0.1292840E+00
         -1   -1    0    0    0  501 -0.00000000000E+00  0.00000000000E+00  0.16748243440E+02  0.16748244091E+02  0.46700000000E-02 0.  1.
          1   -1    0    0  501    0  0.00000000000E+00 -0.00000000000E+00 -0.13263920616E+03  0.13263920624E+03  0.46700000000E-02 0. -1.
         23    2    1    2    0    0  0.00000000000E+00  0.00000000000E+00 -0.11589096272E+03  0.14938745033E+03  0.94265025735E+02 0.  0.
        -11    1    3    3    0    0 -0.69675014628E+01  0.26839704181E+02  0.24535900423E+01  0.27837670548E+02  0.51100000000E-03 0.  1.
         11    1    3    3    0    0  0.69675014628E+01 -0.26839704181E+02 -0.11834455276E+03  0.12154977978E+03  0.51100000000E-03 0. -1.
<mgrwt>
<rscale>  0 0.94265026E+02</rscale>
<asrwt>0</asrwt>
<pdfrwt beam="2">  1        1 0.20406031E-01 0.94265026E+02</pdfrwt>
<pdfrwt beam="1">  1       -1 0.25766530E-02 0.94265026E+02</pdfrwt>
<totfact> 0.10018403E+05</totfact>
</mgrwt>
</event>
<event>
 5    1  0.2718303E+000  0.9012430E+02  0.7818608E-02  0.1302551E+00
          1   -1    0    0  501    0  0.00000000000E+00  0.00000000000E+00  0.72018263733E+02  0.72018263885E+02  0.46700000000E-02 0. -1.
         -1   -1    0    0    0  501 -0.00000000000E+00 -0.00000000000E+00 -0.28195590418E+02  0.28195590805E+02  0.46700000000E-02 0.  1.
         23    2    1    2    0    0  0.00000000000E+00  0.00000000000E+00  0.43822673315E+02  0.10021385469E+03  0.90124302911E+02 0.  0.
        -11    1    3    3    0    0  0.72683629511E+01 -0.12720125734E+02 -0.25473545010E+02  0.29385918300E+02  0.51100000000E-03 0.  1.
         11    1    3    3    0    0 -0.72683629511E+01  0.12720125734E+02  0.69296218326E+02  0.70827936389E+02  0.51100000000E-03 0. -1.
<mgrwt>
<rscale>  0 0.90124303E+02</rscale>
<asrwt>0</asrwt>
<pdfrwt beam="1">  1        1 0.11079733E-01 0.90124303E+02</pdfrwt>
<pdfrwt beam="2">  1       -1 0.43377832E-02 0.90124303E+02</pdfrwt>
<totfact> 0.10231817E+05</totfact>
</mgrwt>
</event>
<event>
 5    1  0.2718303E+000  0.8733611E+02  0.7818608E-02  0.1309434E+00
         -1   -1    0    0    0  501 -0.00000000000E+00  0.00000000000E+00  0.84188954667E+01  0.84188967619E+01  0.46700000000E-02 0.  1.
          1   -1    0    0  501    0  0.00000000000E+00 -0.00000000000E+00 -0.22650228517E+03  0.22650228522E+03  0.46700000000E-02 0. -1.
         23    2    1    2    0    0  0.00000000000E+00  0.00000000000E+00 -0.21808338970E+03  0.23492118198E+03  0.87336114399E+02 0.  0.
        -11    1    3    3    0    0  0.43310264105E+01 -0.40796740511E+02 -0.14927879856E+03  0.15481373171E+03  0.51100000000E-03 0. -1.
         11    1    3    3    0    0 -0.43310264105E+01  0.40796740511E+02 -0.68804591137E+02  0.80107450264E+02  0.51100000000E-03 0.  1.
<mgrwt>
<rscale>  0 0.87336114E+02</rscale>
<asrwt>0</asrwt>
<pdfrwt beam="2">  1        1 0.34846501E-01 0.87336114E+02</pdfrwt>
<pdfrwt beam="1">  1       -1 0.12952150E-02 0.87336114E+02</pdfrwt>
<totfact> 0.13607162E+05</totfact>
</mgrwt>
</event>
<event>
 5    1  0.2718303E+000  0.8915029E+02  0.7818608E-02  0.1304923E+00
         -1   -1    0    0    0  501 -0.00000000000E+00  0.00000000000E+00  0.95137047153E+02  0.95137047267E+02  0.46700000000E-02 0.  1.
          1   -1    0    0  501    0  0.00000000000E+00 -0.00000000000E+00 -0.20885066437E+02  0.20885066959E+02  0.46700000000E-02 0. -1.
         23    2    1    2    0    0  0.00000000000E+00  0.00000000000E+00  0.74251980716E+02  0.11602211423E+03  0.89150290798E+02 0.  0.
        -11    1    3    3    0    0  0.22390198397E+02  0.20503236463E+02  0.79601805602E+02  0.85194783556E+02  0.51100000000E-03 0.  1.
         11    1    3    3    0    0 -0.22390198397E+02 -0.20503236463E+02 -0.53498248869E+01  0.30827330670E+02  0.51100000000E-03 0. -1.
<mgrwt>
<rscale>  0 0.89150291E+02</rscale>
<asrwt>0</asrwt>
<pdfrwt beam="2">  1        1 0.32130872E-02 0.89150291E+02</pdfrwt>
<pdfrwt beam="1">  1       -1 0.14636469E-01 0.89150291E+02</pdfrwt>
<totfact> 0.87000977E+04</totfact>
</mgrwt>
</event>
<event>
 5    1  0.2718303E+000  0.9044834E+02  0.7818608E-02  0.1301770E+00
          1   -1    0    0  501    0  0.00000000000E+00  0.00000000000E+00  0.29026514158E+02  0.29026514533E+02  0.46700000000E-02 0. -1.
         -1   -1    0    0    0  501 -0.00000000000E+00 -0.00000000000E+00 -0.70460601559E+02  0.70460601714E+02  0.46700000000E-02 0.  1.
         23    2    1    2    0    0  0.00000000000E+00  0.00000000000E+00 -0.41434087401E+02  0.99487116247E+02  0.90448342718E+02 0.  0.
        -11    1    3    3    0    0  0.42197245654E+02  0.59468615517E+01 -0.40628460009E+01  0.42807469220E+02  0.51100000000E-03 0.  1.
         11    1    3    3    0    0 -0.42197245654E+02 -0.59468615517E+01 -0.37371241400E+02  0.56679647028E+02  0.51100000000E-03 0. -1.
<mgrwt>
<rscale>  0 0.90448343E+02</rscale>
<asrwt>0</asrwt>
<pdfrwt beam="1">  1        1 0.44656176E-02 0.90448343E+02</pdfrwt>
<pdfrwt beam="2">  1       -1 0.10840093E-01 0.90448343E+02</pdfrwt>
<totfact> 0.88232642E+04</totfact>
</mgrwt>
</event>
<event>
 5    1  0.2718303E+000  0.9387154E+02  0.7818608E-02  0.1293738E+00
          1   -1    0    0  501    0  0.00000000000E+00  0.00000000000E+00  0.85978951550E+02  0.85978951676E+02  0.46700000000E-02 0. -1.
         -1   -1    0    0    0  501 -0.00000000000E+00 -0.00000000000E+00 -0.25622162597E+02  0.25622163023E+02  0.46700000000E-02 0.  1.
         23    2    1    2    0    0  0.00000000000E+00  0.00000000000E+00  0.60356788952E+02  0.11160111470E+03  0.93871544301E+02 0.  0.
        -11    1    3    3    0    0  0.14849142834E+02  0.31374305373E+02  0.67738475483E+02  0.76114027233E+02  0.51100000000E-03 0.  1.
         11    1    3    3    0    0 -0.14849142834E+02 -0.31374305373E+02 -0.73816865312E+01  0.35487087466E+02  0.51100000000E-03 0. -1.
<mgrwt>
<rscale>  0 0.93871544E+02</rscale>
<asrwt>0</asrwt>
<pdfrwt beam="1">  1        1 0.13227531E-01 0.93871544E+02</pdfrwt>
<pdfrwt beam="2">  1       -1 0.39418712E-02 0.93871544E+02</pdfrwt>
<totfact> 0.94072274E+04</totfact>
</mgrwt>
</event>
<event>
 5    1  0.3381289E+000  0.8864171E+02  0.7818608E-02  0.1306175E+00
         -1   -1    0    0    0  501 -0.00000000000E+00  0.00000000000E+00  0.49860828704E+03  0.49860828706E+03  0.46700000000E-02 0.  1.
          1   -1    0    0  501    0  0.00000000000E+00 -0.00000000000E+00 -0.39396405885E+01  0.39396433563E+01  0.46700000000E-02 0. -1.
         23    2    1    2    0    0  0.00000000000E+00  0.00000000000E+00  0.49466864645E+03  0.50254793042E+03  0.88641709062E+02 0.  0.
        -11    1    3    3    0    0 -0.43554882817E+02 -0.74628824698E+01  0.22801186731E+03  0.23225445974E+03  0.51100000000E-03 0.  1.
         11    1    3    3    0    0  0.43554882817E+02  0.74628824698E+01  0.26665677914E+03  0.27029347068E+03  0.51100000000E-03 0. -1.
<mgrwt>
<rscale>  0 0.88641709E+02</rscale>
<asrwt>0</asrwt>
<pdfrwt beam="2">  1        1 0.60609876E-03 0.88641709E+02</pdfrwt>
<pdfrwt beam="1">  1       -1 0.76708969E-01 0.88641709E+02</pdfrwt>
<totfact> 0.50735453E+04</totfact>
</mgrwt>
</event>
<event>
 5    1  0.2718303E+000  0.8879962E+02  0.7818608E-02  0.1305785E+00
         -1   -1    0    0    0  501 -0.00000000000E+00  0.00000000000E+00  0.20562073026E+02  0.20562073556E+02  0.46700000000E-02 0.  1.
          1   -1    0    0  501    0  0.00000000000E+00 -0.00000000000E+00 -0.95872782074E+02  0.95872782188E+02  0.46700000000E-02 0. -1.
         23    2    1    2    0    0  0.00000000000E+00  0.00000000000E+00 -0.75310709048E+02  0.11643485574E+03  0.88799621254E+02 0.  0.
        -11    1    3    3    0    0 -0.11309526944E+02  0.22177636070E+02 -0.85860613441E+02  0.89396856109E+02  0.51100000000E-03 0. -1.
         11    1    3    3    0    0  0.11309526944E+02 -0.22177636070E+02  0.10549904393E+02  0.27037999636E+02  0.51100000000E-03 0.  1.
<mgrwt>
<rscale>  0 0.88799621E+02</rscale>
<asrwt>0</asrwt>
<pdfrwt beam="2">  1        1 0.14749658E-01 0.88799621E+02</pdfrwt>
<pdfrwt beam="1">  1       -1 0.31633960E-02 0.88799621E+02</pdfrwt>
<totfact> 0.11146128E+05</totfact>
</mgrwt>
</event>
<event>
 5    1  0.2718303E+000  0.9159015E+02  0.7818608E-02  0.1299046E+00
          1   -1    0    0  501    0  0.00000000000E+00  0.00000000000E+00  0.31158139487E+02  0.31158139837E+02  0.46700000000E-02 0. -1.
         -1   -1    0    0    0  501 -0.00000000000E+00 -0.00000000000E+00 -0.67307896682E+02  0.67307896844E+02  0.46700000000E-02 0.  1.
         23    2    1    2    0    0  0.00000000000E+00  0.00000000000E+00 -0.36149757195E+02  0.98466036681E+02  0.91590149221E+02 0.  0.
        -11    1    3    3    0    0  0.32288742376E+02  0.10017138783E+02 -0.51285443507E+02  0.61425586441E+02  0.51100000000E-03 0.  1.
         11    1    3    3    0    0 -0.32288742376E+02 -0.10017138783E+02  0.15135686312E+02  0.37040450240E+02  0.51100000000E-03 0. -1.
<mgrwt>
<rscale>  0 0.91590149E+02</rscale>
<asrwt>0</asrwt>
<pdfrwt beam="1">  1        1 0.47935600E-02 0.91590149E+02</pdfrwt>
<pdfrwt beam="2">  1       -1 0.10355061E-01 0.91590149E+02</pdfrwt>
<totfact> 0.86088825E+04</totfact>
</mgrwt>
</event>
<event>
 5    1  0.2718303E+000  0.9233395E+02  0.7818608E-02  0.1297296E+00
         -1   -1    0    0    0  501 -0.00000000000E+00  0.00000000000E+00  0.23445793041E+02  0.23445793506E+02  0.46700000000E-02 0.  1.
          1   -1    0    0  501    0  0.00000000000E+00 -0.00000000000E+00 -0.90907118062E+02  0.90907118182E+02  0.46700000000E-02 0. -1.
         23    2    1    2    0    0  0.00000000000E+00  0.00000000000E+00 -0.67461325021E+02  0.11435291169E+03  0.92333948459E+02 0.  0.
        -11    1    3    3    0    0  0.27815437507E+02 -0.35741390487E+02 -0.44824759883E+02  0.63721304572E+02  0.51100000000E-03 0. -1.
         11    1    3    3    0    0 -0.27815437507E+02  0.35741390487E+02 -0.22636565138E+02  0.50631607116E+02  0.51100000000E-03 0.  1.
<mgrwt>
<rscale>  0 0.92333948E+02</rscale>
<asrwt>0</asrwt>
<pdfrwt beam="2">  1        1 0.13985710E-01 0.92333948E+02</pdfrwt>
<pdfrwt beam="1">  1       -1 0.36070452E-02 0.92333948E+02</pdfrwt>
<totfact> 0.99337004E+04</totfact>
</mgrwt>
</event>
<event>
 5    1  0.2718303E+000  0.9526734E+02  0.7818608E-02  0.1290575E+00
          1   -1    0    0  501    0  0.00000000000E+00  0.00000000000E+00  0.11013452674E+03  0.11013452684E+03  0.46700000000E-02 0. -1.
         -1   -1    0    0    0  501 -0.00000000000E+00 -0.00000000000E+00 -0.20601773392E+02  0.20601773922E+02  0.46700000000E-02 0.  1.
         23    2    1    2    0    0  0.00000000000E+00  0.00000000000E+00  0.89532753348E+02  0.13073630076E+03  0.95267341805E+02 0.  0.
        -11    1    3    3    0    0  0.10022479265E+02 -0.41292231828E+02  0.74309885212E+02  0.85600569743E+02  0.51100000000E-03 0. -1.
         11    1    3    3    0    0 -0.10022479265E+02  0.41292231828E+02  0.15222868137E+02  0.45135731018E+02  0.51100000000E-03 0.  1.
<mgrwt>
<rscale>  0 0.95267342E+02</rscale>
<asrwt>0</asrwt>
<pdfrwt beam="1">  1        1 0.16943774E-01 0.95267342E+02</pdfrwt>
<pdfrwt beam="2">  1       -1 0.31695036E-02 0.95267342E+02</pdfrwt>
<totfact> 0.94181311E+04</totfact>
</mgrwt>
</event>
<event>
 5    1  0.2718303E+000  0.9123578E+02  0.7818608E-02  0.1299886E+00
          1   -1    0    0  501    0  0.00000000000E+00  0.00000000000E+00  0.48165920055E+02  0.48165920281E+02  0.46700000000E-02 0. -1.
         -1   -1    0    0    0  501 -0.00000000000E+00 -0.00000000000E+00 -0.43204650058E+02  0.43204650310E+02  0.46700000000E-02 0.  1.
         23    2    1    2    0    0  0.00000000000E+00  0.00000000000E+00  0.49612699976E+01  0.91370570591E+02  0.91235776810E+02 0.  0.
        -11    1    3    3    0    0  0.18884029225E+01 -0.23555454342E+02  0.41558359060E+02  0.47807140710E+02  0.51100000000E-03 0. -1.
         11    1    3    3    0    0 -0.18884029225E+01  0.23555454342E+02 -0.36597089063E+02  0.43563429881E+02  0.51100000000E-03 0.  1.
<mgrwt>
<rscale>  0 0.91235777E+02</rscale>
<asrwt>0</asrwt>
<pdfrwt beam="1">  1        1 0.74101416E-02 0.91235777E+02</pdfrwt>
<pdfrwt beam="2">  1       -1 0.66468693E-02 0.91235777E+02</pdfrwt>
<totfact> 0.93070709E+04</totfact>
</mgrwt>
</event>
<event>
 5    1  0.2718303E+000  0.9162980E+02  0.7818608E-02  0.1298952E+00
          1   -1    0    0  501    0  0.00000000000E+00  0.00000000000E+00  0.30786607456E+03  0.30786607460E+03  0.46700000000E-02 0. -1.
         -1   -1    0    0    0  501 -0.00000000000E+00 -0.00000000000E+00 -0.68179146351E+01  0.68179162345E+01  0.46700000000E-02 0.  1.
         23    2    1    2    0    0  0.00000000000E+00  0.00000000000E+00  0.30104815993E+03  0.31468399083E+03  0.91629795866E+02 0.  0.
        -11    1    3    3    0    0  0.33728600847E+02  0.26902327965E+02  0.20346699517E+03  0.20799079761E+03  0.51100000000E-03 0. -1.
         11    1    3    3    0    0 -0.33728600847E+02 -0.26902327965E+02  0.97581164752E+02  0.10669319322E+03  0.51100000000E-03 0.  1.
<mgrwt>
<rscale>  0 0.91629796E+02</rscale>
<asrwt>0</asrwt>
<pdfrwt beam="1">  1        1 0.47363999E-01 0.91629796E+02</pdfrwt>
<pdfrwt beam="2">  1       -1 0.10489103E-02 0.91629796E+02</pdfrwt>
<totfact> 0.12706328E+05</totfact>
</mgrwt>
</event>
<event>
 5    1  0.2718303E+000  0.8813613E+02  0.7818608E-02  0.1307429E+00
         -1   -1    0    0    0  501 -0.00000000000E+00  0.00000000000E+00  0.16923129633E+02  0.16923130278E+02  0.46700000000E-02 0.  1.
          1   -1    0    0  501    0  0.00000000000E+00 -0.00000000000E+00 -0.11475384271E+03  0.11475384281E+03  0.46700000000E-02 0. -1.
         23    2    1    2    0    0  0.00000000000E+00  0.00000000000E+00 -0.97830713079E+02  0.13167697308E+03  0.88136126641E+02 0.  0.
        -11    1    3    3    0    0  0.93757128363E+01  0.36897353438E+02 -0.15753688527E+02  0.41200696406E+02  0.51100000000E-03 0.  1.
         11    1    3    3    0    0 -0.93757128363E+01 -0.36897353438E+02 -0.82077024552E+02  0.90476276678E+02  0.51100000000E-03 0. -1.
<mgrwt>
<rscale>  0 0.88136127E+02</rscale>
<asrwt>0</asrwt>
<pdfrwt beam="2">  1        1 0.17654437E-01 0.88136127E+02</pdfrwt>
<pdfrwt beam="1">  1       -1 0.26035585E-02 0.88136127E+02</pdfrwt>
<totfact> 0.11719248E+05</totfact>
</mgrwt>
</event>
<event>
 5    1  0.2718303E+000  0.8970482E+02  0.7818608E-02  0.1303568E+00
          1   -1    0    0  501    0  0.00000000000E+00  0.00000000000E+00  0.97647148084E+01  0.97647159251E+01  0.46700000000E-02 0. -1.
         -1   -1    0    0    0  501 -0.00000000000E+00 -0.00000000000E+00 -0.20602124869E+03  0.20602124874E+03  0.46700000000E-02 0.  1.
         23    2    1    2    0    0  0.00000000000E+00  0.00000000000E+00 -0.19625653388E+03  0.21578596466E+03  0.89704824042E+02 0.  0.
        -11    1    3    3    0    0 -0.32054050652E+02  0.30724744932E+02 -0.82863833786E+02  0.94010037040E+02  0.51100000000E-03 0.  1.
         11    1    3    3    0    0  0.32054050652E+02 -0.30724744932E+02 -0.11339270009E+03  0.12177592762E+03  0.51100000000E-03 0. -1.
<mgrwt>
<rscale>  0 0.89704824E+02</rscale>
<asrwt>0</asrwt>
<pdfrwt beam="1">  1        1 0.15022641E-02 0.89704824E+02</pdfrwt>
<pdfrwt beam="2">  1       -1 0.31695574E-01 0.89704824E+02</pdfrwt>
<totfact> 0.71810892E+04</totfact>
</mgrwt>
</event>
<event>
 5    1  0.2718303E+000  0.9679789E+02  0.7818608E-02  0.1287177E+00
          1   -1    0    0  501    0  0.00000000000E+00  0.00000000000E+00  0.70653584465E+02  0.70653584620E+02  0.46700000000E-02 0. -1.
         -1   -1    0    0    0  501 -0.00000000000E+00 -0.00000000000E+00 -0.33154124100E+02  0.33154124429E+02  0.46700000000E-02 0.  1.
         23    2    1    2    0    0  0.00000000000E+00  0.00000000000E+00  0.37499460365E+02  0.10380770905E+03  0.96797887014E+02 0.  0.
        -11    1    3    3    0    0  0.26198710041E+02  0.40381204029E+02  0.24159188020E+02  0.53857965174E+02  0.51100000000E-03 0. -1.
         11    1    3    3    0    0 -0.26198710041E+02 -0.40381204029E+02  0.13340272344E+02  0.49949743875E+02  0.51100000000E-03 0.  1.
<mgrwt>
<rscale>  0 0.96797887E+02</rscale>
<asrwt>0</asrwt>
<pdfrwt beam="1">  1        1 0.10869782E-01 0.96797887E+02</pdfrwt>
<pdfrwt beam="2">  1       -1 0.51006346E-02 0.96797887E+02</pdfrwt>
<totfact> 0.83714180E+04</totfact>
</mgrwt>
</event>
<event>
 5    1  0.2718303E+000  0.9157241E+02  0.7818608E-02  0.1299088E+00
          1   -1    0    0  501    0  0.00000000000E+00  0.00000000000E+00  0.22184397170E+03  0.22184397175E+03  0.46700000000E-02 0. -1.
         -1   -1    0    0    0  501 -0.00000000000E+00 -0.00000000000E+00 -0.94497788926E+01  0.94497800466E+01  0.46700000000E-02 0.  1.
         23    2    1    2    0    0  0.00000000000E+00  0.00000000000E+00  0.21239419280E+03  0.23129375179E+03  0.91572411136E+02 0.  0.
        -11    1    3    3    0    0  0.30030184171E+02 -0.31399956271E+02  0.69716316725E+02  0.82147026928E+02  0.51100000000E-03 0.  1.
         11    1    3    3    0    0 -0.30030184171E+02  0.31399956271E+02  0.14267787608E+03  0.14914672486E+03  0.51100000000E-03 0. -1.
<mgrwt>
<rscale>  0 0.91572411E+02</rscale>
<asrwt>0</asrwt>
<pdfrwt beam="1">  1        1 0.34129841E-01 0.91572411E+02</pdfrwt>
<pdfrwt beam="2">  1       -1 0.14538123E-02 0.91572411E+02</pdfrwt>
<totfact> 0.11942652E+05</totfact>
</mgrwt>
</event>
<event>
 5    1  0.2718303E+000  0.8647240E+02  0.7818608E-02  0.1311626E+00
          1   -1    0    0  501    0  0.00000000000E+00  0.00000000000E+00  0.32942612045E+02  0.32942612376E+02  0.46700000000E-02 0. -1.
         -1   -1    0    0    0  501 -0.00000000000E+00 -0.00000000000E+00 -0.56746225458E+02  0.56746225650E+02  0.46700000000E-02 0.  1.
         23    2    1    2    0    0  0.00000000000E+00  0.00000000000E+00 -0.23803613413E+02  0.89688838026E+02  0.86472398226E+02 0.  0.
        -11    1    3    3    0    0 -0.24044687036E+02  0.53731689749E+01 -0.48752949200E+02  0.54624792681E+02  0.51100000000E-03 0.  1.
         11    1    3    3    0    0  0.24044687036E+02 -0.53731689749E+01  0.24949335786E+02  0.35064045345E+02  0.51100000000E-03 0. -1.
<mgrwt>
<rscale>  0 0.86472398E+02</rscale>
<asrwt>0</asrwt>
<pdfrwt beam="1">  1        1 0.50680942E-02 0.86472398E+02</pdfrwt>
<pdfrwt beam="2">  1       -1 0.87301885E-02 0.86472398E+02</pdfrwt>
<totfact> 0.10226467E+05</totfact>
</mgrwt>
</event>
<event>
 5    1  0.2718303E+000  0.9043376E+02  0.7818608E-02  0.1301805E+00
          1   -1    0    0  501    0  0.00000000000E+00  0.00000000000E+00  0.22938016297E+03  0.22938016302E+03  0.46700000000E-02 0. -1.
         -1   -1    0    0    0  501 -0.00000000000E+00 -0.00000000000E+00 -0.89134380510E+01  0.89134392743E+01  0.46700000000E-02 0.  1.
         23    2    1    2    0    0  0.00000000000E+00  0.00000000000E+00  0.22046672492E+03  0.23829360229E+03  0.90433755294E+02 0.  0.
        -11    1    3    3    0    0  0.39082884992E+02 -0.22455775699E+02  0.10079420062E+03  0.11041378827E+03  0.51100000000E-03 0. -1.
         11    1    3    3    0    0 -0.39082884992E+02  0.22455775699E+02  0.11967252430E+03  0.12787981402E+03  0.51100000000E-03 0.  1.
<mgrwt>
<rscale>  0 0.90433755E+02</rscale>
<asrwt>0</asrwt>
<pdfrwt beam="1">  1        1 0.35289257E-01 0.90433755E+02</pdfrwt>
<pdfrwt beam="2">  1       -1 0.13712982E-02 0.90433755E+02</pdfrwt>
<totfact> 0.12430013E+05</totfact>
</mgrwt>
</event>
<event>
 5    1  0.2718303E+000  0.7360306E+02  0.7818608E-02  0.1348252E+00
          1   -1    0    0  501    0  0.00000000000E+00  0.00000000000E+00  0.63068355543E+02  0.63068355716E+02  0.46700000000E-02 0. -1.
         -1   -1    0    0    0  501 -0.00000000000E+00 -0.00000000000E+00 -0.21474362896E+02  0.21474363403E+02  0.46700000000E-02 0.  1.
         23    2    1    2    0    0  0.00000000000E+00  0.00000000000E+00  0.41593992647E+02  0.84542719119E+02  0.73603064690E+02 0.  0.
        -11    1    3    3    0    0  0.36356946106E+02 -0.26339836605E+01  0.14986767381E+02  0.39412797374E+02  0.51100000000E-03 0.  1.
         11    1    3    3    0    0 -0.36356946106E+02  0.26339836605E+01  0.26607225266E+02  0.45129921745E+02  0.51100000000E-03 0. -1.
<mgrwt>
<rscale>  0 0.73603065E+02</rscale>
<asrwt>0</asrwt>
<pdfrwt beam="1">  1        1 0.97028237E-02 0.73603065E+02</pdfrwt>
<pdfrwt beam="2">  1       -1 0.33037483E-02 0.73603065E+02</pdfrwt>
<totfact> 0.17401198E+05</totfact>
</mgrwt>
</event>
<event>
 5    1  0.2718303E+000  0.9013756E+02  0.7818608E-02  0.1302519E+00
         -1   -1    0    0    0  501 -0.00000000000E+00  0.00000000000E+00  0.76326566369E+02  0.76326566512E+02  0.46700000000E-02 0.  1.
          1   -1    0    0  501    0  0.00000000000E+00 -0.00000000000E+00 -0.26611899221E+02  0.26611899631E+02  0.46700000000E-02 0. -1.
         23    2    1    2    0    0  0.00000000000E+00  0.00000000000E+00  0.49714667148E+02  0.10293846614E+03  0.90137559775E+02 0.  0.
        -11    1    3    3    0    0  0.10719973882E+02  0.35985340198E+02  0.53323821329E+02  0.65217271260E+02  0.51100000000E-03 0.  1.
         11    1    3    3    0    0 -0.10719973882E+02 -0.35985340198E+02 -0.36091541810E+01  0.37721194883E+02  0.51100000000E-03 0. -1.
<mgrwt>
<rscale>  0 0.90137560E+02</rscale>
<asrwt>0</asrwt>
<pdfrwt beam="2">  1        1 0.40941384E-02 0.90137560E+02</pdfrwt>
<pdfrwt beam="1">  1       -1 0.11742549E-01 0.90137560E+02</pdfrwt>
<totfact> 0.87855391E+04</totfact>
</mgrwt>
</event>
<event>
 5    1  0.2718303E+000  0.9238228E+02  0.7818608E-02  0.1297183E+00
         -1   -1    0    0    0  501 -0.00000000000E+00  0.00000000000E+00  0.75469708237E+01  0.75469722686E+01  0.46700000000E-02 0.  1.
          1   -1    0    0  501    0  0.00000000000E+00 -0.00000000000E+00 -0.28271225619E+03  0.28271225623E+03  0.46700000000E-02 0. -1.
         23    2    1    2    0    0  0.00000000000E+00  0.00000000000E+00 -0.27516528537E+03  0.29025922850E+03  0.92382278913E+02 0.  0.
        -11    1    3    3    0    0 -0.24859074740E+02 -0.34758047160E+02 -0.82484338570E+02  0.92896509886E+02  0.51100000000E-03 0.  1.
         11    1    3    3    0    0  0.24859074740E+02  0.34758047160E+02 -0.19268094680E+03  0.19736271861E+03  0.51100000000E-03 0. -1.
<mgrwt>
<rscale>  0 0.92382279E+02</rscale>
<asrwt>0</asrwt>
<pdfrwt beam="2">  1        1 0.43494185E-01 0.92382279E+02</pdfrwt>
<pdfrwt beam="1">  1       -1 0.11610728E-02 0.92382279E+02</pdfrwt>
<totfact> 0.12230382E+05</totfact>
</mgrwt>
</event>
<event>
 5    1  0.2718303E+000  0.8843602E+02  0.7818608E-02  0.1306684E+00
          1   -1    0    0  501    0  0.00000000000E+00  0.00000000000E+00  0.41013227287E+01  0.41013253875E+01  0.46700000000E-02 0. -1.
         -1   -1    0    0    0  501 -0.00000000000E+00 -0.00000000000E+00 -0.47673195514E+03  0.47673195516E+03  0.46700000000E-02 0.  1.
         23    2    1    2    0    0  0.00000000000E+00  0.00000000000E+00 -0.47263063241E+03  0.48083328055E+03  0.88436016369E+02 0.  0.
        -11    1    3    3    0    0  0.43537946926E+02 -0.63158202011E+01 -0.26050256613E+03  0.26419127421E+03  0.51100000000E-03 0.  1.
         11    1    3    3    0    0 -0.43537946926E+02  0.63158202011E+01 -0.21212806628E+03  0.21664200634E+03  0.51100000000E-03 0. -1.
<mgrwt>
<rscale>  0 0.88436016E+02</rscale>
<asrwt>0</asrwt>
<pdfrwt beam="1">  1        1 0.63097331E-03 0.88436016E+02</pdfrwt>
<pdfrwt beam="2">  1       -1 0.73343334E-01 0.88436016E+02</pdfrwt>
<totfact> 0.52443532E+04</totfact>
</mgrwt>
</event>
<event>
 5    1  0.2718303E+000  0.9091061E+02  0.7818608E-02  0.1300661E+00
          1   -1    0    0  501    0  0.00000000000E+00  0.00000000000E+00  0.92933692495E+01  0.92933704228E+01  0.46700000000E-02 0. -1.
         -1   -1    0    0    0  501 -0.00000000000E+00 -0.00000000000E+00 -0.22232892556E+03  0.22232892561E+03  0.46700000000E-02 0.  1.
         23    2    1    2    0    0  0.00000000000E+00  0.00000000000E+00 -0.21303555631E+03  0.23162229604E+03  0.90910614158E+02 0.  0.
        -11    1    3    3    0    0  0.45124442514E+02 -0.44014711168E+01 -0.98224032645E+02  0.10818294158E+03  0.51100000000E-03 0. -1.
         11    1    3    3    0    0 -0.45124442514E+02  0.44014711168E+01 -0.11481152367E+03  0.12343935445E+03  0.51100000000E-03 0.  1.
<mgrwt>
<rscale>  0 0.90910614E+02</rscale>
<asrwt>0</asrwt>
<pdfrwt beam="1">  1        1 0.14297494E-02 0.90910614E+02</pdfrwt>
<pdfrwt beam="2">  1       -1 0.34204446E-01 0.90910614E+02</pdfrwt>
<totfact> 0.67787622E+04</totfact>
</mgrwt>
</event>
<event>
 5    1  0.2718303E+000  0.8974827E+02  0.7818608E-02  0.1303462E+00
          1   -1    0    0  501    0  0.00000000000E+00  0.00000000000E+00  0.42493044094E+02  0.42493044351E+02  0.46700000000E-02 0. -1.
         -1   -1    0    0    0  501 -0.00000000000E+00 -0.00000000000E+00 -0.47388644240E+02  0.47388644471E+02  0.46700000000E-02 0.  1.
         23    2    1    2    0    0  0.00000000000E+00  0.00000000000E+00 -0.48956001465E+01  0.89881688821E+02  0.89748265078E+02 0.  0.
        -11    1    3    3    0    0  0.83886865074E+01  0.41810732212E+02  0.11543666627E+02  0.44178768983E+02  0.51100000000E-03 0.  1.
         11    1    3    3    0    0 -0.83886865074E+01 -0.41810732212E+02 -0.16439266773E+02  0.45702919838E+02  0.51100000000E-03 0. -1.
<mgrwt>
<rscale>  0 0.89748265E+02</rscale>
<asrwt>0</asrwt>
<pdfrwt beam="1">  1        1 0.65373914E-02 0.89748265E+02</pdfrwt>
<pdfrwt beam="2">  1       -1 0.72905607E-02 0.89748265E+02</pdfrwt>
<totfact> 0.95650101E+04</totfact>
</mgrwt>
</event>
<event>
 5    1  0.2718303E+000  0.9434216E+02  0.7818608E-02  0.1292665E+00
          1   -1    0    0  501    0  0.00000000000E+00  0.00000000000E+00  0.22314718645E+02  0.22314719134E+02  0.46700000000E-02 0. -1.
         -1   -1    0    0    0  501 -0.00000000000E+00 -0.00000000000E+00 -0.99714939548E+02  0.99714939657E+02  0.46700000000E-02 0.  1.
         23    2    1    2    0    0  0.00000000000E+00  0.00000000000E+00 -0.77400220903E+02  0.12202965879E+03  0.94342161459E+02 0.  0.
        -11    1    3    3    0    0  0.64863737823E+01  0.43742890281E+02 -0.59938295180E+02  0.74485654487E+02  0.51100000000E-03 0.  1.
         11    1    3    3    0    0 -0.64863737823E+01 -0.43742890281E+02 -0.17461925723E+02  0.47544004304E+02  0.51100000000E-03 0. -1.
<mgrwt>
<rscale>  0 0.94342161E+02</rscale>
<asrwt>0</asrwt>
<pdfrwt beam="1">  1        1 0.34330337E-02 0.94342161E+02</pdfrwt>
<pdfrwt beam="2">  1       -1 0.15340760E-01 0.94342161E+02</pdfrwt>
<totfact> 0.74555229E+04</totfact>
</mgrwt>
</event>
<event>
 5    1  0.2718303E+000  0.9184256E+02  0.7818608E-02  0.1298450E+00
          1   -1    0    0  501    0  0.00000000000E+00  0.00000000000E+00  0.21753688883E+03  0.21753688888E+03  0.46700000000E-02 0. -1.
         -1   -1    0    0    0  501 -0.00000000000E+00 -0.00000000000E+00 -0.96938223184E+01  0.96938234433E+01  0.46700000000E-02 0.  1.
         23    2    1    2    0    0  0.00000000000E+00  0.00000000000E+00  0.20784306651E+03  0.22723071232E+03  0.91842562715E+02 0.  0.
        -11    1    3    3    0    0 -0.33856904577E+01 -0.39892157469E+02  0.15957121091E+03  0.16451692460E+03  0.51100000000E-03 0. -1.
         11    1    3    3    0    0  0.33856904577E+01  0.39892157469E+02  0.48271855600E+02  0.62713787725E+02  0.51100000000E-03 0.  1.
<mgrwt>
<rscale>  0 0.91842563E+02</rscale>
<asrwt>0</asrwt>
<pdfrwt beam="1">  1        1 0.33467213E-01 0.91842563E+02</pdfrwt>
<pdfrwt beam="2">  1       -1 0.14913574E-02 0.91842563E+02</pdfrwt>
<totfact> 0.11803386E+05</totfact>
</mgrwt>
</event>
<event>
 5    1  0.2718303E+000  0.9238627E+02  0.7818608E-02  0.1297174E+00
         -1   -1    0    0    0  501 -0.00000000000E+00  0.00000000000E+00  0.26619401498E+02  0.26619401908E+02  0.46700000000E-02 0.  1.
          1   -1    0    0  501    0  0.00000000000E+00 -0.00000000000E+00 -0.80159799666E+02  0.80159799802E+02  0.46700000000E-02 0. -1.
         23    2    1    2    0    0  0.00000000000E+00  0.00000000000E+00 -0.53540398168E+02  0.10677920171E+03  0.92386274315E+02 0.  0.
        -11    1    3    3    0    0  0.16577889434E+02 -0.27911123651E+02 -0.64752456682E+02  0.72434369523E+02  0.51100000000E-03 0. -1.
         11    1    3    3    0    0 -0.16577889434E+02  0.27911123651E+02  0.11212058515E+02  0.34344832187E+02  0.51100000000E-03 0.  1.
<mgrwt>
<rscale>  0 0.92386274E+02</rscale>
<asrwt>0</asrwt>
<pdfrwt beam="2">  1        1 0.12332277E-01 0.92386274E+02</pdfrwt>
<pdfrwt beam="1">  1       -1 0.40952926E-02 0.92386274E+02</pdfrwt>
<totfact> 0.97189732E+04</totfact>
</mgrwt>
</event>
<event>
 5    1  0.2718303E+000  0.9187215E+02  0.7818608E-02  0.1298380E+00
         -1   -1    0    0    0  501 -0.00000000000E+00  0.00000000000E+00  0.24127773263E+03  0.24127773268E+03  0.46700000000E-02 0.  1.
          1   -1    0    0  501    0  0.00000000000E+00 -0.00000000000E+00 -0.87456186040E+01  0.87456198509E+01  0.46700000000E-02 0. -1.
         23    2    1    2    0    0  0.00000000000E+00  0.00000000000E+00  0.23253211403E+03  0.25002335253E+03  0.91872154405E+02 0.  0.
        -11    1    3    3    0    0 -0.28181015045E+02  0.26382728278E+02  0.18402386115E+03  0.18802925153E+03  0.51100000000E-03 0.  1.
         11    1    3    3    0    0  0.28181015045E+02 -0.26382728278E+02  0.48508252881E+02  0.61994100995E+02  0.51100000000E-03 0. -1.
<mgrwt>
<rscale>  0 0.91872154E+02</rscale>
<asrwt>0</asrwt>
<pdfrwt beam="2">  1        1 0.13454800E-02 0.91872154E+02</pdfrwt>
<pdfrwt beam="1">  1       -1 0.37119647E-01 0.91872154E+02</pdfrwt>
<totfact> 0.64249990E+04</totfact>
</mgrwt>
</event>
<event>
 5    1  0.2718303E+000  0.9172586E+02  0.7818608E-02  0.1298725E+00
         -1   -1    0    0    0  501 -0.00000000000E+00  0.00000000000E+00  0.53435927443E+02  0.53435927647E+02  0.46700000000E-02 0.  1.
          1   -1    0    0  501    0  0.00000000000E+00 -0.00000000000E+00 -0.39363186940E+02  0.39363187217E+02  0.46700000000E-02 0. -1.
         23    2    1    2    0    0  0.00000000000E+00  0.00000000000E+00  0.14072740503E+02  0.92799114865E+02  0.91725861644E+02 0.  0.
        -11    1    3    3    0    0  0.31528909804E+02  0.26503783979E+02 -0.13371056658E+02  0.43304825078E+02  0.51100000000E-03 0. -1.
         11    1    3    3    0    0 -0.31528909804E+02 -0.26503783979E+02  0.27443797160E+02  0.49494289787E+02  0.51100000000E-03 0.  1.
<mgrwt>
<rscale>  0 0.91725862E+02</rscale>
<asrwt>0</asrwt>
<pdfrwt beam="2">  1        1 0.60558750E-02 0.91725862E+02</pdfrwt>
<pdfrwt beam="1">  1       -1 0.82209120E-02 0.91725862E+02</pdfrwt>
<totfact> 0.88918269E+04</totfact>
</mgrwt>
</event>
<event>
 5    1  0.2718303E+000  0.9254305E+02  0.7818608E-02  0.1296808E+00
          1   -1    0    0  501    0  0.00000000000E+00  0.00000000000E+00  0.26986061568E+02  0.26986061972E+02  0.46700000000E-02 0. -1.
         -1   -1    0    0    0  501 -0.00000000000E+00 -0.00000000000E+00 -0.79339247045E+02  0.79339247182E+02  0.46700000000E-02 0.  1.
         23    2    1    2    0    0  0.00000000000E+00  0.00000000000E+00 -0.52353185477E+02  0.10632530915E+03  0.92543045860E+02 0.  0.
        -11    1    3    3    0    0  0.45198391438E+01 -0.46030208282E+02 -0.24616073542E+02  0.52394275425E+02  0.51100000000E-03 0. -1.
         11    1    3    3    0    0 -0.45198391438E+01  0.46030208282E+02 -0.27737111935E+02  0.53931033729E+02  0.51100000000E-03 0.  1.
<mgrwt>
<rscale>  0 0.92543046E+02</rscale>
<asrwt>0</asrwt>
<pdfrwt beam="1">  1        1 0.41517019E-02 0.92543046E+02</pdfrwt>
<pdfrwt beam="2">  1       -1 0.12206038E-01 0.92543046E+02</pdfrwt>
<totfact> 0.81599656E+04</totfact>
</mgrwt>
</event>
<event>
 5    1  0.2718303E+000  0.9295458E+02  0.7818608E-02  0.1295850E+00
          1   -1    0    0  501    0  0.00000000000E+00  0.00000000000E+00  0.36355691344E+02  0.36355691644E+02  0.46700000000E-02 0. -1.
         -1   -1    0    0    0  501 -0.00000000000E+00 -0.00000000000E+00 -0.59416792777E+02  0.59416792960E+02  0.46700000000E-02 0.  1.
         23    2    1    2    0    0  0.00000000000E+00  0.00000000000E+00 -0.23061101432E+02  0.95772484604E+02  0.92954582501E+02 0.  0.
        -11    1    3    3    0    0 -0.17287751796E+02  0.34116933090E+02  0.15676533342E+02  0.41335035787E+02  0.51100000000E-03 0. -1.
         11    1    3    3    0    0  0.17287751796E+02 -0.34116933090E+02 -0.38737634774E+02  0.54437448818E+02  0.51100000000E-03 0.  1.
<mgrwt>
<rscale>  0 0.92954583E+02</rscale>
<asrwt>0</asrwt>
<pdfrwt beam="1">  1        1 0.55931833E-02 0.92954583E+02</pdfrwt>
<pdfrwt beam="2">  1       -1 0.91410451E-02 0.92954583E+02</pdfrwt>
<totfact> 0.84569053E+04</totfact>
</mgrwt>
</event>
<event>
 5    1  0.2718303E+000  0.8897012E+02  0.7818608E-02  0.1305365E+00
          1   -1    0    0  501    0  0.00000000000E+00  0.00000000000E+00  0.22510620596E+02  0.22510621081E+02  0.46700000000E-02 0. -1.
         -1   -1    0    0    0  501 -0.00000000000E+00 -0.00000000000E+00 -0.87910525151E+02  0.87910525275E+02  0.46700000000E-02 0.  1.
         23    2    1    2    0    0  0.00000000000E+00  0.00000000000E+00 -0.65399904555E+02  0.11042114636E+03  0.88970118842E+02 0.  0.
        -11    1    3    3    0    0 -0.25122021108E+02  0.17522309960E+02  0.73393163065E+01  0.31496235569E+02  0.51100000000E-03 0. -1.
         11    1    3    3    0    0  0.25122021108E+02 -0.17522309960E+02 -0.72739220862E+02  0.78924910787E+02  0.51100000000E-03 0.  1.
<mgrwt>
<rscale>  0 0.88970119E+02</rscale>
<asrwt>0</asrwt>
<pdfrwt beam="1">  1        1 0.34631725E-02 0.88970119E+02</pdfrwt>
<pdfrwt beam="2">  1       -1 0.13524696E-01 0.88970119E+02</pdfrwt>
<totfact> 0.88685544E+04</totfact>
</mgrwt>
</event>
<event>
 5    1  0.2718303E+000  0.9031341E+02  0.7818608E-02  0.1302095E+00
          1   -1    0    0  501    0  0.00000000000E+00  0.00000000000E+00  0.19571435383E+03  0.19571435388E+03  0.46700000000E-02 0. -1.
         -1   -1    0    0    0  501 -0.00000000000E+00 -0.00000000000E+00 -0.10418897226E+02  0.10418898273E+02  0.46700000000E-02 0.  1.
         23    2    1    2    0    0  0.00000000000E+00  0.00000000000E+00  0.18529545660E+03  0.20613325216E+03  0.90313406575E+02 0.  0.
        -11    1    3    3    0    0  0.41538061038E+02 -0.16022542253E+02  0.75416508371E+02  0.87577292206E+02  0.51100000000E-03 0. -1.
         11    1    3    3    0    0 -0.41538061038E+02  0.16022542253E+02  0.10987894823E+03  0.11855595995E+03  0.51100000000E-03 0.  1.
<mgrwt>
<rscale>  0 0.90313407E+02</rscale>
<asrwt>0</asrwt>
<pdfrwt beam="1">  1        1 0.30109901E-01 0.90313407E+02</pdfrwt>
<pdfrwt beam="2">  1       -1 0.16029073E-02 0.90313407E+02</pdfrwt>
<totfact> 0.12095569E+05</totfact>
</mgrwt>
</event>
<event>
 5    1  0.2718303E+000  0.9564718E+02  0.7818608E-02  0.1289725E+00
          1   -1    0    0  501    0  0.00000000000E+00  0.00000000000E+00  0.18293033893E+02  0.18293034489E+02  0.46700000000E-02 0. -1.
         -1   -1    0    0    0  501 -0.00000000000E+00 -0.00000000000E+00 -0.12502550218E+03  0.12502550227E+03  0.46700000000E-02 0.  1.
         23    2    1    2    0    0  0.00000000000E+00  0.00000000000E+00 -0.10673246829E+03  0.14331853676E+03  0.95647180781E+02 0.  0.
        -11    1    3    3    0    0 -0.23275004775E+01  0.46194452284E+02 -0.71579825091E+02  0.85223330377E+02  0.51100000000E-03 0.  1.
         11    1    3    3    0    0  0.23275004775E+01 -0.46194452284E+02 -0.35152643195E+02  0.58095206378E+02  0.51100000000E-03 0. -1.
<mgrwt>
<rscale>  0 0.95647181E+02</rscale>
<asrwt>0</asrwt>
<pdfrwt beam="1">  1        1 0.28143130E-02 0.95647181E+02</pdfrwt>
<pdfrwt beam="2">  1       -1 0.19234692E-01 0.95647181E+02</pdfrwt>
<totfact> 0.68781332E+04</totfact>
</mgrwt>
</event>
<event>
 5    1  0.2718303E+000  0.9197603E+02  0.7818608E-02  0.1298136E+00
         -1   -1    0    0    0  501 -0.00000000000E+00  0.00000000000E+00  0.14426091696E+02  0.14426092452E+02  0.46700000000E-02 0.  1.
          1   -1    0    0  501    0  0.00000000000E+00 -0.00000000000E+00 -0.14660223631E+03  0.14660223638E+03  0.46700000000E-02 0. -1.
         23    2    1    2    0    0  0.00000000000E+00  0.00000000000E+00 -0.13217614461E+03  0.16102832883E+03  0.91976026674E+02 0.  0.
        -11    1    3    3    0    0 -0.25675442489E+02 -0.19796457665E+02 -0.89860663217E+01  0.33643386740E+02  0.51100000000E-03 0.  1.
         11    1    3    3    0    0  0.25675442489E+02  0.19796457665E+02 -0.12319007829E+03  0.12738494209E+03  0.51100000000E-03 0. -1.
<mgrwt>
<rscale>  0 0.91976027E+02</rscale>
<asrwt>0</asrwt>
<pdfrwt beam="2">  1        1 0.22554189E-01 0.91976027E+02</pdfrwt>
<pdfrwt beam="1">  1       -1 0.22193989E-02 0.91976027E+02</pdfrwt>
<totfact> 0.10905942E+05</totfact>
</mgrwt>
</event>
<event>
 5    1  0.2718303E+000  0.7796954E+02  0.7818608E-02  0.1334914E+00
         -1   -1    0    0    0  501 -0.00000000000E+00  0.00000000000E+00  0.99924231765E+02  0.99924231874E+02  0.46700000000E-02 0.  1.
          1   -1    0    0  501    0  0.00000000000E+00 -0.00000000000E+00 -0.15209648208E+02  0.15209648925E+02  0.46700000000E-02 0. -1.
         23    2    1    2    0    0  0.00000000000E+00  0.00000000000E+00  0.84714583557E+02  0.11513388080E+03  0.77969544315E+02 0.  0.
        -11    1    3    3    0    0  0.37036320386E+02  0.30020804198E+01  0.24940875417E+02  0.44752081308E+02  0.51100000000E-03 0. -1.
         11    1    3    3    0    0 -0.37036320386E+02 -0.30020804198E+01  0.59773708140E+02  0.70381799492E+02  0.51100000000E-03 0.  1.
<mgrwt>
<rscale>  0 0.77969544E+02</rscale>
<asrwt>0</asrwt>
<pdfrwt beam="2">  1        1 0.23399459E-02 0.77969544E+02</pdfrwt>
<pdfrwt beam="1">  1       -1 0.15372959E-01 0.77969544E+02</pdfrwt>
<totfact> 0.12159489E+05</totfact>
</mgrwt>
</event>
<event>
 5    1  0.2718303E+000  0.9048853E+02  0.7818608E-02  0.1301673E+00
          1   -1    0    0  501    0  0.00000000000E+00  0.00000000000E+00  0.62724550244E+01  0.62724567629E+01  0.46700000000E-02 0. -1.
         -1   -1    0    0    0  501 -0.00000000000E+00 -0.00000000000E+00 -0.32635440831E+03  0.32635440834E+03  0.46700000000E-02 0.  1.
         23    2    1    2    0    0  0.00000000000E+00  0.00000000000E+00 -0.32008195329E+03  0.33262686511E+03  0.90488532817E+02 0.  0.
        -11    1    3    3    0    0 -0.44356410541E+02  0.84867882693E+01 -0.17012589015E+03  0.17601799689E+03  0.51100000000E-03 0.  1.
         11    1    3    3    0    0  0.44356410541E+02 -0.84867882693E+01 -0.14995606314E+03  0.15660886822E+03  0.51100000000E-03 0. -1.
<mgrwt>
<rscale>  0 0.90488533E+02</rscale>
<asrwt>0</asrwt>
<pdfrwt beam="1">  1        1 0.96499347E-03 0.90488533E+02</pdfrwt>
<pdfrwt beam="2">  1       -1 0.50208357E-01 0.90488533E+02</pdfrwt>
<totfact> 0.59713258E+04</totfact>
</mgrwt>
</event>
<event>
 5    1  0.2718303E+000  0.9185350E+02  0.7818608E-02  0.1298424E+00
          1   -1    0    0  501    0  0.00000000000E+00  0.00000000000E+00  0.32701382181E+03  0.32701382184E+03  0.46700000000E-02 0. -1.
         -1   -1    0    0    0  501 -0.00000000000E+00 -0.00000000000E+00 -0.64500828663E+01  0.64500845569E+01  0.46700000000E-02 0.  1.
         23    2    1    2    0    0  0.00000000000E+00  0.00000000000E+00  0.32056373894E+03  0.33346390640E+03  0.91853503723E+02 0.  0.
        -11    1    3    3    0    0  0.25542848820E+02  0.37167648619E+02  0.12875903495E+03  0.13642859052E+03  0.51100000000E-03 0. -1.
         11    1    3    3    0    0 -0.25542848820E+02 -0.37167648619E+02  0.19180470399E+03  0.19703531588E+03  0.51100000000E-03 0.  1.
<mgrwt>
<rscale>  0 0.91853504E+02</rscale>
<asrwt>0</asrwt>
<pdfrwt beam="1">  1        1 0.50309828E-01 0.91853504E+02</pdfrwt>
<pdfrwt beam="2">  1       -1 0.99232038E-03 0.91853504E+02</pdfrwt>
<totfact> 0.12767449E+05</totfact>
</mgrwt>
</event>
<event>
 5    1  0.2718303E+000  0.9349516E+02  0.7818608E-02  0.1294602E+00
         -1   -1    0    0    0  501 -0.00000000000E+00  0.00000000000E+00  0.60132556007E+02  0.60132556188E+02  0.46700000000E-02 0.  1.
          1   -1    0    0  501    0  0.00000000000E+00 -0.00000000000E+00 -0.36341981159E+02  0.36341981459E+02  0.46700000000E-02 0. -1.
         23    2    1    2    0    0  0.00000000000E+00  0.00000000000E+00  0.23790574848E+02  0.96474537647E+02  0.93495160102E+02 0.  0.
        -11    1    3    3    0    0  0.33984623215E+02 -0.31690465982E+02  0.66240755285E+01  0.46937390491E+02  0.51100000000E-03 0.  1.
         11    1    3    3    0    0 -0.33984623215E+02  0.31690465982E+02  0.17166499320E+02  0.49537147156E+02  0.51100000000E-03 0. -1.
<mgrwt>
<rscale>  0 0.93495160E+02</rscale>
<asrwt>0</asrwt>
<pdfrwt beam="2">  1        1 0.55910741E-02 0.93495160E+02</pdfrwt>
<pdfrwt beam="1">  1       -1 0.92511625E-02 0.93495160E+02</pdfrwt>
<totfact> 0.83176474E+04</totfact>
</mgrwt>
</event>
<event>
 5    1  0.2718303E+000  0.9265122E+02  0.7818608E-02  0.1296555E+00
         -1   -1    0    0    0  501 -0.00000000000E+00  0.00000000000E+00  0.54543036874E+02  0.54543037074E+02  0.46700000000E-02 0.  1.
          1   -1    0    0  501    0  0.00000000000E+00 -0.00000000000E+00 -0.39346217628E+02  0.39346217905E+02  0.46700000000E-02 0. -1.
         23    2    1    2    0    0  0.00000000000E+00  0.00000000000E+00  0.15196819246E+02  0.93889254978E+02  0.92651221715E+02 0.  0.
        -11    1    3    3    0    0  0.20445706786E+01  0.33267249389E+02  0.40202419452E+02  0.52221879334E+02  0.51100000000E-03 0.  1.
         11    1    3    3    0    0 -0.20445706786E+01 -0.33267249389E+02 -0.25005600206E+02  0.41667375644E+02  0.51100000000E-03 0. -1.
<mgrwt>
<rscale>  0 0.92651222E+02</rscale>
<asrwt>0</asrwt>
<pdfrwt beam="2">  1        1 0.60532643E-02 0.92651222E+02</pdfrwt>
<pdfrwt beam="1">  1       -1 0.83912365E-02 0.92651222E+02</pdfrwt>
<totfact> 0.86417693E+04</totfact>
</mgrwt>
</event>
<event>
 5    1  0.2718303E+000  0.9041308E+02  0.7818608E-02  0.1301854E+00
         -1   -1    0    0    0  501 -0.00000000000E+00  0.00000000000E+00  0.14820321699E+03  0.14820321707E+03  0.46700000000E-02 0.  1.
          1   -1    0    0  501    0  0.00000000000E+00 -0.00000000000E+00 -0.13789384761E+02  0.13789385552E+02  0.46700000000E-02 0. -1.
         23    2    1    2    0    0  0.00000000000E+00  0.00000000000E+00  0.13441383223E+03  0.16199260262E+03  0.90413079848E+02 0.  0.
        -11    1    3    3    0    0  0.15225500059E+02  0.40799749298E+02  0.45469310133E+02  0.62959459647E+02  0.51100000000E-03 0.  1.
         11    1    3    3    0    0 -0.15225500059E+02 -0.40799749298E+02  0.88944522099E+02  0.99033142970E+02  0.51100000000E-03 0. -1.
<mgrwt>
<rscale>  0 0.90413080E+02</rscale>
<asrwt>0</asrwt>
<pdfrwt beam="2">  1        1 0.21214439E-02 0.90413080E+02</pdfrwt>
<pdfrwt beam="1">  1       -1 0.22800495E-01 0.90413080E+02</pdfrwt>
<totfact> 0.76652832E+04</totfact>
</mgrwt>
</event>
<event>
 5    1  0.2718303E+000  0.9056527E+02  0.7818608E-02  0.1301489E+00
         -1   -1    0    0    0  501 -0.00000000000E+00  0.00000000000E+00  0.15967275610E+02  0.15967276293E+02  0.46700000000E-02 0.  1.
          1   -1    0    0  501    0  0.00000000000E+00 -0.00000000000E+00 -0.12841996681E+03  0.12841996689E+03  0.46700000000E-02 0. -1.
         23    2    1    2    0    0  0.00000000000E+00  0.00000000000E+00 -0.11245269120E+03  0.14438724318E+03  0.90565270589E+02 0.  0.
        -11    1    3    3    0    0  0.25090383329E+02  0.35492815995E+02 -0.76471292482E+02  0.87960933925E+02  0.51100000000E-03 0. -1.
         11    1    3    3    0    0 -0.25090383329E+02 -0.35492815995E+02 -0.35981398715E+02  0.56426309259E+02  0.51100000000E-03 0.  1.
<mgrwt>
<rscale>  0 0.90565271E+02</rscale>
<asrwt>0</asrwt>
<pdfrwt beam="2">  1        1 0.19756917E-01 0.90565271E+02</pdfrwt>
<pdfrwt beam="1">  1       -1 0.24565041E-02 0.90565271E+02</pdfrwt>
<totfact> 0.11103326E+05</totfact>
</mgrwt>
</event>
<event>
 5    1  0.2718303E+000  0.9028438E+02  0.7818608E-02  0.1302164E+00
         -1   -1    0    0    0  501 -0.00000000000E+00  0.00000000000E+00  0.99584455349E+02  0.99584455458E+02  0.46700000000E-02 0.  1.
          1   -1    0    0  501    0  0.00000000000E+00 -0.00000000000E+00 -0.20463207556E+02  0.20463208089E+02  0.46700000000E-02 0. -1.
         23    2    1    2    0    0  0.00000000000E+00  0.00000000000E+00  0.79121247793E+02  0.12004766355E+03  0.90284382209E+02 0.  0.
        -11    1    3    3    0    0 -0.21312948677E+02 -0.16836658863E+02  0.87504140634E+02  0.91622538119E+02  0.51100000000E-03 0.  1.
         11    1    3    3    0    0  0.21312948677E+02  0.16836658863E+02 -0.83828928405E+01  0.28425125429E+02  0.51100000000E-03 0. -1.
<mgrwt>
<rscale>  0 0.90284382E+02</rscale>
<asrwt>0</asrwt>
<pdfrwt beam="2">  1        1 0.31481858E-02 0.90284382E+02</pdfrwt>
<pdfrwt beam="1">  1       -1 0.15320686E-01 0.90284382E+02</pdfrwt>
<totfact> 0.83520593E+04</totfact>
</mgrwt>
</event>
<event>
 5    1  0.2718303E+000  0.9159488E+02  0.7818608E-02  0.1299035E+00
          1   -1    0    0  501    0  0.00000000000E+00  0.00000000000E+00  0.80414903518E+02  0.80414903654E+02  0.46700000000E-02 0. -1.
         -1   -1    0    0    0  501 -0.00000000000E+00 -0.00000000000E+00 -0.26082299535E+02  0.26082299953E+02  0.46700000000E-02 0.  1.
         23    2    1    2    0    0  0.00000000000E+00  0.00000000000E+00  0.54332603983E+02  0.10649720361E+03  0.91594882610E+02 0.  0.
        -11    1    3    3    0    0 -0.19061141515E+02 -0.80871377165E+01 -0.20329267246E+02  0.29017374438E+02  0.51100000000E-03 0.  1.
         11    1    3    3    0    0  0.19061141515E+02  0.80871377165E+01  0.74661871229E+02  0.77479829168E+02  0.51100000000E-03 0. -1.
<mgrwt>
<rscale>  0 0.91594883E+02</rscale>
<asrwt>0</asrwt>
<pdfrwt beam="1">  1        1 0.12371523E-01 0.91594883E+02</pdfrwt>
<pdfrwt beam="2">  1       -1 0.40126616E-02 0.91594883E+02</pdfrwt>
<totfact> 0.99567034E+04</totfact>
</mgrwt>
</event>
<event>
 5    1  0.2718303E+000  0.8795754E+02  0.7818608E-02  0.1307875E+00
          1   -1    0    0  501    0  0.00000000000E+00  0.00000000000E+00  0.51614641968E+02  0.51614642180E+02  0.46700000000E-02 0. -1.
         -1   -1    0    0    0  501 -0.00000000000E+00 -0.00000000000E+00 -0.37472546669E+02  0.37472546960E+02  0.46700000000E-02 0.  1.
         23    2    1    2    0    0  0.00000000000E+00  0.00000000000E+00  0.14142095300E+02  0.89087189139E+02  0.87957537535E+02 0.  0.
        -11    1    3    3    0    0  0.14032416990E+02 -0.11737956827E+02  0.47577730438E+02  0.50973804949E+02  0.51100000000E-03 0. -1.
         11    1    3    3    0    0 -0.14032416990E+02  0.11737956827E+02 -0.33435635139E+02  0.38113384190E+02  0.51100000000E-03 0.  1.
<mgrwt>
<rscale>  0 0.87957538E+02</rscale>
<asrwt>0</asrwt>
<pdfrwt beam="1">  1        1 0.79407142E-02 0.87957538E+02</pdfrwt>
<pdfrwt beam="2">  1       -1 0.57650072E-02 0.87957538E+02</pdfrwt>
<totfact> 0.10411659E+05</totfact>
</mgrwt>
</event>
<event>
 5    1  0.2718303E+000  0.9103769E+02  0.7818608E-02  0.1300358E+00
          1   -1    0    0  501    0  0.00000000000E+00  0.00000000000E+00  0.25011727421E+03  0.25011727425E+03  0.46700000000E-02 0. -1.
         -1   -1    0    0    0  501 -0.00000000000E+00 -0.00000000000E+00 -0.82839750353E+01  0.82839763516E+01  0.46700000000E-02 0.  1.
         23    2    1    2    0    0  0.00000000000E+00  0.00000000000E+00  0.24183329917E+03  0.25840125060E+03  0.91037693976E+02 0.  0.
        -11    1    3    3    0    0  0.43527503604E+02  0.11939062187E+02  0.13765614030E+03  0.14486682760E+03  0.51100000000E-03 0.  1.
         11    1    3    3    0    0 -0.43527503604E+02 -0.11939062187E+02  0.10417715887E+03  0.11353442300E+03  0.51100000000E-03 0. -1.
<mgrwt>
<rscale>  0 0.91037694E+02</rscale>
<asrwt>0</asrwt>
<pdfrwt beam="1">  1        1 0.38479585E-01 0.91037694E+02</pdfrwt>
<pdfrwt beam="2">  1       -1 0.12744577E-02 0.91037694E+02</pdfrwt>
<totfact> 0.12418727E+05</totfact>
</mgrwt>
</event>
<event>
 5    1  0.2718303E+000  0.8955058E+02  0.7818608E-02  0.1303944E+00
         -1   -1    0    0    0  501 -0.00000000000E+00  0.00000000000E+00  0.95811245591E+01  0.95811256972E+01  0.46700000000E-02 0.  1.
          1   -1    0    0  501    0  0.00000000000E+00 -0.00000000000E+00 -0.20924753338E+03  0.20924753343E+03  0.46700000000E-02 0. -1.
         23    2    1    2    0    0  0.00000000000E+00  0.00000000000E+00 -0.19966640882E+03  0.21882865913E+03  0.89550584839E+02 0.  0.
        -11    1    3    3    0    0 -0.35396323656E+02 -0.25827615013E+02 -0.77322409490E+02  0.88874745767E+02  0.51100000000E-03 0.  1.
         11    1    3    3    0    0  0.35396323656E+02  0.25827615013E+02 -0.12234399933E+03  0.12995391336E+03  0.51100000000E-03 0. -1.
<mgrwt>
<rscale>  0 0.89550585E+02</rscale>
<asrwt>0</asrwt>
<pdfrwt beam="2">  1        1 0.32191925E-01 0.89550585E+02</pdfrwt>
<pdfrwt beam="1">  1       -1 0.14740194E-02 0.89550585E+02</pdfrwt>
<totfact> 0.12534286E+05</totfact>
</mgrwt>
</event>
<event>
 5    1  0.2718303E+000  0.9125176E+02  0.7818608E-02  0.1299848E+00
         -1   -1    0    0    0  501 -0.00000000000E+00  0.00000000000E+00  0.67145871190E+02  0.67145871352E+02  0.46700000000E-02 0.  1.
          1   -1    0    0  501    0  0.00000000000E+00 -0.00000000000E+00 -0.31002961218E+02  0.31002961570E+02  0.46700000000E-02 0. -1.
         23    2    1    2    0    0  0.00000000000E+00  0.00000000000E+00  0.36142909972E+02  0.98148832922E+02  0.91251758683E+02 0.  0.
        -11    1    3    3    0    0  0.15659183773E+02  0.30276388444E+02  0.50692860580E+02  0.61087116871E+02  0.51100000000E-03 0.  1.
         11    1    3    3    0    0 -0.15659183773E+02 -0.30276388444E+02 -0.14549950608E+02  0.37061716051E+02  0.51100000000E-03 0. -1.
<mgrwt>
<rscale>  0 0.91251759E+02</rscale>
<asrwt>0</asrwt>
<pdfrwt beam="2">  1        1 0.47696865E-02 0.91251759E+02</pdfrwt>
<pdfrwt beam="1">  1       -1 0.10330134E-01 0.91251759E+02</pdfrwt>
<totfact> 0.86938382E+04</totfact>
</mgrwt>
</event>
<event>
 5    1  0.2718303E+000  0.8950256E+02  0.7818608E-02  0.1304061E+00
         -1   -1    0    0    0  501 -0.00000000000E+00  0.00000000000E+00  0.15371177920E+02  0.15371178629E+02  0.46700000000E-02 0.  1.
          1   -1    0    0  501    0  0.00000000000E+00 -0.00000000000E+00 -0.13028780328E+03  0.13028780337E+03  0.46700000000E-02 0. -1.
         23    2    1    2    0    0  0.00000000000E+00  0.00000000000E+00 -0.11491662537E+03  0.14565898200E+03  0.89502560026E+02 0.  0.
        -11    1    3    3    0    0 -0.13908861602E+02 -0.40095246418E+02 -0.34351593101E+02  0.54599607739E+02  0.51100000000E-03 0. -1.
         11    1    3    3    0    0  0.13908861602E+02  0.40095246418E+02 -0.80565032264E+02  0.91059374259E+02  0.51100000000E-03 0.  1.
<mgrwt>
<rscale>  0 0.89502560E+02</rscale>
<asrwt>0</asrwt>
<pdfrwt beam="2">  1        1 0.20044277E-01 0.89502560E+02</pdfrwt>
<pdfrwt beam="1">  1       -1 0.23647968E-02 0.89502560E+02</pdfrwt>
<totfact> 0.11492267E+05</totfact>
</mgrwt>
</event>
<event>
 5    1  0.2718303E+000  0.8672289E+02  0.7818608E-02  0.1310987E+00
          1   -1    0    0  501    0  0.00000000000E+00  0.00000000000E+00  0.26600863761E+02  0.26600864171E+02  0.46700000000E-02 0. -1.
         -1   -1    0    0    0  501 -0.00000000000E+00 -0.00000000000E+00 -0.70682482922E+02  0.70682483076E+02  0.46700000000E-02 0.  1.
         23    2    1    2    0    0  0.00000000000E+00  0.00000000000E+00 -0.44081619161E+02  0.97283347247E+02  0.86722894922E+02 0.  0.
        -11    1    3    3    0    0  0.26165745221E+02 -0.16200116600E+02  0.12226079586E+02  0.33114453387E+02  0.51100000000E-03 0. -1.
         11    1    3    3    0    0 -0.26165745221E+02  0.16200116600E+02 -0.56307698747E+02  0.64168893860E+02  0.51100000000E-03 0.  1.
<mgrwt>
<rscale>  0 0.86722895E+02</rscale>
<asrwt>0</asrwt>
<pdfrwt beam="1">  1        1 0.40924407E-02 0.86722895E+02</pdfrwt>
<pdfrwt beam="2">  1       -1 0.10874228E-01 0.86722895E+02</pdfrwt>
<totfact> 0.98157863E+04</totfact>
</mgrwt>
</event>
<event>
 5    1  0.2718303E+000  0.9094205E+02  0.7818608E-02  0.1300586E+00
         -1   -1    0    0    0  501 -0.00000000000E+00  0.00000000000E+00  0.23943125757E+02  0.23943126212E+02  0.46700000000E-02 0.  1.
          1   -1    0    0  501    0  0.00000000000E+00 -0.00000000000E+00 -0.86355229732E+02  0.86355229859E+02  0.46700000000E-02 0. -1.
         23    2    1    2    0    0  0.00000000000E+00  0.00000000000E+00 -0.62412103975E+02  0.11029835607E+03  0.90942050941E+02 0.  0.
        -11    1    3    3    0    0  0.40546077123E+02  0.19405086813E+02 -0.39527280196E+02  0.59857728359E+02  0.51100000000E-03 0.  1.
         11    1    3    3    0    0 -0.40546077123E+02 -0.19405086813E+02 -0.22884823779E+02  0.50440627712E+02  0.51100000000E-03 0. -1.
<mgrwt>
<rscale>  0 0.90942051E+02</rscale>
<asrwt>0</asrwt>
<pdfrwt beam="2">  1        1 0.13285420E-01 0.90942051E+02</pdfrwt>
<pdfrwt beam="1">  1       -1 0.36835579E-02 0.90942051E+02</pdfrwt>
<totfact> 0.10270018E+05</totfact>
</mgrwt>
</event>
<event>
 5    1  0.2718303E+000  0.1109150E+03  0.7818608E-02  0.1258885E+00
          1   -1    0    0  501    0  0.00000000000E+00  0.00000000000E+00  0.15170223893E+02  0.15170224612E+02  0.46700000000E-02 0. -1.
         -1   -1    0    0    0  501 -0.00000000000E+00 -0.00000000000E+00 -0.20273483475E+03  0.20273483481E+03  0.46700000000E-02 0.  1.
         23    2    1    2    0    0  0.00000000000E+00  0.00000000000E+00 -0.18756461086E+03  0.21790505942E+03  0.11091497497E+03 0.  0.
        -11    1    3    3    0    0 -0.65724681553E+00  0.38183756149E+02 -0.14778902749E+02  0.40949324460E+02  0.51100000000E-03 0. -1.
         11    1    3    3    0    0  0.65724681553E+00 -0.38183756149E+02 -0.17278570811E+03  0.17695573496E+03  0.51100000000E-03 0.  1.
<mgrwt>
<rscale>  0 0.11091497E+03</rscale>
<asrwt>0</asrwt>
<pdfrwt beam="1">  1        1 0.23338808E-02 0.11091497E+03</pdfrwt>
<pdfrwt beam="2">  1       -1 0.31189973E-01 0.11091497E+03</pdfrwt>
<totfact> 0.41382105E+04</totfact>
</mgrwt>
</event>
<event>
 5    1  0.2718303E+000  0.9081799E+02  0.7818608E-02  0.1300883E+00
         -1   -1    0    0    0  501 -0.00000000000E+00  0.00000000000E+00  0.52462956187E+01  0.52462976972E+01  0.46700000000E-02 0. -1.
          1   -1    0    0  501    0  0.00000000000E+00 -0.00000000000E+00 -0.39303472071E+03  0.39303472074E+03  0.46700000000E-02 0.  1.
         23    2    1    2    0    0  0.00000000000E+00  0.00000000000E+00 -0.38778842509E+03  0.39828101844E+03  0.90817988366E+02 0.  0.
        -11    1    3    3    0    0 -0.41926102143E+02 -0.98303832253E+01 -0.25707296120E+03  0.26065483279E+03  0.51100000000E-03 0.  1.
         11    1    3    3    0    0  0.41926102143E+02  0.98303832253E+01 -0.13071546389E+03  0.13762618565E+03  0.51100000000E-03 0. -1.
<mgrwt>
<rscale>  0 0.90817988E+02</rscale>
<asrwt>0</asrwt>
<pdfrwt beam="2">  1        1 0.60466857E-01 0.90817988E+02</pdfrwt>
<pdfrwt beam="1">  1       -1 0.80712288E-03 0.90817988E+02</pdfrwt>
<totfact> 0.13591664E+05</totfact>
</mgrwt>
</event>
<event>
 5    1  0.2718303E+000  0.9374525E+02  0.7818608E-02  0.1294027E+00
         -1   -1    0    0    0  501 -0.00000000000E+00  0.00000000000E+00  0.38307531765E+02  0.38307532049E+02  0.46700000000E-02 0.  1.
          1   -1    0    0  501    0  0.00000000000E+00 -0.00000000000E+00 -0.57352771315E+02  0.57352771505E+02  0.46700000000E-02 0. -1.
         23    2    1    2    0    0  0.00000000000E+00  0.00000000000E+00 -0.19045239551E+02  0.95660303555E+02  0.93745253355E+02 0.  0.
        -11    1    3    3    0    0  0.16432918851E+02  0.16599302528E+02  0.31945774173E+02  0.39574109645E+02  0.51100000000E-03 0.  1.
         11    1    3    3    0    0 -0.16432918851E+02 -0.16599302528E+02 -0.50991013724E+02  0.56086193910E+02  0.51100000000E-03 0. -1.
<mgrwt>
<rscale>  0 0.93745253E+02</rscale>
<asrwt>0</asrwt>
<pdfrwt beam="2">  1        1 0.88235033E-02 0.93745253E+02</pdfrwt>
<pdfrwt beam="1">  1       -1 0.58934665E-02 0.93745253E+02</pdfrwt>
<totfact> 0.88585111E+04</totfact>
</mgrwt>
</event>
<event>
 5    1  0.2718303E+000  0.9107462E+02  0.7818608E-02  0.1300270E+00
          1   -1    0    0  501    0  0.00000000000E+00  0.00000000000E+00  0.57150244647E+02  0.57150244838E+02  0.46700000000E-02 0. -1.
         -1   -1    0    0    0  501 -0.00000000000E+00 -0.00000000000E+00 -0.36284127425E+02  0.36284127726E+02  0.46700000000E-02 0.  1.
         23    2    1    2    0    0  0.00000000000E+00  0.00000000000E+00  0.20866117222E+02  0.93434372564E+02  0.91074623955E+02 0.  0.
        -11    1    3    3    0    0 -0.11562332659E+02 -0.43319729234E+02  0.18599219170E+02  0.48540884123E+02  0.51100000000E-03 0. -1.
         11    1    3    3    0    0  0.11562332659E+02  0.43319729234E+02  0.22668980515E+01  0.44893488441E+02  0.51100000000E-03 0.  1.
<mgrwt>
<rscale>  0 0.91074624E+02</rscale>
<asrwt>0</asrwt>
<pdfrwt beam="1">  1        1 0.87923454E-02 0.91074624E+02</pdfrwt>
<pdfrwt beam="2">  1       -1 0.55821735E-02 0.91074624E+02</pdfrwt>
<totfact> 0.95964670E+04</totfact>
</mgrwt>
</event>
<event>
 5    1  0.2718303E+000  0.9202186E+02  0.7818608E-02  0.1298028E+00
          1   -1    0    0  501    0  0.00000000000E+00  0.00000000000E+00  0.17467539457E+03  0.17467539464E+03  0.46700000000E-02 0. -1.
         -1   -1    0    0    0  501 -0.00000000000E+00 -0.00000000000E+00 -0.12119655572E+02  0.12119656472E+02  0.46700000000E-02 0.  1.
         23    2    1    2    0    0  0.00000000000E+00  0.00000000000E+00  0.16255573900E+03  0.18679505111E+03  0.92021860643E+02 0.  0.
        -11    1    3    3    0    0  0.30589916990E+02 -0.25850030107E+02  0.35299942160E+02  0.53385887599E+02  0.51100000000E-03 0.  1.
         11    1    3    3    0    0 -0.30589916990E+02  0.25850030107E+02  0.12725579684E+03  0.13340916351E+03  0.51100000000E-03 0. -1.
<mgrwt>
<rscale>  0 0.92021861E+02</rscale>
<asrwt>0</asrwt>
<pdfrwt beam="1">  1        1 0.26873137E-01 0.92021861E+02</pdfrwt>
<pdfrwt beam="2">  1       -1 0.18645625E-02 0.92021861E+02</pdfrwt>
<totfact> 0.11253470E+05</totfact>
</mgrwt>
</event>
<event>
 5    1  0.2718303E+000  0.9109442E+02  0.7818608E-02  0.1300223E+00
          1   -1    0    0  501    0  0.00000000000E+00  0.00000000000E+00  0.16710789879E+03  0.16710789886E+03  0.46700000000E-02 0. -1.
         -1   -1    0    0    0  501 -0.00000000000E+00 -0.00000000000E+00 -0.12414423337E+02  0.12414424215E+02  0.46700000000E-02 0.  1.
         23    2    1    2    0    0  0.00000000000E+00  0.00000000000E+00  0.15469347546E+03  0.17952232307E+03  0.91094418780E+02 0.  0.
        -11    1    3    3    0    0  0.18007605173E+02 -0.39480146449E+02  0.50068524836E+02  0.66255663812E+02  0.51100000000E-03 0.  1.
         11    1    3    3    0    0 -0.18007605173E+02  0.39480146449E+02  0.10462495062E+03  0.11326665926E+03  0.51100000000E-03 0. -1.
<mgrwt>
<rscale>  0 0.91094419E+02</rscale>
<asrwt>0</asrwt>
<pdfrwt beam="1">  1        1 0.25708903E-01 0.91094419E+02</pdfrwt>
<pdfrwt beam="2">  1       -1 0.19099117E-02 0.91094419E+02</pdfrwt>
<totfact> 0.11468487E+05</totfact>
</mgrwt>
</event>
<event>
 5    1  0.2718303E+000  0.8124874E+02  0.7818608E-02  0.1325545E+00
         -1   -1    0    0    0  501 -0.00000000000E+00  0.00000000000E+00  0.14795699736E+02  0.14795700473E+02  0.46700000000E-02 0.  1.
          1   -1    0    0  501    0  0.00000000000E+00 -0.00000000000E+00 -0.11154182103E+03  0.11154182113E+03  0.46700000000E-02 0. -1.
         23    2    1    2    0    0  0.00000000000E+00  0.00000000000E+00 -0.96746121297E+02  0.12633752160E+03  0.81248737708E+02 0.  0.
        -11    1    3    3    0    0  0.18834715305E+02  0.25427599944E+02 -0.87987007813E+02  0.93504132976E+02  0.51100000000E-03 0. -1.
         11    1    3    3    0    0 -0.18834715305E+02 -0.25427599944E+02 -0.87591134847E+01  0.32833388628E+02  0.51100000000E-03 0.  1.
<mgrwt>
<rscale>  0 0.81248738E+02</rscale>
<asrwt>0</asrwt>
<pdfrwt beam="2">  1        1 0.17160280E-01 0.81248738E+02</pdfrwt>
<pdfrwt beam="1">  1       -1 0.22762616E-02 0.81248738E+02</pdfrwt>
<totfact> 0.14517990E+05</totfact>
</mgrwt>
</event>
<event>
 5    1  0.2718303E+000  0.8978307E+02  0.7818608E-02  0.1303378E+00
         -1   -1    0    0    0  501 -0.00000000000E+00  0.00000000000E+00  0.51993042050E+01  0.51993063023E+01  0.46700000000E-02 0.  1.
          1   -1    0    0  501    0  0.00000000000E+00 -0.00000000000E+00 -0.38759988259E+03  0.38759988262E+03  0.46700000000E-02 0. -1.
         23    2    1    2    0    0  0.00000000000E+00  0.00000000000E+00 -0.38240057839E+03  0.39279918892E+03  0.89783074504E+02 0.  0.
        -11    1    3    3    0    0 -0.13155381171E+02  0.41923787884E+02 -0.15096424561E+03  0.15722872352E+03  0.51100000000E-03 0.  1.
         11    1    3    3    0    0  0.13155381171E+02 -0.41923787884E+02 -0.23143633278E+03  0.23557046541E+03  0.51100000000E-03 0. -1.
<mgrwt>
<rscale>  0 0.89783075E+02</rscale>
<asrwt>0</asrwt>
<pdfrwt beam="2">  1        1 0.59630729E-01 0.89783075E+02</pdfrwt>
<pdfrwt beam="1">  1       -1 0.79989342E-03 0.89783075E+02</pdfrwt>
<totfact> 0.13978569E+05</totfact>
</mgrwt>
</event>
<event>
 5    1  0.2718303E+000  0.1063925E+03  0.7818608E-02  0.1267400E+00
          1   -1    0    0  501    0  0.00000000000E+00  0.00000000000E+00  0.18748109505E+03  0.18748109511E+03  0.46700000000E-02 0. -1.
         -1   -1    0    0    0  501 -0.00000000000E+00 -0.00000000000E+00 -0.15094002568E+02  0.15094003290E+02  0.46700000000E-02 0.  1.
         23    2    1    2    0    0  0.00000000000E+00  0.00000000000E+00  0.17238709248E+03  0.20257509840E+03  0.10639248487E+03 0.  0.
        -11    1    3    3    0    0 -0.26355392974E+02 -0.45115306227E+02  0.67168177711E+02  0.85097365952E+02  0.51100000000E-03 0. -1.
         11    1    3    3    0    0  0.26355392974E+02  0.45115306227E+02  0.10521891477E+03  0.11747773245E+03  0.51100000000E-03 0.  1.
<mgrwt>
<rscale>  0 0.10639248E+03</rscale>
<asrwt>0</asrwt>
<pdfrwt beam="1">  1        1 0.28843244E-01 0.10639248E+03</pdfrwt>
<pdfrwt beam="2">  1       -1 0.23221544E-02 0.10639248E+03</pdfrwt>
<totfact> 0.76970398E+04</totfact>
</mgrwt>
</event>
<event>
 5    1  0.2718303E+000  0.9068586E+02  0.7818608E-02  0.1301199E+00
         -1   -1    0    0    0  501 -0.00000000000E+00  0.00000000000E+00  0.95072560896E+01  0.95072572366E+01  0.46700000000E-02 0.  1.
          1   -1    0    0  501    0  0.00000000000E+00 -0.00000000000E+00 -0.21625389116E+03  0.21625389121E+03  0.46700000000E-02 0. -1.
         23    2    1    2    0    0  0.00000000000E+00  0.00000000000E+00 -0.20674663507E+03  0.22576114845E+03  0.90685859070E+02 0.  0.
        -11    1    3    3    0    0  0.23741021478E+02  0.24745475658E+02 -0.17722367418E+03  0.18051095633E+03  0.51100000000E-03 0. -1.
         11    1    3    3    0    0 -0.23741021478E+02 -0.24745475658E+02 -0.29522960893E+02  0.45250192116E+02  0.51100000000E-03 0.  1.
<mgrwt>
<rscale>  0 0.90685859E+02</rscale>
<asrwt>0</asrwt>
<pdfrwt beam="2">  1        1 0.33269826E-01 0.90685859E+02</pdfrwt>
<pdfrwt beam="1">  1       -1 0.14626550E-02 0.90685859E+02</pdfrwt>
<totfact> 0.12196976E+05</totfact>
</mgrwt>
</event>
<event>
 5    1  0.2718303E+000  0.9749009E+02  0.7818608E-02  0.1285664E+00
         -1   -1    0    0    0  501 -0.00000000000E+00  0.00000000000E+00  0.19033737964E+02  0.19033738537E+02  0.46700000000E-02 0.  1.
          1   -1    0    0  501    0  0.00000000000E+00 -0.00000000000E+00 -0.12483515372E+03  0.12483515380E+03  0.46700000000E-02 0. -1.
         23    2    1    2    0    0  0.00000000000E+00  0.00000000000E+00 -0.10580141575E+03  0.14386889234E+03  0.97490094923E+02 0.  0.
        -11    1    3    3    0    0 -0.29323808347E+02 -0.30854062132E+02 -0.87954171724E+02  0.97712820089E+02  0.51100000000E-03 0. -1.
         11    1    3    3    0    0  0.29323808347E+02  0.30854062132E+02 -0.17847244030E+02  0.46156072252E+02  0.51100000000E-03 0.  1.
<mgrwt>
<rscale>  0 0.97490095E+02</rscale>
<asrwt>0</asrwt>
<pdfrwt beam="2">  1        1 0.19205408E-01 0.97490095E+02</pdfrwt>
<pdfrwt beam="1">  1       -1 0.29282675E-02 0.97490095E+02</pdfrwt>
<totfact> 0.90409197E+04</totfact>
</mgrwt>
</event>
<event>
 5    1  0.2718303E+000  0.7980059E+02  0.7818608E-02  0.1329618E+00
         -1   -1    0    0    0  501 -0.00000000000E+00  0.00000000000E+00  0.23662804549E+03  0.23662804554E+03  0.46700000000E-02 0. -1.
          1   -1    0    0  501    0  0.00000000000E+00 -0.00000000000E+00 -0.67279988618E+01  0.67280004825E+01  0.46700000000E-02 0.  1.
         23    2    1    2    0    0  0.00000000000E+00  0.00000000000E+00  0.22990004663E+03  0.24335604602E+03  0.79800587054E+02 0.  0.
        -11    1    3    3    0    0 -0.20818192142E+02  0.27482442984E+02  0.53703990785E+02  0.63818495931E+02  0.51100000000E-03 0.  1.
         11    1    3    3    0    0  0.20818192142E+02 -0.27482442984E+02  0.17619605584E+03  0.17953755009E+03  0.51100000000E-03 0. -1.
<mgrwt>
<rscale>  0 0.79800587E+02</rscale>
<asrwt>0</asrwt>
<pdfrwt beam="2">  1        1 0.10350769E-02 0.79800587E+02</pdfrwt>
<pdfrwt beam="1">  1       -1 0.36404315E-01 0.79800587E+02</pdfrwt>
<totfact> 0.93237735E+04</totfact>
</mgrwt>
</event>
<event>
 5    1  0.2718303E+000  0.9092765E+02  0.7818608E-02  0.1300621E+00
          1   -1    0    0  501    0  0.00000000000E+00  0.00000000000E+00  0.23920225818E+03  0.23920225823E+03  0.46700000000E-02 0. -1.
         -1   -1    0    0    0  501 -0.00000000000E+00 -0.00000000000E+00 -0.86410522391E+01  0.86410535010E+01  0.46700000000E-02 0.  1.
         23    2    1    2    0    0  0.00000000000E+00  0.00000000000E+00  0.23056120594E+03  0.24784331173E+03  0.90927649715E+02 0.  0.
        -11    1    3    3    0    0 -0.43730762301E+02 -0.11120158179E+02  0.10012357015E+03  0.10982152243E+03  0.51100000000E-03 0.  1.
         11    1    3    3    0    0  0.43730762301E+02  0.11120158179E+02  0.13043763579E+03  0.13802178930E+03  0.51100000000E-03 0. -1.
<mgrwt>
<rscale>  0 0.90927650E+02</rscale>
<asrwt>0</asrwt>
<pdfrwt beam="1">  1        1 0.36800349E-01 0.90927650E+02</pdfrwt>
<pdfrwt beam="2">  1       -1 0.13293927E-02 0.90927650E+02</pdfrwt>
<totfact> 0.12351051E+05</totfact>
</mgrwt>
</event>
<event>
 5    1  0.2718303E+000  0.9180852E+02  0.7818608E-02  0.1298530E+00
          1   -1    0    0  501    0  0.00000000000E+00  0.00000000000E+00  0.14737854347E+03  0.14737854354E+03  0.46700000000E-02 0. -1.
         -1   -1    0    0    0  501 -0.00000000000E+00 -0.00000000000E+00 -0.14297883300E+02  0.14297884063E+02  0.46700000000E-02 0.  1.
         23    2    1    2    0    0  0.00000000000E+00  0.00000000000E+00  0.13308066017E+03  0.16167642761E+03  0.91808524291E+02 0.  0.
        -11    1    3    3    0    0  0.14913286763E+02  0.41379398915E+02  0.43408540575E+02  0.61797752157E+02  0.51100000000E-03 0. -1.
         11    1    3    3    0    0 -0.14913286763E+02 -0.41379398915E+02  0.89672119593E+02  0.99878675448E+02  0.51100000000E-03 0.  1.
<mgrwt>
<rscale>  0 0.91808524E+02</rscale>
<asrwt>0</asrwt>
<pdfrwt beam="1">  1        1 0.22673621E-01 0.91808524E+02</pdfrwt>
<pdfrwt beam="2">  1       -1 0.21996745E-02 0.91808524E+02</pdfrwt>
<totfact> 0.10970452E+05</totfact>
</mgrwt>
</event>
<event>
 5    1  0.2718303E+000  0.9247268E+02  0.7818608E-02  0.1296972E+00
          1   -1    0    0  501    0  0.00000000000E+00  0.00000000000E+00  0.64016543300E+02  0.64016543470E+02  0.46700000000E-02 0. -1.
         -1   -1    0    0    0  501 -0.00000000000E+00 -0.00000000000E+00 -0.33394475680E+02  0.33394476006E+02  0.46700000000E-02 0.  1.
         23    2    1    2    0    0  0.00000000000E+00  0.00000000000E+00  0.30622067620E+02  0.97411019476E+02  0.92472675370E+02 0.  0.
        -11    1    3    3    0    0 -0.19967078194E+02 -0.38409116161E+02  0.32422094195E+02  0.54084532060E+02  0.51100000000E-03 0. -1.
         11    1    3    3    0    0  0.19967078194E+02  0.38409116161E+02 -0.18000265745E+01  0.43326487416E+02  0.51100000000E-03 0.  1.
<mgrwt>
<rscale>  0 0.92472675E+02</rscale>
<asrwt>0</asrwt>
<pdfrwt beam="1">  1        1 0.98486988E-02 0.92472675E+02</pdfrwt>
<pdfrwt beam="2">  1       -1 0.51376118E-02 0.92472675E+02</pdfrwt>
<totfact> 0.93589892E+04</totfact>
</mgrwt>
</event>
<event>
 5    1  0.2718303E+000  0.9197614E+02  0.7818608E-02  0.1298136E+00
         -1   -1    0    0    0  501 -0.00000000000E+00  0.00000000000E+00  0.16711855977E+02  0.16711856630E+02  0.46700000000E-02 0.  1.
          1   -1    0    0  501    0  0.00000000000E+00 -0.00000000000E+00 -0.12655103231E+03  0.12655103240E+03  0.46700000000E-02 0. -1.
         23    2    1    2    0    0  0.00000000000E+00  0.00000000000E+00 -0.10983917634E+03  0.14326288903E+03  0.91976142096E+02 0.  0.
        -11    1    3    3    0    0  0.25843216327E+02  0.16025833136E+02 -0.11831185354E+01  0.30431873547E+02  0.51100000000E-03 0.  1.
         11    1    3    3    0    0 -0.25843216327E+02 -0.16025833136E+02 -0.10865605780E+03  0.11283101548E+03  0.51100000000E-03 0. -1.
<mgrwt>
<rscale>  0 0.91976142E+02</rscale>
<asrwt>0</asrwt>
<pdfrwt beam="2">  1        1 0.19469389E-01 0.91976142E+02</pdfrwt>
<pdfrwt beam="1">  1       -1 0.25710549E-02 0.91976142E+02</pdfrwt>
<totfact> 0.10620326E+05</totfact>
</mgrwt>
</event>
<event>
 5    1  0.2718303E+000  0.8854249E+02  0.7818608E-02  0.1306420E+00
          1   -1    0    0  501    0  0.00000000000E+00  0.00000000000E+00  0.42821163217E+03  0.42821163220E+03  0.46700000000E-02 0. -1.
         -1   -1    0    0    0  501 -0.00000000000E+00 -0.00000000000E+00 -0.45770416338E+01  0.45770440162E+01  0.46700000000E-02 0.  1.
         23    2    1    2    0    0  0.00000000000E+00  0.00000000000E+00  0.42363459054E+03  0.43278867622E+03  0.88542486741E+02 0.  0.
        -11    1    3    3    0    0 -0.38388452521E+02  0.21307823037E+02  0.23957379233E+03  0.24356374645E+03  0.51100000000E-03 0.  1.
         11    1    3    3    0    0  0.38388452521E+02 -0.21307823037E+02  0.18406079821E+03  0.18922492977E+03  0.51100000000E-03 0. -1.
<mgrwt>
<rscale>  0 0.88542487E+02</rscale>
<asrwt>0</asrwt>
<pdfrwt beam="1">  1        1 0.65878733E-01 0.88542487E+02</pdfrwt>
<pdfrwt beam="2">  1       -1 0.70416022E-03 0.88542487E+02</pdfrwt>
<totfact> 0.14736481E+05</totfact>
</mgrwt>
</event>
<event>
 5    1  0.2718303E+000  0.9111954E+02  0.7818608E-02  0.1300163E+00
          1   -1    0    0  501    0  0.00000000000E+00  0.00000000000E+00  0.11431383675E+02  0.11431384629E+02  0.46700000000E-02 0. -1.
         -1   -1    0    0    0  501 -0.00000000000E+00 -0.00000000000E+00 -0.18157841173E+03  0.18157841179E+03  0.46700000000E-02 0.  1.
         23    2    1    2    0    0  0.00000000000E+00  0.00000000000E+00 -0.17014702805E+03  0.19300979642E+03  0.91119538836E+02 0.  0.
        -11    1    3    3    0    0 -0.35121904916E+02 -0.19063943140E+02 -0.13141866448E+03  0.13736028359E+03  0.51100000000E-03 0.  1.
         11    1    3    3    0    0  0.35121904916E+02  0.19063943140E+02 -0.38728363572E+02  0.55649512830E+02  0.51100000000E-03 0. -1.
<mgrwt>
<rscale>  0 0.91119539E+02</rscale>
<asrwt>0</asrwt>
<pdfrwt beam="1">  1        1 0.17586746E-02 0.91119539E+02</pdfrwt>
<pdfrwt beam="2">  1       -1 0.27935138E-01 0.91119539E+02</pdfrwt>
<totfact> 0.71420312E+04</totfact>
</mgrwt>
</event>
<event>
 5    1  0.2718303E+000  0.8730368E+02  0.7818608E-02  0.1309516E+00
          1   -1    0    0  501    0  0.00000000000E+00  0.00000000000E+00  0.31695812153E+03  0.31695812157E+03  0.46700000000E-02 0. -1.
         -1   -1    0    0    0  501 -0.00000000000E+00 -0.00000000000E+00 -0.60117806820E+01  0.60117824959E+01  0.46700000000E-02 0.  1.
         23    2    1    2    0    0  0.00000000000E+00  0.00000000000E+00  0.31094634085E+03  0.32296990406E+03  0.87303677139E+02 0.  0.
        -11    1    3    3    0    0 -0.36246696652E+01  0.41313116538E+02  0.10507847958E+03  0.11296636092E+03  0.51100000000E-03 0.  1.
         11    1    3    3    0    0  0.36246696652E+01 -0.41313116538E+02  0.20586786128E+03  0.21000354315E+03  0.51100000000E-03 0. -1.
<mgrwt>
<rscale>  0 0.87303677E+02</rscale>
<asrwt>0</asrwt>
<pdfrwt beam="1">  1        1 0.48762792E-01 0.87303677E+02</pdfrwt>
<pdfrwt beam="2">  1       -1 0.92488939E-03 0.87303677E+02</pdfrwt>
<totfact> 0.14527593E+05</totfact>
</mgrwt>
</event>
<event>
 5    1  0.2718303E+000  0.9137518E+02  0.7818608E-02  0.1299555E+00
          1   -1    0    0  501    0  0.00000000000E+00  0.00000000000E+00  0.52738364890E+02  0.52738365097E+02  0.46700000000E-02 0. -1.
         -1   -1    0    0    0  501 -0.00000000000E+00 -0.00000000000E+00 -0.39579453339E+02  0.39579453614E+02  0.46700000000E-02 0.  1.
         23    2    1    2    0    0  0.00000000000E+00  0.00000000000E+00  0.13158911552E+02  0.92317818711E+02  0.91375175504E+02 0.  0.
        -11    1    3    3    0    0  0.34048366251E+01  0.12763984015E+02 -0.37607799624E+02  0.39860491633E+02  0.51100000000E-03 0.  1.
         11    1    3    3    0    0 -0.34048366251E+01 -0.12763984015E+02  0.50766711176E+02  0.52457327079E+02  0.51100000000E-03 0. -1.
<mgrwt>
<rscale>  0 0.91375176E+02</rscale>
<asrwt>0</asrwt>
<pdfrwt beam="1">  1        1 0.81135947E-02 0.91375176E+02</pdfrwt>
<pdfrwt beam="2">  1       -1 0.60891467E-02 0.91375176E+02</pdfrwt>
<totfact> 0.93945697E+04</totfact>
</mgrwt>
</event>
<event>
 5    1  0.2718303E+000  0.9065589E+02  0.7818608E-02  0.1301271E+00
         -1   -1    0    0    0  501 -0.00000000000E+00  0.00000000000E+00  0.33910549578E+02  0.33910549900E+02  0.46700000000E-02 0.  1.
          1   -1    0    0  501    0  0.00000000000E+00 -0.00000000000E+00 -0.60589483449E+02  0.60589483629E+02  0.46700000000E-02 0. -1.
         23    2    1    2    0    0  0.00000000000E+00  0.00000000000E+00 -0.26678933871E+02  0.94500033529E+02  0.90655892387E+02 0.  0.
        -11    1    3    3    0    0 -0.14961382359E+02 -0.36943064004E+02  0.91626882071E+01  0.40897283474E+02  0.51100000000E-03 0.  1.
         11    1    3    3    0    0  0.14961382359E+02  0.36943064004E+02 -0.35841622078E+02  0.53602750055E+02  0.51100000000E-03 0. -1.
<mgrwt>
<rscale>  0 0.90655892E+02</rscale>
<asrwt>0</asrwt>
<pdfrwt beam="2">  1        1 0.93214590E-02 0.90655892E+02</pdfrwt>
<pdfrwt beam="1">  1       -1 0.52170077E-02 0.90655892E+02</pdfrwt>
<totfact> 0.98058289E+04</totfact>
</mgrwt>
</event>
<event>
 5    1  0.2718303E+000  0.9250285E+02  0.7818608E-02  0.1296901E+00
         -1   -1    0    0    0  501 -0.00000000000E+00  0.00000000000E+00  0.68838346303E+01  0.68838362143E+01  0.46700000000E-02 0.  1.
          1   -1    0    0  501    0  0.00000000000E+00 -0.00000000000E+00 -0.31075613599E+03  0.31075613603E+03  0.46700000000E-02 0. -1.
         23    2    1    2    0    0  0.00000000000E+00  0.00000000000E+00 -0.30387230136E+03  0.31763997224E+03  0.92502845528E+02 0.  0.
        -11    1    3    3    0    0  0.18905944135E+02  0.36932084381E+02 -0.22212274243E+03  0.22596443588E+03  0.51100000000E-03 0. -1.
         11    1    3    3    0    0 -0.18905944135E+02 -0.36932084381E+02 -0.81749558935E+02  0.91675536359E+02  0.51100000000E-03 0.  1.
<mgrwt>
<rscale>  0 0.92502846E+02</rscale>
<asrwt>0</asrwt>
<pdfrwt beam="2">  1        1 0.47808625E-01 0.92502846E+02</pdfrwt>
<pdfrwt beam="1">  1       -1 0.10590518E-02 0.92502846E+02</pdfrwt>
<totfact> 0.12410837E+05</totfact>
</mgrwt>
</event>
<event>
 5    1  0.2718303E+000  0.9074436E+02  0.7818608E-02  0.1301059E+00
          1   -1    0    0  501    0  0.00000000000E+00  0.00000000000E+00  0.66150884356E+01  0.66150900840E+01  0.46700000000E-02 0. -1.
         -1   -1    0    0    0  501 -0.00000000000E+00 -0.00000000000E+00 -0.31120288611E+03  0.31120288615E+03  0.46700000000E-02 0.  1.
         23    2    1    2    0    0  0.00000000000E+00  0.00000000000E+00 -0.30458779768E+03  0.31781797623E+03  0.90744363584E+02 0.  0.
        -11    1    3    3    0    0  0.15780206464E+01 -0.43412913149E+02 -0.19815504433E+03  0.20286101836E+03  0.51100000000E-03 0. -1.
         11    1    3    3    0    0 -0.15780206464E+01  0.43412913149E+02 -0.10643275334E+03  0.11495695787E+03  0.51100000000E-03 0.  1.
<mgrwt>
<rscale>  0 0.90744364E+02</rscale>
<asrwt>0</asrwt>
<pdfrwt beam="1">  1        1 0.10177063E-02 0.90744364E+02</pdfrwt>
<pdfrwt beam="2">  1       -1 0.47877356E-01 0.90744364E+02</pdfrwt>
<totfact> 0.60451912E+04</totfact>
</mgrwt>
</event>
<event>
 4    1  0.2718303E+000  0.3912351E+02  0.7818608E-02  0.1514762E+00
         -1   -1    0    0    0  501 -0.00000000000E+00  0.00000000000E+00  0.36029505418E+02  0.36029505721E+02  0.46700000000E-02 0.  1.
          1   -1    0    0  501    0  0.00000000000E+00 -0.00000000000E+00 -0.10620803057E+02  0.10620804084E+02  0.46700000000E-02 0. -1.
        -11    1    1    2    0    0 -0.65601089186E+01 -0.15353336327E+02  0.24858634873E+02  0.29945144738E+02  0.51100000000E-03 0. -1.
         11    1    1    2    0    0  0.65601089186E+01  0.15353336327E+02  0.55006748886E+00  0.16705165066E+02  0.51100000000E-03 0.  1.
<mgrwt>
<rscale>  0 0.39123513E+02</rscale>
<asrwt>0</asrwt>
<pdfrwt beam="2">  1        1 0.16339698E-02 0.39123513E+02</pdfrwt>
<pdfrwt beam="1">  1       -1 0.55430008E-02 0.39123513E+02</pdfrwt>
<totfact> 0.76565767E+05</totfact>
</mgrwt>
</event>
<event>
 5    1  0.2718303E+000  0.9075115E+02  0.7818608E-02  0.1301043E+00
          1   -1    0    0  501    0  0.00000000000E+00  0.00000000000E+00  0.47654369464E+03  0.47654369466E+03  0.46700000000E-02 0. -1.
         -1   -1    0    0    0  501 -0.00000000000E+00 -0.00000000000E+00 -0.43205736825E+01  0.43205762063E+01  0.46700000000E-02 0.  1.
         23    2    1    2    0    0  0.00000000000E+00  0.00000000000E+00  0.47222312096E+03  0.48086427087E+03  0.90751148928E+02 0.  0.
        -11    1    3    3    0    0  0.10365550239E+02  0.43798988403E+02  0.26661794875E+03  0.27039032270E+03  0.51100000000E-03 0. -1.
         11    1    3    3    0    0 -0.10365550239E+02 -0.43798988403E+02  0.20560517221E+03  0.21047394817E+03  0.51100000000E-03 0.  1.
<mgrwt>
<rscale>  0 0.90751149E+02</rscale>
<asrwt>0</asrwt>
<pdfrwt beam="1">  1        1 0.73314376E-01 0.90751149E+02</pdfrwt>
<pdfrwt beam="2">  1       -1 0.66470419E-03 0.90751149E+02</pdfrwt>
<totfact> 0.14016433E+05</totfact>
</mgrwt>
</event>
<event>
 5    1  0.2718303E+000  0.9118706E+02  0.7818608E-02  0.1300002E+00
         -1   -1    0    0    0  501 -0.00000000000E+00  0.00000000000E+00  0.79335521325E+02  0.79335521463E+02  0.46700000000E-02 0.  1.
          1   -1    0    0  501    0  0.00000000000E+00 -0.00000000000E+00 -0.26202258108E+02  0.26202258524E+02  0.46700000000E-02 0. -1.
         23    2    1    2    0    0  0.00000000000E+00  0.00000000000E+00  0.53133263217E+02  0.10553777999E+03  0.91187056891E+02 0.  0.
        -11    1    3    3    0    0 -0.57652168909E+01  0.43369095594E+02  0.41417793988E+02  0.60245745390E+02  0.51100000000E-03 0.  1.
         11    1    3    3    0    0  0.57652168909E+01 -0.43369095594E+02  0.11715469229E+02  0.45292034597E+02  0.51100000000E-03 0. -1.
<mgrwt>
<rscale>  0 0.91187057E+02</rscale>
<asrwt>0</asrwt>
<pdfrwt beam="2">  1        1 0.40311168E-02 0.91187057E+02</pdfrwt>
<pdfrwt beam="1">  1       -1 0.12205465E-01 0.91187057E+02</pdfrwt>
<totfact> 0.84745574E+04</totfact>
</mgrwt>
</event>
<event>
 5    1  0.2718303E+000  0.9100753E+02  0.7818608E-02  0.1300430E+00
         -1   -1    0    0    0  501 -0.00000000000E+00  0.00000000000E+00  0.31951919668E+02  0.31951920009E+02  0.46700000000E-02 0.  1.
          1   -1    0    0  501    0  0.00000000000E+00 -0.00000000000E+00 -0.64803380428E+02  0.64803380596E+02  0.46700000000E-02 0. -1.
         23    2    1    2    0    0  0.00000000000E+00  0.00000000000E+00 -0.32851460760E+02  0.96755300606E+02  0.91007525630E+02 0.  0.
        -11    1    3    3    0    0  0.53411072322E+01  0.28363672396E+02  0.20975150945E+02  0.35678877444E+02  0.51100000000E-03 0.  1.
         11    1    3    3    0    0 -0.53411072322E+01 -0.28363672396E+02 -0.53826611705E+02  0.61076423161E+02  0.51100000000E-03 0. -1.
<mgrwt>
<rscale>  0 0.91007526E+02</rscale>
<asrwt>0</asrwt>
<pdfrwt beam="2">  1        1 0.99697508E-02 0.91007526E+02</pdfrwt>
<pdfrwt beam="1">  1       -1 0.49156800E-02 0.91007526E+02</pdfrwt>
<totfact> 0.98008619E+04</totfact>
</mgrwt>
</event>
<event>
 5    1  0.2718303E+000  0.9111637E+02  0.7818608E-02  0.1300171E+00
         -1   -1    0    0    0  501 -0.00000000000E+00  0.00000000000E+00  0.11110261033E+02  0.11110262015E+02  0.46700000000E-02 0.  1.
          1   -1    0    0  501    0  0.00000000000E+00 -0.00000000000E+00 -0.18681360707E+03  0.18681360712E+03  0.46700000000E-02 0. -1.
         23    2    1    2    0    0  0.00000000000E+00  0.00000000000E+00 -0.17570334603E+03  0.19792386914E+03  0.91116366082E+02 0.  0.
        -11    1    3    3    0    0  0.21631399674E+02  0.39988434246E+02 -0.94205420814E+02  0.10460235961E+03  0.51100000000E-03 0. -1.
         11    1    3    3    0    0 -0.21631399674E+02 -0.39988434246E+02 -0.81497925218E+02  0.93321509527E+02  0.51100000000E-03 0.  1.
<mgrwt>
<rscale>  0 0.91116366E+02</rscale>
<asrwt>0</asrwt>
<pdfrwt beam="2">  1        1 0.28740553E-01 0.91116366E+02</pdfrwt>
<pdfrwt beam="1">  1       -1 0.17092711E-02 0.91116366E+02</pdfrwt>
<totfact> 0.11706459E+05</totfact>
</mgrwt>
</event>
<event>
 5    1  0.2718303E+000  0.9867922E+02  0.7818608E-02  0.1283098E+00
         -1   -1    0    0    0  501 -0.00000000000E+00  0.00000000000E+00  0.72039100496E+02  0.72039100647E+02  0.46700000000E-02 0.  1.
          1   -1    0    0  501    0  0.00000000000E+00 -0.00000000000E+00 -0.33792722040E+02  0.33792722362E+02  0.46700000000E-02 0. -1.
         23    2    1    2    0    0  0.00000000000E+00  0.00000000000E+00  0.38246378456E+02  0.10583182301E+03  0.98679224239E+02 0.  0.
        -11    1    3    3    0    0 -0.43478971559E+02  0.96604579486E+01 -0.36440912447E+01  0.44688083611E+02  0.51100000000E-03 0. -1.
         11    1    3    3    0    0  0.43478971559E+02 -0.96604579486E+01  0.41890469701E+02  0.61143739398E+02  0.51100000000E-03 0.  1.
<mgrwt>
<rscale>  0 0.98679224E+02</rscale>
<asrwt>0</asrwt>
<pdfrwt beam="2">  1        1 0.51988805E-02 0.98679224E+02</pdfrwt>
<pdfrwt beam="1">  1       -1 0.11082938E-01 0.98679224E+02</pdfrwt>
<totfact> 0.70380175E+04</totfact>
</mgrwt>
</event>
<event>
 5    1  0.2718303E+000  0.9017711E+02  0.7818608E-02  0.1302423E+00
         -1   -1    0    0    0  501 -0.00000000000E+00  0.00000000000E+00  0.28583847957E+03  0.28583847961E+03  0.46700000000E-02 0.  1.
          1   -1    0    0  501    0  0.00000000000E+00 -0.00000000000E+00 -0.71123304725E+01  0.71123320056E+01  0.46700000000E-02 0. -1.
         23    2    1    2    0    0  0.00000000000E+00  0.00000000000E+00  0.27872614910E+03  0.29295081162E+03  0.90177113696E+02 0.  0.
        -11    1    3    3    0    0  0.12454425891E+02 -0.36347936346E+02  0.21601201582E+03  0.21940254370E+03  0.51100000000E-03 0.  1.
         11    1    3    3    0    0 -0.12454425891E+02  0.36347936346E+02  0.62714133277E+02  0.73548267919E+02  0.51100000000E-03 0. -1.
<mgrwt>
<rscale>  0 0.90177114E+02</rscale>
<asrwt>0</asrwt>
<pdfrwt beam="2">  1        1 0.10942051E-02 0.90177114E+02</pdfrwt>
<pdfrwt beam="1">  1       -1 0.43975140E-01 0.90177114E+02</pdfrwt>
<totfact> 0.63531294E+04</totfact>
</mgrwt>
</event>
<event>
 4    1  0.2718303E+000  0.2169385E+02  0.7818608E-02  0.1713601E+00
         -1   -1    0    0    0  501 -0.00000000000E+00  0.00000000000E+00  0.37388560855E+02  0.37388561146E+02  0.46700000000E-02 0. -1.
          1   -1    0    0  501    0  0.00000000000E+00 -0.00000000000E+00 -0.31468381193E+01  0.31468415845E+01  0.46700000000E-02 0.  1.
        -11    1    1    2    0    0  0.55042401744E+01 -0.85009807223E+01  0.98618371205E+01  0.14135740688E+02  0.51100000000E-03 0.  1.
         11    1    1    2    0    0 -0.55042401744E+01  0.85009807223E+01  0.24379885615E+02  0.26399662043E+02  0.51100000000E-03 0. -1.
<mgrwt>
<rscale>  0 0.21693854E+02</rscale>
<asrwt>0</asrwt>
<pdfrwt beam="2">  1        1 0.48412923E-03 0.21693854E+02</pdfrwt>
<pdfrwt beam="1">  1       -1 0.57520866E-02 0.21693854E+02</pdfrwt>
<totfact> 0.29960475E+06</totfact>
</mgrwt>
</event>
<event>
 5    1  0.2718303E+000  0.9066215E+02  0.7818608E-02  0.1301256E+00
         -1   -1    0    0    0  501 -0.00000000000E+00  0.00000000000E+00  0.20371389297E+03  0.20371389302E+03  0.46700000000E-02 0.  1.
          1   -1    0    0  501    0  0.00000000000E+00 -0.00000000000E+00 -0.10087216013E+02  0.10087217094E+02  0.46700000000E-02 0. -1.
         23    2    1    2    0    0  0.00000000000E+00  0.00000000000E+00  0.19362667696E+03  0.21380111012E+03  0.90662145674E+02 0.  0.
        -11    1    3    3    0    0 -0.30691763925E+02 -0.23307730930E+02  0.40527881327E+02  0.55926235874E+02  0.51100000000E-03 0. -1.
         11    1    3    3    0    0  0.30691763925E+02  0.23307730930E+02  0.15309879563E+03  0.15787487424E+03  0.51100000000E-03 0.  1.
<mgrwt>
<rscale>  0 0.90662146E+02</rscale>
<asrwt>0</asrwt>
<pdfrwt beam="2">  1        1 0.15518797E-02 0.90662146E+02</pdfrwt>
<pdfrwt beam="1">  1       -1 0.31340595E-01 0.90662146E+02</pdfrwt>
<totfact> 0.70083458E+04</totfact>
</mgrwt>
</event>
<event>
 5    1  0.2718303E+000  0.9326035E+02  0.7818608E-02  0.1295143E+00
          1   -1    0    0  501    0  0.00000000000E+00  0.00000000000E+00  0.28214754743E+03  0.28214754747E+03  0.46700000000E-02 0. -1.
         -1   -1    0    0    0  501 -0.00000000000E+00 -0.00000000000E+00 -0.77065098361E+01  0.77065112510E+01  0.46700000000E-02 0.  1.
         23    2    1    2    0    0  0.00000000000E+00  0.00000000000E+00  0.27444103759E+03  0.28985405872E+03  0.93260346561E+02 0.  0.
        -11    1    3    3    0    0  0.15081215593E+02  0.43505575949E+02  0.16010080223E+03  0.16659065123E+03  0.51100000000E-03 0. -1.
         11    1    3    3    0    0 -0.15081215593E+02 -0.43505575949E+02  0.11434023536E+03  0.12326340749E+03  0.51100000000E-03 0.  1.
<mgrwt>
<rscale>  0 0.93260347E+02</rscale>
<asrwt>0</asrwt>
<pdfrwt beam="1">  1        1 0.43407313E-01 0.93260347E+02</pdfrwt>
<pdfrwt beam="2">  1       -1 0.11856171E-02 0.93260347E+02</pdfrwt>
<totfact> 0.11920342E+05</totfact>
</mgrwt>
</event>
<event>
 5    1  0.2718303E+000  0.8854378E+02  0.7818608E-02  0.1306417E+00
         -1   -1    0    0    0  501 -0.00000000000E+00  0.00000000000E+00  0.17773235934E+02  0.17773236547E+02  0.46700000000E-02 0.  1.
          1   -1    0    0  501    0  0.00000000000E+00 -0.00000000000E+00 -0.11027818548E+03  0.11027818558E+03  0.46700000000E-02 0. -1.
         23    2    1    2    0    0  0.00000000000E+00  0.00000000000E+00 -0.92504949551E+02  0.12805142213E+03  0.88543780235E+02 0.  0.
        -11    1    3    3    0    0 -0.29054079551E+02 -0.27030847510E+02 -0.17868964653E+02  0.43521329870E+02  0.51100000000E-03 0.  1.
         11    1    3    3    0    0  0.29054079551E+02  0.27030847510E+02 -0.74635984898E+02  0.84530092261E+02  0.51100000000E-03 0. -1.
<mgrwt>
<rscale>  0 0.88543780E+02</rscale>
<asrwt>0</asrwt>
<pdfrwt beam="2">  1        1 0.16965874E-01 0.88543780E+02</pdfrwt>
<pdfrwt beam="1">  1       -1 0.27343441E-02 0.88543780E+02</pdfrwt>
<totfact> 0.11496512E+05</totfact>
</mgrwt>
</event>
<event>
 5    1  0.2718303E+000  0.9086519E+02  0.7818608E-02  0.1300770E+00
          1   -1    0    0  501    0  0.00000000000E+00  0.00000000000E+00  0.26024894536E+03  0.26024894540E+03  0.46700000000E-02 0. -1.
         -1   -1    0    0    0  501 -0.00000000000E+00 -0.00000000000E+00 -0.79313311092E+01  0.79313324840E+01  0.46700000000E-02 0.  1.
         23    2    1    2    0    0  0.00000000000E+00  0.00000000000E+00  0.25231761425E+03  0.26818027788E+03  0.90865191276E+02 0.  0.
        -11    1    3    3    0    0 -0.18977233466E+02  0.41049398695E+02  0.13900073115E+03  0.14617247273E+03  0.51100000000E-03 0. -1.
         11    1    3    3    0    0  0.18977233466E+02 -0.41049398695E+02  0.11331688310E+03  0.12200780515E+03  0.51100000000E-03 0.  1.
<mgrwt>
<rscale>  0 0.90865191E+02</rscale>
<asrwt>0</asrwt>
<pdfrwt beam="1">  1        1 0.40038298E-01 0.90865191E+02</pdfrwt>
<pdfrwt beam="2">  1       -1 0.12202049E-02 0.90865191E+02</pdfrwt>
<totfact> 0.12578748E+05</totfact>
</mgrwt>
</event>
<event>
 5    1  0.2718303E+000  0.9198746E+02  0.7818608E-02  0.1298109E+00
          1   -1    0    0  501    0  0.00000000000E+00  0.00000000000E+00  0.21912547652E+02  0.21912548150E+02  0.46700000000E-02 0. -1.
         -1   -1    0    0    0  501 -0.00000000000E+00 -0.00000000000E+00 -0.96539353474E+02  0.96539353587E+02  0.46700000000E-02 0.  1.
         23    2    1    2    0    0  0.00000000000E+00  0.00000000000E+00 -0.74626805821E+02  0.11845190174E+03  0.91987460439E+02 0.  0.
        -11    1    3    3    0    0 -0.34075242391E+02  0.16644036622E+02 -0.70825114581E+02  0.80338925526E+02  0.51100000000E-03 0. -1.
         11    1    3    3    0    0  0.34075242391E+02 -0.16644036622E+02 -0.38016912403E+01  0.38112976210E+02  0.51100000000E-03 0.  1.
<mgrwt>
<rscale>  0 0.91987460E+02</rscale>
<asrwt>0</asrwt>
<pdfrwt beam="1">  1        1 0.33711613E-02 0.91987460E+02</pdfrwt>
<pdfrwt beam="2">  1       -1 0.14852208E-01 0.91987460E+02</pdfrwt>
<totfact> 0.80054632E+04</totfact>
</mgrwt>
</event>
<event>
 5    1  0.2718303E+000  0.9508902E+02  0.7818608E-02  0.1290976E+00
          1   -1    0    0  501    0  0.00000000000E+00  0.00000000000E+00  0.32319334317E+03  0.32319334321E+03  0.46700000000E-02 0. -1.
         -1   -1    0    0    0  501 -0.00000000000E+00 -0.00000000000E+00 -0.69942037270E+01  0.69942052861E+01  0.46700000000E-02 0.  1.
         23    2    1    2    0    0  0.00000000000E+00  0.00000000000E+00  0.31619913945E+03  0.33018754849E+03  0.95089018259E+02 0.  0.
        -11    1    3    3    0    0  0.35490518813E+02 -0.30742726781E+02  0.18403547408E+03  0.18993090296E+03  0.51100000000E-03 0. -1.
         11    1    3    3    0    0 -0.35490518813E+02  0.30742726781E+02  0.13216366536E+03  0.14025664554E+03  0.51100000000E-03 0.  1.
<mgrwt>
<rscale>  0 0.95089018E+02</rscale>
<asrwt>0</asrwt>
<pdfrwt beam="1">  1        1 0.49722041E-01 0.95089018E+02</pdfrwt>
<pdfrwt beam="2">  1       -1 0.10760317E-02 0.95089018E+02</pdfrwt>
<totfact> 0.11614854E+05</totfact>
</mgrwt>
</event>
<event>
 5    1  0.2718303E+000  0.9175678E+02  0.7818608E-02  0.1298652E+00
         -1   -1    0    0    0  501 -0.00000000000E+00  0.00000000000E+00  0.58568033290E+02  0.58568033476E+02  0.46700000000E-02 0.  1.
          1   -1    0    0  501    0  0.00000000000E+00 -0.00000000000E+00 -0.35938144262E+02  0.35938144565E+02  0.46700000000E-02 0. -1.
         23    2    1    2    0    0  0.00000000000E+00  0.00000000000E+00  0.22629889028E+02  0.94506178041E+02  0.91756775284E+02 0.  0.
        -11    1    3    3    0    0 -0.14864471688E+02 -0.45852300561E+01  0.55768955671E+02  0.57897782946E+02  0.51100000000E-03 0.  1.
         11    1    3    3    0    0  0.14864471688E+02  0.45852300561E+01 -0.33139066642E+02  0.36608395095E+02  0.51100000000E-03 0. -1.
<mgrwt>
<rscale>  0 0.91756775E+02</rscale>
<asrwt>0</asrwt>
<pdfrwt beam="2">  1        1 0.55289454E-02 0.91756775E+02</pdfrwt>
<pdfrwt beam="1">  1       -1 0.90104665E-02 0.91756775E+02</pdfrwt>
<totfact> 0.87594292E+04</totfact>
</mgrwt>
</event>
<event>
 5    1  0.2718303E+000  0.9370720E+02  0.7818608E-02  0.1294115E+00
         -1   -1    0    0    0  501 -0.00000000000E+00  0.00000000000E+00  0.66622515556E+02  0.66622515720E+02  0.46700000000E-02 0.  1.
          1   -1    0    0  501    0  0.00000000000E+00 -0.00000000000E+00 -0.32950717092E+02  0.32950717422E+02  0.46700000000E-02 0. -1.
         23    2    1    2    0    0  0.00000000000E+00  0.00000000000E+00  0.33671798465E+02  0.99573233142E+02  0.93707196877E+02 0.  0.
        -11    1    3    3    0    0 -0.83080244345E+01 -0.39800362504E+02  0.41577991764E+02  0.58153430895E+02  0.51100000000E-03 0.  1.
         11    1    3    3    0    0  0.83080244345E+01  0.39800362504E+02 -0.79061932991E+01  0.41419802247E+02  0.51100000000E-03 0. -1.
<mgrwt>
<rscale>  0 0.93707197E+02</rscale>
<asrwt>0</asrwt>
<pdfrwt beam="2">  1        1 0.50693412E-02 0.93707197E+02</pdfrwt>
<pdfrwt beam="1">  1       -1 0.10249618E-01 0.93707197E+02</pdfrwt>
<totfact> 0.81352867E+04</totfact>
</mgrwt>
</event>
<event>
 5    1  0.2718303E+000  0.9060020E+02  0.7818608E-02  0.1301405E+00
          1   -1    0    0  501    0  0.00000000000E+00  0.00000000000E+00  0.12242181862E+02  0.12242182753E+02  0.46700000000E-02 0. -1.
         -1   -1    0    0    0  501 -0.00000000000E+00 -0.00000000000E+00 -0.16762527324E+03  0.16762527331E+03  0.46700000000E-02 0.  1.
         23    2    1    2    0    0  0.00000000000E+00  0.00000000000E+00 -0.15538309138E+03  0.17986745606E+03  0.90600202333E+02 0.  0.
        -11    1    3    3    0    0 -0.45094052133E+02 -0.33512704672E+01 -0.72292945372E+02  0.85270009396E+02  0.51100000000E-03 0. -1.
         11    1    3    3    0    0  0.45094052133E+02  0.33512704672E+01 -0.83090146008E+02  0.94597446665E+02  0.51100000000E-03 0.  1.
<mgrwt>
<rscale>  0 0.90600202E+02</rscale>
<asrwt>0</asrwt>
<pdfrwt beam="1">  1        1 0.18834128E-02 0.90600202E+02</pdfrwt>
<pdfrwt beam="2">  1       -1 0.25788502E-01 0.90600202E+02</pdfrwt>
<totfact> 0.74007056E+04</totfact>
</mgrwt>
</event>
<event>
 5    1  0.2718303E+000  0.9923024E+02  0.7818608E-02  0.1281923E+00
          1   -1    0    0  501    0  0.00000000000E+00  0.00000000000E+00  0.13501254772E+03  0.13501254780E+03  0.46700000000E-02 0. -1.
         -1   -1    0    0    0  501 -0.00000000000E+00 -0.00000000000E+00 -0.18232824033E+02  0.18232824631E+02  0.46700000000E-02 0.  1.
         23    2    1    2    0    0  0.00000000000E+00  0.00000000000E+00  0.11677972368E+03  0.15324537243E+03  0.99230238874E+02 0.  0.
        -11    1    3    3    0    0  0.41938262354E+02  0.19782145605E+02  0.85646895556E+02  0.97393746476E+02  0.51100000000E-03 0. -1.
         11    1    3    3    0    0 -0.41938262354E+02 -0.19782145605E+02  0.31132828129E+02  0.55851625953E+02  0.51100000000E-03 0.  1.
<mgrwt>
<rscale>  0 0.99230239E+02</rscale>
<asrwt>0</asrwt>
<pdfrwt beam="1">  1        1 0.20771161E-01 0.99230239E+02</pdfrwt>
<pdfrwt beam="2">  1       -1 0.28050499E-02 0.99230239E+02</pdfrwt>
<totfact> 0.87386235E+04</totfact>
</mgrwt>
</event>
<event>
 5    1  0.2718303E+000  0.8977545E+02  0.7818608E-02  0.1303396E+00
          1   -1    0    0  501    0  0.00000000000E+00  0.00000000000E+00  0.21807103870E+02  0.21807104370E+02  0.46700000000E-02 0. -1.
         -1   -1    0    0    0  501 -0.00000000000E+00 -0.00000000000E+00 -0.92396861885E+02  0.92396862003E+02  0.46700000000E-02 0.  1.
         23    2    1    2    0    0  0.00000000000E+00  0.00000000000E+00 -0.70589758016E+02  0.11420396637E+03  0.89775453208E+02 0.  0.
        -11    1    3    3    0    0  0.29295881537E+02  0.24564642773E+02 -0.65216109188E+02  0.75596370598E+02  0.51100000000E-03 0.  1.
         11    1    3    3    0    0 -0.29295881537E+02 -0.24564642773E+02 -0.53736488271E+01  0.38607595775E+02  0.51100000000E-03 0. -1.
<mgrwt>
<rscale>  0 0.89775453E+02</rscale>
<asrwt>0</asrwt>
<pdfrwt beam="1">  1        1 0.33549392E-02 0.89775453E+02</pdfrwt>
<pdfrwt beam="2">  1       -1 0.14214902E-01 0.89775453E+02</pdfrwt>
<totfact> 0.85903220E+04</totfact>
</mgrwt>
</event>
<event>
 5    1  0.2718303E+000  0.9054517E+02  0.7818608E-02  0.1301537E+00
         -1   -1    0    0    0  501 -0.00000000000E+00  0.00000000000E+00  0.38626973906E+02  0.38626974188E+02  0.46700000000E-02 0.  1.
          1   -1    0    0  501    0  0.00000000000E+00 -0.00000000000E+00 -0.53061540591E+02  0.53061540796E+02  0.46700000000E-02 0. -1.
         23    2    1    2    0    0  0.00000000000E+00  0.00000000000E+00 -0.14434566684E+02  0.91688514985E+02  0.90545165883E+02 0.  0.
        -11    1    3    3    0    0  0.33823592564E+02  0.30023335019E+02 -0.92853021113E+01  0.46169826674E+02  0.51100000000E-03 0. -1.
         11    1    3    3    0    0 -0.33823592564E+02 -0.30023335019E+02 -0.51492645732E+01  0.45518688310E+02  0.51100000000E-03 0.  1.
<mgrwt>
<rscale>  0 0.90545166E+02</rscale>
<asrwt>0</asrwt>
<pdfrwt beam="2">  1        1 0.81633139E-02 0.90545166E+02</pdfrwt>
<pdfrwt beam="1">  1       -1 0.59426114E-02 0.90545166E+02</pdfrwt>
<totfact> 0.96453278E+04</totfact>
</mgrwt>
</event>
<event>
 5    1  0.2718303E+000  0.9116871E+02  0.7818608E-02  0.1300046E+00
          1   -1    0    0  501    0  0.00000000000E+00  0.00000000000E+00  0.28169336190E+02  0.28169336577E+02  0.46700000000E-02 0. -1.
         -1   -1    0    0    0  501 -0.00000000000E+00 -0.00000000000E+00 -0.73765787023E+02  0.73765787170E+02  0.46700000000E-02 0.  1.
         23    2    1    2    0    0  0.00000000000E+00  0.00000000000E+00 -0.45596450833E+02  0.10193512375E+03  0.91168706939E+02 0.  0.
        -11    1    3    3    0    0  0.17519806271E+02 -0.22900663548E+02 -0.62274193130E+02  0.68625499146E+02  0.51100000000E-03 0.  1.
         11    1    3    3    0    0 -0.17519806271E+02  0.22900663548E+02  0.16677742297E+02  0.33309624602E+02  0.51100000000E-03 0. -1.
<mgrwt>
<rscale>  0 0.91168707E+02</rscale>
<asrwt>0</asrwt>
<pdfrwt beam="1">  1        1 0.43337441E-02 0.91168707E+02</pdfrwt>
<pdfrwt beam="2">  1       -1 0.11348583E-01 0.91168707E+02</pdfrwt>
<totfact> 0.85822717E+04</totfact>
</mgrwt>
</event>
<event>
 5    1  0.2718303E+000  0.9568589E+02  0.7818608E-02  0.1289639E+00
          1   -1    0    0  501    0  0.00000000000E+00  0.00000000000E+00  0.35066539261E+03  0.35066539264E+03  0.46700000000E-02 0. -1.
         -1   -1    0    0    0  501 -0.00000000000E+00 -0.00000000000E+00 -0.65274393960E+01  0.65274410666E+01  0.46700000000E-02 0.  1.
         23    2    1    2    0    0  0.00000000000E+00  0.00000000000E+00  0.34413795321E+03  0.35719283370E+03  0.95685890338E+02 0.  0.
        -11    1    3    3    0    0  0.44474844514E+02  0.68032083014E+00  0.10629310769E+03  0.11522456064E+03  0.51100000000E-03 0.  1.
         11    1    3    3    0    0 -0.44474844514E+02 -0.68032083014E+00  0.23784484552E+03  0.24196827307E+03  0.51100000000E-03 0. -1.
<mgrwt>
<rscale>  0 0.95685890E+02</rscale>
<asrwt>0</asrwt>
<pdfrwt beam="1">  1        1 0.53948528E-01 0.95685890E+02</pdfrwt>
<pdfrwt beam="2">  1       -1 0.10042215E-02 0.95685890E+02</pdfrwt>
<totfact> 0.11594717E+05</totfact>
</mgrwt>
</event>
<event>
 5    1  0.2718303E+000  0.9243868E+02  0.7818608E-02  0.1297051E+00
         -1   -1    0    0    0  501 -0.00000000000E+00  0.00000000000E+00  0.48450386115E+01  0.48450408621E+01  0.46700000000E-02 0.  1.
          1   -1    0    0  501    0  0.00000000000E+00 -0.00000000000E+00 -0.44091017345E+03  0.44091017348E+03  0.46700000000E-02 0. -1.
         23    2    1    2    0    0  0.00000000000E+00  0.00000000000E+00 -0.43606513484E+03  0.44575521434E+03  0.92438678522E+02 0.  0.
        -11    1    3    3    0    0 -0.20309457160E+02 -0.41150691167E+02 -0.24460876819E+03  0.24887607942E+03  0.51100000000E-03 0.  1.
         11    1    3    3    0    0  0.20309457160E+02  0.41150691167E+02 -0.19145636665E+03  0.19687913492E+03  0.51100000000E-03 0. -1.
<mgrwt>
<rscale>  0 0.92438679E+02</rscale>
<asrwt>0</asrwt>
<pdfrwt beam="2">  1        1 0.67832303E-01 0.92438679E+02</pdfrwt>
<pdfrwt beam="1">  1       -1 0.74539108E-03 0.92438679E+02</pdfrwt>
<totfact> 0.13204297E+05</totfact>
</mgrwt>
</event>
<event>
 5    1  0.2718303E+000  0.8983654E+02  0.7818608E-02  0.1303248E+00
          1   -1    0    0  501    0  0.00000000000E+00  0.00000000000E+00  0.54667808009E+01  0.54667827956E+01  0.46700000000E-02 0. -1.
         -1   -1    0    0    0  501 -0.00000000000E+00 -0.00000000000E+00 -0.36907470253E+03  0.36907470256E+03  0.46700000000E-02 0.  1.
         23    2    1    2    0    0  0.00000000000E+00  0.00000000000E+00 -0.36360792172E+03  0.37454148535E+03  0.89836537710E+02 0.  0.
        -11    1    3    3    0    0  0.26268360324E+02 -0.36147347378E+02 -0.16270154419E+03  0.16872596113E+03  0.51100000000E-03 0. -1.
         11    1    3    3    0    0 -0.26268360324E+02  0.36147347378E+02 -0.20090637753E+03  0.20581552422E+03  0.51100000000E-03 0.  1.
<mgrwt>
<rscale>  0 0.89836538E+02</rscale>
<asrwt>0</asrwt>
<pdfrwt beam="1">  1        1 0.84104365E-03 0.89836538E+02</pdfrwt>
<pdfrwt beam="2">  1       -1 0.56780704E-01 0.89836538E+02</pdfrwt>
<totfact> 0.57611501E+04</totfact>
</mgrwt>
</event>
<event>
 5    1  0.2718303E+000  0.9301475E+02  0.7818608E-02  0.1295711E+00
         -1   -1    0    0    0  501 -0.00000000000E+00  0.00000000000E+00  0.36101808671E+02  0.36101808973E+02  0.46700000000E-02 0.  1.
          1   -1    0    0  501    0  0.00000000000E+00 -0.00000000000E+00 -0.59912118751E+02  0.59912118933E+02  0.46700000000E-02 0. -1.
         23    2    1    2    0    0  0.00000000000E+00  0.00000000000E+00 -0.23810310080E+02  0.96013927906E+02  0.93014748755E+02 0.  0.
        -11    1    3    3    0    0  0.16453421073E+02 -0.42295602978E+00  0.32994995405E+02  0.36872261645E+02  0.51100000000E-03 0.  1.
         11    1    3    3    0    0 -0.16453421073E+02  0.42295602978E+00 -0.56805305484E+02  0.59141666262E+02  0.51100000000E-03 0. -1.
<mgrwt>
<rscale>  0 0.93014749E+02</rscale>
<asrwt>0</asrwt>
<pdfrwt beam="2">  1        1 0.92172491E-02 0.93014749E+02</pdfrwt>
<pdfrwt beam="1">  1       -1 0.55541244E-02 0.93014749E+02</pdfrwt>
<totfact> 0.91148538E+04</totfact>
</mgrwt>
</event>
<event>
 5    1  0.2718303E+000  0.9077228E+02  0.7818608E-02  0.1300992E+00
          1   -1    0    0  501    0  0.00000000000E+00  0.00000000000E+00  0.99128273126E+02  0.99128273236E+02  0.46700000000E-02 0. -1.
         -1   -1    0    0    0  501 -0.00000000000E+00 -0.00000000000E+00 -0.20780165106E+02  0.20780165631E+02  0.46700000000E-02 0.  1.
         23    2    1    2    0    0  0.00000000000E+00  0.00000000000E+00  0.78348108020E+02  0.11990843887E+03  0.90772284764E+02 0.  0.
        -11    1    3    3    0    0 -0.30068850482E+02  0.28813621664E+02  0.63008198446E+02  0.75527436302E+02  0.51100000000E-03 0. -1.
         11    1    3    3    0    0  0.30068850482E+02 -0.28813621664E+02  0.15339909574E+02  0.44381002565E+02  0.51100000000E-03 0.  1.
<mgrwt>
<rscale>  0 0.90772285E+02</rscale>
<asrwt>0</asrwt>
<pdfrwt beam="1">  1        1 0.15250504E-01 0.90772285E+02</pdfrwt>
<pdfrwt beam="2">  1       -1 0.31969485E-02 0.90772285E+02</pdfrwt>
<totfact> 0.10557163E+05</totfact>
</mgrwt>
</event>
<event>
 5    1  0.2718303E+000  0.8964589E+02  0.7818608E-02  0.1303712E+00
          1   -1    0    0  501    0  0.00000000000E+00  0.00000000000E+00  0.19183783884E+03  0.19183783890E+03  0.46700000000E-02 0. -1.
         -1   -1    0    0    0  501 -0.00000000000E+00 -0.00000000000E+00 -0.10472887393E+02  0.10472888434E+02  0.46700000000E-02 0.  1.
         23    2    1    2    0    0  0.00000000000E+00  0.00000000000E+00  0.18136495145E+03  0.20231072733E+03  0.89645885459E+02 0.  0.
        -11    1    3    3    0    0  0.41136619485E+02 -0.20964635379E+01  0.50789230538E+02  0.65392373874E+02  0.51100000000E-03 0. -1.
         11    1    3    3    0    0 -0.41136619485E+02  0.20964635379E+01  0.13057572091E+03  0.13691835346E+03  0.51100000000E-03 0.  1.
<mgrwt>
<rscale>  0 0.89645885E+02</rscale>
<asrwt>0</asrwt>
<pdfrwt beam="1">  1        1 0.29513515E-01 0.89645885E+02</pdfrwt>
<pdfrwt beam="2">  1       -1 0.16112135E-02 0.89645885E+02</pdfrwt>
<totfact> 0.12290768E+05</totfact>
</mgrwt>
</event>
<event>
 5    1  0.2718303E+000  0.9041454E+02  0.7818608E-02  0.1301851E+00
          1   -1    0    0  501    0  0.00000000000E+00  0.00000000000E+00  0.10002312969E+03  0.10002312980E+03  0.46700000000E-02 0. -1.
         -1   -1    0    0    0  501 -0.00000000000E+00 -0.00000000000E+00 -0.20432246619E+02  0.20432247153E+02  0.46700000000E-02 0.  1.
         23    2    1    2    0    0  0.00000000000E+00  0.00000000000E+00  0.79590883076E+02  0.12045537696E+03  0.90414540694E+02 0.  0.
        -11    1    3    3    0    0  0.38533556931E+02  0.12112077150E+02  0.66842545009E+02  0.78099060469E+02  0.51100000000E-03 0. -1.
         11    1    3    3    0    0 -0.38533556931E+02 -0.12112077150E+02  0.12748338066E+02  0.42356316487E+02  0.51100000000E-03 0.  1.
<mgrwt>
<rscale>  0 0.90414541E+02</rscale>
<asrwt>0</asrwt>
<pdfrwt beam="1">  1        1 0.15388174E-01 0.90414541E+02</pdfrwt>
<pdfrwt beam="2">  1       -1 0.31434226E-02 0.90414541E+02</pdfrwt>
<totfact> 0.10687123E+05</totfact>
</mgrwt>
</event>
<event>
 5    1  0.2718303E+000  0.9512295E+02  0.7818608E-02  0.1290899E+00
          1   -1    0    0  501    0  0.00000000000E+00  0.00000000000E+00  0.22854491922E+03  0.22854491927E+03  0.46700000000E-02 0. -1.
         -1   -1    0    0    0  501 -0.00000000000E+00 -0.00000000000E+00 -0.98978087222E+01  0.98978098239E+01  0.46700000000E-02 0.  1.
         23    2    1    2    0    0  0.00000000000E+00  0.00000000000E+00  0.21864711050E+03  0.23844272909E+03  0.95122952685E+02 0.  0.
        -11    1    3    3    0    0 -0.35261088123E+01 -0.38617964839E+02  0.17835121039E+03  0.18251831387E+03  0.51100000000E-03 0. -1.
         11    1    3    3    0    0  0.35261088123E+01  0.38617964839E+02  0.40295900110E+02  0.55924415220E+02  0.51100000000E-03 0.  1.
<mgrwt>
<rscale>  0 0.95122953E+02</rscale>
<asrwt>0</asrwt>
<pdfrwt beam="1">  1        1 0.35160752E-01 0.95122953E+02</pdfrwt>
<pdfrwt beam="2">  1       -1 0.15227401E-02 0.95122953E+02</pdfrwt>
<totfact> 0.10846367E+05</totfact>
</mgrwt>
</event>
<event>
 5    1  0.2718303E+000  0.9080457E+02  0.7818608E-02  0.1300915E+00
         -1   -1    0    0    0  501 -0.00000000000E+00  0.00000000000E+00  0.23960901881E+02  0.23960902337E+02  0.46700000000E-02 0.  1.
          1   -1    0    0  501    0  0.00000000000E+00 -0.00000000000E+00 -0.86030460823E+02  0.86030460950E+02  0.46700000000E-02 0. -1.
         23    2    1    2    0    0  0.00000000000E+00  0.00000000000E+00 -0.62069558942E+02  0.10999136329E+03  0.90804569546E+02 0.  0.
        -11    1    3    3    0    0  0.14432141912E+02  0.30958821325E+02 -0.67265179172E+02  0.75440968096E+02  0.51100000000E-03 0. -1.
         11    1    3    3    0    0 -0.14432141912E+02 -0.30958821325E+02  0.51956202300E+01  0.34550395191E+02  0.51100000000E-03 0.  1.
<mgrwt>
<rscale>  0 0.90804570E+02</rscale>
<asrwt>0</asrwt>
<pdfrwt beam="2">  1        1 0.13235455E-01 0.90804570E+02</pdfrwt>
<pdfrwt beam="1">  1       -1 0.36862927E-02 0.90804570E+02</pdfrwt>
<totfact> 0.10306362E+05</totfact>
</mgrwt>
</event>
<event>
 5    1  0.2718303E+000  0.7825268E+02  0.7818608E-02  0.1334084E+00
         -1   -1    0    0    0  501 -0.00000000000E+00  0.00000000000E+00  0.41609372446E+02  0.41609372709E+02  0.46700000000E-02 0.  1.
          1   -1    0    0  501    0  0.00000000000E+00 -0.00000000000E+00 -0.36791481569E+02  0.36791481866E+02  0.46700000000E-02 0. -1.
         23    2    1    2    0    0  0.00000000000E+00  0.00000000000E+00  0.48178908772E+01  0.78400854574E+02  0.78252679989E+02 0.  0.
        -11    1    3    3    0    0 -0.15478628327E+02  0.36397844723E+00  0.38409561879E+02  0.41412737886E+02  0.51100000000E-03 0.  1.
         11    1    3    3    0    0  0.15478628327E+02 -0.36397844723E+00 -0.33591671002E+02  0.36988116688E+02  0.51100000000E-03 0. -1.
<mgrwt>
<rscale>  0 0.78252680E+02</rscale>
<asrwt>0</asrwt>
<pdfrwt beam="2">  1        1 0.56602280E-02 0.78252680E+02</pdfrwt>
<pdfrwt beam="1">  1       -1 0.64014419E-02 0.78252680E+02</pdfrwt>
<totfact> 0.13729681E+05</totfact>
</mgrwt>
</event>
<event>
 5    1  0.2718303E+000  0.9111799E+02  0.7818608E-02  0.1300167E+00
          1   -1    0    0  501    0  0.00000000000E+00  0.00000000000E+00  0.26948619047E+02  0.26948619451E+02  0.46700000000E-02 0. -1.
         -1   -1    0    0    0  501 -0.00000000000E+00 -0.00000000000E+00 -0.77021462096E+02  0.77021462238E+02  0.46700000000E-02 0.  1.
         23    2    1    2    0    0  0.00000000000E+00  0.00000000000E+00 -0.50072843049E+02  0.10397008169E+03  0.91117990953E+02 0.  0.
        -11    1    3    3    0    0 -0.18304519530E+02  0.41476423861E+02 -0.19898799418E+02  0.49510719951E+02  0.51100000000E-03 0.  1.
         11    1    3    3    0    0  0.18304519530E+02 -0.41476423861E+02 -0.30174043631E+02  0.54459361738E+02  0.51100000000E-03 0. -1.
<mgrwt>
<rscale>  0 0.91117991E+02</rscale>
<asrwt>0</asrwt>
<pdfrwt beam="1">  1        1 0.41459415E-02 0.91117991E+02</pdfrwt>
<pdfrwt beam="2">  1       -1 0.11849456E-01 0.91117991E+02</pdfrwt>
<totfact> 0.85332677E+04</totfact>
</mgrwt>
</event>
<event>
 5    1  0.2718303E+000  0.8440151E+02  0.7818608E-02  0.1317005E+00
          1   -1    0    0  501    0  0.00000000000E+00  0.00000000000E+00  0.57865897816E+02  0.57865898005E+02  0.46700000000E-02 0. -1.
         -1   -1    0    0    0  501 -0.00000000000E+00 -0.00000000000E+00 -0.30776396770E+02  0.30776397124E+02  0.46700000000E-02 0.  1.
         23    2    1    2    0    0  0.00000000000E+00  0.00000000000E+00  0.27089501046E+02  0.88642295129E+02  0.84401513131E+02 0.  0.
        -11    1    3    3    0    0  0.20968580625E+02  0.26580394481E+01 -0.24816634541E+02  0.32597728408E+02  0.51100000000E-03 0.  1.
         11    1    3    3    0    0 -0.20968580625E+02 -0.26580394481E+01  0.51906135587E+02  0.56044566721E+02  0.51100000000E-03 0. -1.
<mgrwt>
<rscale>  0 0.84401513E+02</rscale>
<asrwt>0</asrwt>
<pdfrwt beam="1">  1        1 0.89024458E-02 0.84401513E+02</pdfrwt>
<pdfrwt beam="2">  1       -1 0.47348303E-02 0.84401513E+02</pdfrwt>
<totfact> 0.11860795E+05</totfact>
</mgrwt>
</event>
<event>
 5    1  0.2718303E+000  0.8294124E+02  0.7818608E-02  0.1320906E+00
          1   -1    0    0  501    0  0.00000000000E+00  0.00000000000E+00  0.33449155600E+03  0.33449155603E+03  0.46700000000E-02 0. -1.
         -1   -1    0    0    0  501 -0.00000000000E+00 -0.00000000000E+00 -0.51415707004E+01  0.51415728212E+01  0.46700000000E-02 0.  1.
         23    2    1    2    0    0  0.00000000000E+00  0.00000000000E+00  0.32934998530E+03  0.33963312885E+03  0.82941240636E+02 0.  0.
        -11    1    3    3    0    0  0.21511727628E+02 -0.34032295369E+02  0.20538972363E+03  0.20929856695E+03  0.51100000000E-03 0. -1.
         11    1    3    3    0    0 -0.21511727628E+02  0.34032295369E+02  0.12396026167E+03  0.13033456190E+03  0.51100000000E-03 0.  1.
<mgrwt>
<rscale>  0 0.82941241E+02</rscale>
<asrwt>0</asrwt>
<pdfrwt beam="1">  1        1 0.51460245E-01 0.82941241E+02</pdfrwt>
<pdfrwt beam="2">  1       -1 0.79101096E-03 0.82941241E+02</pdfrwt>
<totfact> 0.16799073E+05</totfact>
</mgrwt>
</event>
<event>
 5    1  0.2718303E+000  0.8806168E+02  0.7818608E-02  0.1307615E+00
         -1   -1    0    0    0  501 -0.00000000000E+00  0.00000000000E+00  0.64280103623E+02  0.64280103793E+02  0.46700000000E-02 0.  1.
          1   -1    0    0  501    0  0.00000000000E+00 -0.00000000000E+00 -0.30160419752E+02  0.30160420113E+02  0.46700000000E-02 0. -1.
         23    2    1    2    0    0  0.00000000000E+00  0.00000000000E+00  0.34119683872E+02  0.94440523906E+02  0.88061681384E+02 0.  0.
        -11    1    3    3    0    0  0.23489613562E+02  0.14910609950E+02  0.53658468260E+02  0.60442695594E+02  0.51100000000E-03 0.  1.
         11    1    3    3    0    0 -0.23489613562E+02 -0.14910609950E+02 -0.19538784388E+02  0.33997828313E+02  0.51100000000E-03 0. -1.
<mgrwt>
<rscale>  0 0.88061681E+02</rscale>
<asrwt>0</asrwt>
<pdfrwt beam="2">  1        1 0.46400646E-02 0.88061681E+02</pdfrwt>
<pdfrwt beam="1">  1       -1 0.98892467E-02 0.88061681E+02</pdfrwt>
<totfact> 0.95822150E+04</totfact>
</mgrwt>
</event>
<event>
 5    1  0.2718303E+000  0.9322323E+02  0.7818608E-02  0.1295229E+00
          1   -1    0    0  501    0  0.00000000000E+00  0.00000000000E+00  0.85552228998E+01  0.85552241744E+01  0.46700000000E-02 0. -1.
         -1   -1    0    0    0  501 -0.00000000000E+00 -0.00000000000E+00 -0.25395507834E+03  0.25395507839E+03  0.46700000000E-02 0.  1.
         23    2    1    2    0    0  0.00000000000E+00  0.00000000000E+00 -0.24539985544E+03  0.26251030256E+03  0.93223226176E+02 0.  0.
        -11    1    3    3    0    0 -0.26294254536E+02 -0.29109025623E+02 -0.19359877993E+03  0.19753280939E+03  0.51100000000E-03 0.  1.
         11    1    3    3    0    0  0.26294254536E+02  0.29109025623E+02 -0.51801075516E+02  0.64977493174E+02  0.51100000000E-03 0. -1.
<mgrwt>
<rscale>  0 0.93223226E+02</rscale>
<asrwt>0</asrwt>
<pdfrwt beam="1">  1        1 0.13161884E-02 0.93223226E+02</pdfrwt>
<pdfrwt beam="2">  1       -1 0.39070007E-01 0.93223226E+02</pdfrwt>
<totfact> 0.60786319E+04</totfact>
</mgrwt>
</event>
<event>
 4    1  0.2718303E+000  0.4073284E+02  0.7818608E-02  0.1502887E+00
          1   -1    0    0  501    0  0.00000000000E+00  0.00000000000E+00  0.11242312706E+02  0.11242313676E+02  0.46700000000E-02 0.  1.
         -1   -1    0    0    0  501 -0.00000000000E+00 -0.00000000000E+00 -0.36895519626E+02  0.36895519922E+02  0.46700000000E-02 0. -1.
        -11    1    1    2    0    0  0.68918056673E+01 -0.15310705142E+02 -0.26449381568E+02  0.31328652427E+02  0.51100000000E-03 0. -1.
         11    1    1    2    0    0 -0.68918056673E+01  0.15310705142E+02  0.79617464783E+00  0.16809181171E+02  0.51100000000E-03 0.  1.
<mgrwt>
<rscale>  0 0.40732837E+02</rscale>
<asrwt>0</asrwt>
<pdfrwt beam="1">  1        1 0.17295867E-02 0.40732837E+02</pdfrwt>
<pdfrwt beam="2">  1       -1 0.56762338E-02 0.40732837E+02</pdfrwt>
<totfact> 0.69357260E+05</totfact>
</mgrwt>
</event>
<event>
 5    1  0.2718303E+000  0.9122004E+02  0.7818608E-02  0.1299924E+00
         -1   -1    0    0    0  501 -0.00000000000E+00  0.00000000000E+00  0.34891920385E+02  0.34891920698E+02  0.46700000000E-02 0.  1.
          1   -1    0    0  501    0  0.00000000000E+00 -0.00000000000E+00 -0.59620501256E+02  0.59620501439E+02  0.46700000000E-02 0. -1.
         23    2    1    2    0    0  0.00000000000E+00  0.00000000000E+00 -0.24728580871E+02  0.94512422136E+02  0.91220037416E+02 0.  0.
        -11    1    3    3    0    0  0.14165188698E+02 -0.36103015079E+02  0.12506113489E+02  0.40749026289E+02  0.51100000000E-03 0.  1.
         11    1    3    3    0    0 -0.14165188698E+02  0.36103015079E+02 -0.37234694360E+02  0.53763395847E+02  0.51100000000E-03 0. -1.
<mgrwt>
<rscale>  0 0.91220037E+02</rscale>
<asrwt>0</asrwt>
<pdfrwt beam="2">  1        1 0.91723848E-02 0.91220037E+02</pdfrwt>
<pdfrwt beam="1">  1       -1 0.53679878E-02 0.91220037E+02</pdfrwt>
<totfact> 0.96152212E+04</totfact>
</mgrwt>
</event>
<event>
 5    1  0.2718303E+000  0.9153983E+02  0.7818608E-02  0.1299165E+00
         -1   -1    0    0    0  501 -0.00000000000E+00  0.00000000000E+00  0.24068480757E+02  0.24068481210E+02  0.46700000000E-02 0. -1.
          1   -1    0    0  501    0  0.00000000000E+00 -0.00000000000E+00 -0.87038533558E+02  0.87038533683E+02  0.46700000000E-02 0.  1.
         23    2    1    2    0    0  0.00000000000E+00  0.00000000000E+00 -0.62970052801E+02  0.11110701489E+03  0.91539833999E+02 0.  0.
        -11    1    3    3    0    0  0.32324306158E+02 -0.31998946240E+02 -0.25285124506E+02  0.52039704560E+02  0.51100000000E-03 0.  1.
         11    1    3    3    0    0 -0.32324306158E+02  0.31998946240E+02 -0.37684928295E+02  0.59067310333E+02  0.51100000000E-03 0. -1.
<mgrwt>
<rscale>  0 0.91539834E+02</rscale>
<asrwt>0</asrwt>
<pdfrwt beam="2">  1        1 0.13390543E-01 0.91539834E+02</pdfrwt>
<pdfrwt beam="1">  1       -1 0.37028433E-02 0.91539834E+02</pdfrwt>
<totfact> 0.10100106E+05</totfact>
</mgrwt>
</event>
<event>
 5    1  0.2718303E+000  0.6500481E+02  0.7818608E-02  0.1377953E+00
          1   -1    0    0  501    0  0.00000000000E+00  0.00000000000E+00  0.17502455953E+03  0.17502455959E+03  0.46700000000E-02 0. -1.
         -1   -1    0    0    0  501 -0.00000000000E+00 -0.00000000000E+00 -0.60357596941E+01  0.60357615008E+01  0.46700000000E-02 0.  1.
         23    2    1    2    0    0  0.00000000000E+00  0.00000000000E+00  0.16898879983E+03  0.18106032109E+03  0.65004810625E+02 0.  0.
        -11    1    3    3    0    0 -0.88356708864E-01  0.32493262754E+02  0.86627356381E+02  0.92520910097E+02  0.51100000000E-03 0. -1.
         11    1    3    3    0    0  0.88356708864E-01 -0.32493262754E+02  0.82361443453E+02  0.88539410995E+02  0.51100000000E-03 0.  1.
<mgrwt>
<rscale>  0 0.65004811E+02</rscale>
<asrwt>0</asrwt>
<pdfrwt beam="1">  1        1 0.26926850E-01 0.65004811E+02</pdfrwt>
<pdfrwt beam="2">  1       -1 0.92857875E-03 0.65004811E+02</pdfrwt>
<totfact> 0.28161756E+05</totfact>
</mgrwt>
</event>
<event>
 5    1  0.2718303E+000  0.8997753E+02  0.7818608E-02  0.1302906E+00
          1   -1    0    0  501    0  0.00000000000E+00  0.00000000000E+00  0.71615010519E+02  0.71615010672E+02  0.46700000000E-02 0. -1.
         -1   -1    0    0    0  501 -0.00000000000E+00 -0.00000000000E+00 -0.28262075311E+02  0.28262075697E+02  0.46700000000E-02 0.  1.
         23    2    1    2    0    0  0.00000000000E+00  0.00000000000E+00  0.43352935208E+02  0.99877086369E+02  0.89977527141E+02 0.  0.
        -11    1    3    3    0    0 -0.11135646996E+02 -0.45732177058E+01 -0.26441082759E+02  0.29052500959E+02  0.51100000000E-03 0.  1.
         11    1    3    3    0    0  0.11135646996E+02  0.45732177058E+01  0.69794017967E+02  0.70824585410E+02  0.51100000000E-03 0. -1.
<mgrwt>
<rscale>  0 0.89977527E+02</rscale>
<asrwt>0</asrwt>
<pdfrwt beam="1">  1        1 0.11017694E-01 0.89977527E+02</pdfrwt>
<pdfrwt beam="2">  1       -1 0.43480117E-02 0.89977527E+02</pdfrwt>
<totfact> 0.10268875E+05</totfact>
</mgrwt>
</event>
<event>
 5    1  0.2718303E+000  0.9121781E+02  0.7818608E-02  0.1299929E+00
         -1   -1    0    0    0  501 -0.00000000000E+00  0.00000000000E+00  0.52740059914E+02  0.52740060120E+02  0.46700000000E-02 0.  1.
          1   -1    0    0  501    0  0.00000000000E+00 -0.00000000000E+00 -0.39441972681E+02  0.39441972957E+02  0.46700000000E-02 0. -1.
         23    2    1    2    0    0  0.00000000000E+00  0.00000000000E+00  0.13298087233E+02  0.92182033078E+02  0.91217805818E+02 0.  0.
        -11    1    3    3    0    0  0.10431065638E+02 -0.26728701190E+02  0.42477176882E+02  0.51259546953E+02  0.51100000000E-03 0.  1.
         11    1    3    3    0    0 -0.10431065638E+02  0.26728701190E+02 -0.29179089649E+02  0.40922486125E+02  0.51100000000E-03 0. -1.
<mgrwt>
<rscale>  0 0.91217806E+02</rscale>
<asrwt>0</asrwt>
<pdfrwt beam="2">  1        1 0.60679959E-02 0.91217806E+02</pdfrwt>
<pdfrwt beam="1">  1       -1 0.81138554E-02 0.91217806E+02</pdfrwt>
<totfact> 0.90355231E+04</totfact>
</mgrwt>
</event>
<event>
 5    1  0.2718303E+000  0.9154917E+02  0.7818608E-02  0.1299143E+00
          1   -1    0    0  501    0  0.00000000000E+00  0.00000000000E+00  0.18660657825E+03  0.18660657831E+03  0.46700000000E-02 0. -1.
         -1   -1    0    0    0  501 -0.00000000000E+00 -0.00000000000E+00 -0.11228502059E+02  0.11228503030E+02  0.46700000000E-02 0.  1.
         23    2    1    2    0    0  0.00000000000E+00  0.00000000000E+00  0.17537807619E+03  0.19783508134E+03  0.91549166023E+02 0.  0.
        -11    1    3    3    0    0 -0.11065094149E+02 -0.44369504253E+02  0.83248133342E+02  0.94980739739E+02  0.51100000000E-03 0. -1.
         11    1    3    3    0    0  0.11065094149E+02  0.44369504253E+02  0.92129942851E+02  0.10285434160E+03  0.51100000000E-03 0.  1.
<mgrwt>
<rscale>  0 0.91549166E+02</rscale>
<asrwt>0</asrwt>
<pdfrwt beam="1">  1        1 0.28708704E-01 0.91549166E+02</pdfrwt>
<pdfrwt beam="2">  1       -1 0.17274620E-02 0.91549166E+02</pdfrwt>
<totfact> 0.11555827E+05</totfact>
</mgrwt>
</event>
<event>
 5    1  0.2718303E+000  0.9291635E+02  0.7818608E-02  0.1295939E+00
         -1   -1    0    0    0  501 -0.00000000000E+00  0.00000000000E+00  0.11394471508E+03  0.11394471518E+03  0.46700000000E-02 0.  1.
          1   -1    0    0  501    0  0.00000000000E+00 -0.00000000000E+00 -0.18942186447E+02  0.18942187022E+02  0.46700000000E-02 0. -1.
         23    2    1    2    0    0  0.00000000000E+00  0.00000000000E+00  0.95002528636E+02  0.13288690220E+03  0.92916351249E+02 0.  0.
        -11    1    3    3    0    0 -0.11758396096E+01  0.45945594871E+02  0.57199282458E+02  0.73376687039E+02  0.51100000000E-03 0.  1.
         11    1    3    3    0    0  0.11758396096E+01 -0.45945594871E+02  0.37803246178E+02  0.59510215162E+02  0.51100000000E-03 0. -1.
<mgrwt>
<rscale>  0 0.92916351E+02</rscale>
<asrwt>0</asrwt>
<pdfrwt beam="2">  1        1 0.29141826E-02 0.92916351E+02</pdfrwt>
<pdfrwt beam="1">  1       -1 0.17529956E-01 0.92916351E+02</pdfrwt>
<totfact> 0.75570082E+04</totfact>
</mgrwt>
</event>
<event>
 5    1  0.2718303E+000  0.9104724E+02  0.7818608E-02  0.1300335E+00
          1   -1    0    0  501    0  0.00000000000E+00  0.00000000000E+00  0.35739518293E+03  0.35739518296E+03  0.46700000000E-02 0. -1.
         -1   -1    0    0    0  501 -0.00000000000E+00 -0.00000000000E+00 -0.57986219857E+01  0.57986238662E+01  0.46700000000E-02 0.  1.
         23    2    1    2    0    0  0.00000000000E+00  0.00000000000E+00  0.35159656095E+03  0.36319380683E+03  0.91047238560E+02 0.  0.
        -11    1    3    3    0    0  0.40018754687E+02  0.16266234480E+02  0.11850145852E+03  0.12612964276E+03  0.51100000000E-03 0.  1.
         11    1    3    3    0    0 -0.40018754687E+02 -0.16266234480E+02  0.23309510242E+03  0.23706416407E+03  0.51100000000E-03 0. -1.
<mgrwt>
<rscale>  0 0.91047239E+02</rscale>
<asrwt>0</asrwt>
<pdfrwt beam="1">  1        1 0.54983886E-01 0.91047239E+02</pdfrwt>
<pdfrwt beam="2">  1       -1 0.89209566E-03 0.91047239E+02</pdfrwt>
<totfact> 0.13282425E+05</totfact>
</mgrwt>
</event>
<event>
 5    1  0.2718303E+000  0.9197434E+02  0.7818608E-02  0.1298140E+00
          1   -1    0    0  501    0  0.00000000000E+00  0.00000000000E+00  0.25785987700E+02  0.25785988123E+02  0.46700000000E-02 0. -1.
         -1   -1    0    0    0  501 -0.00000000000E+00 -0.00000000000E+00 -0.82014303065E+02  0.82014303198E+02  0.46700000000E-02 0.  1.
         23    2    1    2    0    0  0.00000000000E+00  0.00000000000E+00 -0.56228315365E+02  0.10780029132E+03  0.91974340770E+02 0.  0.
        -11    1    3    3    0    0 -0.16561531774E+02 -0.41311952766E+02 -0.14553663396E+02  0.46827031665E+02  0.51100000000E-03 0. -1.
         11    1    3    3    0    0  0.16561531774E+02  0.41311952766E+02 -0.41674651969E+02  0.60973259656E+02  0.51100000000E-03 0.  1.
<mgrwt>
<rscale>  0 0.91974341E+02</rscale>
<asrwt>0</asrwt>
<pdfrwt beam="1">  1        1 0.39670751E-02 0.91974341E+02</pdfrwt>
<pdfrwt beam="2">  1       -1 0.12617585E-01 0.91974341E+02</pdfrwt>
<totfact> 0.82432016E+04</totfact>
</mgrwt>
</event>
<event>
 5    1  0.2718303E+000  0.8749223E+02  0.7818608E-02  0.1309041E+00
          1   -1    0    0  501    0  0.00000000000E+00  0.00000000000E+00  0.15457031155E+02  0.15457031861E+02  0.46700000000E-02 0. -1.
         -1   -1    0    0    0  501 -0.00000000000E+00 -0.00000000000E+00 -0.12380918771E+03  0.12380918780E+03  0.46700000000E-02 0.  1.
         23    2    1    2    0    0  0.00000000000E+00  0.00000000000E+00 -0.10835215656E+03  0.13926621966E+03  0.87492228844E+02 0.  0.
        -11    1    3    3    0    0 -0.11676744897E+02 -0.41673664357E+02 -0.44023492270E+02  0.61734176469E+02  0.51100000000E-03 0. -1.
         11    1    3    3    0    0  0.11676744897E+02  0.41673664357E+02 -0.64328664285E+02  0.77532043191E+02  0.51100000000E-03 0.  1.
<mgrwt>
<rscale>  0 0.87492229E+02</rscale>
<asrwt>0</asrwt>
<pdfrwt beam="1">  1        1 0.23780049E-02 0.87492229E+02</pdfrwt>
<pdfrwt beam="2">  1       -1 0.19047567E-01 0.87492229E+02</pdfrwt>
<totfact> 0.86796076E+04</totfact>
</mgrwt>
</event>
<event>
 5    1  0.2718303E+000  0.9242330E+02  0.7818608E-02  0.1297087E+00
          1   -1    0    0  501    0  0.00000000000E+00  0.00000000000E+00  0.41441871163E+02  0.41441871426E+02  0.46700000000E-02 0. -1.
         -1   -1    0    0    0  501 -0.00000000000E+00 -0.00000000000E+00 -0.51530406373E+02  0.51530406585E+02  0.46700000000E-02 0.  1.
         23    2    1    2    0    0  0.00000000000E+00  0.00000000000E+00 -0.10088535210E+02  0.92972278011E+02  0.92423297582E+02 0.  0.
        -11    1    3    3    0    0 -0.65241289056E+01  0.16361248264E+02  0.37932583584E+02  0.41822668499E+02  0.51100000000E-03 0. -1.
         11    1    3    3    0    0  0.65241289056E+01 -0.16361248264E+02 -0.48021118795E+02  0.51149609512E+02  0.51100000000E-03 0.  1.
<mgrwt>
<rscale>  0 0.92423298E+02</rscale>
<asrwt>0</asrwt>
<pdfrwt beam="1">  1        1 0.63756726E-02 0.92423298E+02</pdfrwt>
<pdfrwt beam="2">  1       -1 0.79277548E-02 0.92423298E+02</pdfrwt>
<totfact> 0.87720821E+04</totfact>
</mgrwt>
</event>
<event>
 5    1  0.2718303E+000  0.8880044E+02  0.7818608E-02  0.1305783E+00
          1   -1    0    0  501    0  0.00000000000E+00  0.00000000000E+00  0.30913996200E+03  0.30913996204E+03  0.46700000000E-02 0. -1.
         -1   -1    0    0    0  501 -0.00000000000E+00 -0.00000000000E+00 -0.63769799685E+01  0.63769816784E+01  0.46700000000E-02 0.  1.
         23    2    1    2    0    0  0.00000000000E+00  0.00000000000E+00  0.30276298203E+03  0.31551694371E+03  0.88800441901E+02 0.  0.
        -11    1    3    3    0    0  0.18507908715E+02  0.35929015537E+02  0.86064052639E+02  0.95081323084E+02  0.51100000000E-03 0. -1.
         11    1    3    3    0    0 -0.18507908715E+02 -0.35929015537E+02  0.21669892939E+03  0.22043562063E+03  0.51100000000E-03 0.  1.
<mgrwt>
<rscale>  0 0.88800442E+02</rscale>
<asrwt>0</asrwt>
<pdfrwt beam="1">  1        1 0.47559991E-01 0.88800442E+02</pdfrwt>
<pdfrwt beam="2">  1       -1 0.98107405E-03 0.88800442E+02</pdfrwt>
<totfact> 0.13822541E+05</totfact>
</mgrwt>
</event>
<event>
 5    1  0.2718303E+000  0.9000076E+02  0.7818608E-02  0.1302850E+00
         -1   -1    0    0    0  501 -0.00000000000E+00  0.00000000000E+00  0.87831994002E+01  0.87832006417E+01  0.46700000000E-02 0.  1.
          1   -1    0    0  501    0  0.00000000000E+00 -0.00000000000E+00 -0.23055765449E+03  0.23055765454E+03  0.46700000000E-02 0. -1.
         23    2    1    2    0    0  0.00000000000E+00  0.00000000000E+00 -0.22177445509E+03  0.23934085518E+03  0.90000755705E+02 0.  0.
        -11    1    3    3    0    0  0.36404113626E+02  0.19420701440E+02 -0.15865227162E+03  0.16392976064E+03  0.51100000000E-03 0. -1.
         11    1    3    3    0    0 -0.36404113626E+02 -0.19420701440E+02 -0.63122183476E+02  0.75411094545E+02  0.51100000000E-03 0.  1.
<mgrwt>
<rscale>  0 0.90000756E+02</rscale>
<asrwt>0</asrwt>
<pdfrwt beam="2">  1        1 0.35470404E-01 0.90000756E+02</pdfrwt>
<pdfrwt beam="1">  1       -1 0.13512617E-02 0.90000756E+02</pdfrwt>
<totfact> 0.12602890E+05</totfact>
</mgrwt>
</event>
<event>
 5    1  0.2718303E+000  0.9125939E+02  0.7818608E-02  0.1299830E+00
          1   -1    0    0  501    0  0.00000000000E+00  0.00000000000E+00  0.93555438396E+02  0.93555438512E+02  0.46700000000E-02 0. -1.
         -1   -1    0    0    0  501 -0.00000000000E+00 -0.00000000000E+00 -0.22254920544E+02  0.22254921034E+02  0.46700000000E-02 0.  1.
         23    2    1    2    0    0  0.00000000000E+00  0.00000000000E+00  0.71300517851E+02  0.11581035955E+03  0.91259385996E+02 0.  0.
        -11    1    3    3    0    0  0.17148355645E+02  0.18706806165E+02 -0.12473339773E+02  0.28277109180E+02  0.51100000000E-03 0.  1.
         11    1    3    3    0    0 -0.17148355645E+02 -0.18706806165E+02  0.83773857624E+02  0.87533250366E+02  0.51100000000E-03 0. -1.
<mgrwt>
<rscale>  0 0.91259386E+02</rscale>
<asrwt>0</asrwt>
<pdfrwt beam="1">  1        1 0.14393145E-01 0.91259386E+02</pdfrwt>
<pdfrwt beam="2">  1       -1 0.34238339E-02 0.91259386E+02</pdfrwt>
<totfact> 0.10305506E+05</totfact>
</mgrwt>
</event>
<event>
 5    1  0.2718303E+000  0.9120530E+02  0.7818608E-02  0.1299959E+00
          1   -1    0    0  501    0  0.00000000000E+00  0.00000000000E+00  0.22612864693E+02  0.22612865176E+02  0.46700000000E-02 0. -1.
         -1   -1    0    0    0  501 -0.00000000000E+00 -0.00000000000E+00 -0.91965416433E+02  0.91965416552E+02  0.46700000000E-02 0.  1.
         23    2    1    2    0    0  0.00000000000E+00  0.00000000000E+00 -0.69352551740E+02  0.11457828173E+03  0.91205297055E+02 0.  0.
        -11    1    3    3    0    0 -0.12841878207E+02  0.39452872854E+02 -0.58451241539E+02  0.71679778529E+02  0.51100000000E-03 0.  1.
         11    1    3    3    0    0  0.12841878207E+02 -0.39452872854E+02 -0.10901310201E+02  0.42898503198E+02  0.51100000000E-03 0. -1.
<mgrwt>
<rscale>  0 0.91205297E+02</rscale>
<asrwt>0</asrwt>
<pdfrwt beam="1">  1        1 0.34789024E-02 0.91205297E+02</pdfrwt>
<pdfrwt beam="2">  1       -1 0.14148525E-01 0.91205297E+02</pdfrwt>
<totfact> 0.82557121E+04</totfact>
</mgrwt>
</event>
<event>
 5    1  0.2718303E+000  0.9314808E+02  0.7818608E-02  0.1295402E+00
         -1   -1    0    0    0  501 -0.00000000000E+00  0.00000000000E+00  0.13447090743E+03  0.13447090751E+03  0.46700000000E-02 0.  1.
          1   -1    0    0  501    0  0.00000000000E+00 -0.00000000000E+00 -0.16130931853E+02  0.16130932529E+02  0.46700000000E-02 0. -1.
         23    2    1    2    0    0  0.00000000000E+00  0.00000000000E+00  0.11833997558E+03  0.15060184004E+03  0.93148077832E+02 0.  0.
        -11    1    3    3    0    0  0.95986295160E+01  0.23110191706E+02  0.12267806922E+03  0.12520432627E+03  0.51100000000E-03 0.  1.
         11    1    3    3    0    0 -0.95986295160E+01 -0.23110191706E+02 -0.43380936368E+01  0.25397513774E+02  0.51100000000E-03 0. -1.
<mgrwt>
<rscale>  0 0.93148078E+02</rscale>
<asrwt>0</asrwt>
<pdfrwt beam="2">  1        1 0.24816819E-02 0.93148078E+02</pdfrwt>
<pdfrwt beam="1">  1       -1 0.20687832E-01 0.93148078E+02</pdfrwt>
<totfact> 0.72523062E+04</totfact>
</mgrwt>
</event>
<event>
 5    1  0.2718303E+000  0.9074542E+02  0.7818608E-02  0.1301057E+00
         -1   -1    0    0    0  501 -0.00000000000E+00  0.00000000000E+00  0.41716118142E+03  0.41716118145E+03  0.46700000000E-02 0.  1.
          1   -1    0    0  501    0  0.00000000000E+00 -0.00000000000E+00 -0.49349802153E+01  0.49349824250E+01  0.46700000000E-02 0. -1.
         23    2    1    2    0    0  0.00000000000E+00  0.00000000000E+00  0.41222620120E+03  0.42209616387E+03  0.90745416386E+02 0.  0.
        -11    1    3    3    0    0 -0.43074758926E+02 -0.12560961517E+02  0.17474780646E+03  0.18041620901E+03  0.51100000000E-03 0. -1.
         11    1    3    3    0    0  0.43074758926E+02  0.12560961517E+02  0.23747839474E+03  0.24167995486E+03  0.51100000000E-03 0.  1.
<mgrwt>
<rscale>  0 0.90745416E+02</rscale>
<asrwt>0</asrwt>
<pdfrwt beam="2">  1        1 0.75922764E-03 0.90745416E+02</pdfrwt>
<pdfrwt beam="1">  1       -1 0.64178665E-01 0.90745416E+02</pdfrwt>
<totfact> 0.52802127E+04</totfact>
</mgrwt>
</event>
<event>
 5    1  0.2718303E+000  0.8927408E+02  0.7818608E-02  0.1304619E+00
          1   -1    0    0  501    0  0.00000000000E+00  0.00000000000E+00  0.66688930094E+01  0.66688946445E+01  0.46700000000E-02 0. -1.
         -1   -1    0    0    0  501 -0.00000000000E+00 -0.00000000000E+00 -0.29877000199E+03  0.29877000203E+03  0.46700000000E-02 0.  1.
         23    2    1    2    0    0  0.00000000000E+00  0.00000000000E+00 -0.29210110898E+03  0.30543889668E+03  0.89274082085E+02 0.  0.
        -11    1    3    3    0    0  0.39858510018E+02  0.45559452189E+01 -0.21300861374E+03  0.21675360893E+03  0.51100000000E-03 0.  1.
         11    1    3    3    0    0 -0.39858510018E+02 -0.45559452189E+01 -0.79092495249E+02  0.88685287746E+02  0.51100000000E-03 0. -1.
<mgrwt>
<rscale>  0 0.89274082E+02</rscale>
<asrwt>0</asrwt>
<pdfrwt beam="1">  1        1 0.10259839E-02 0.89274082E+02</pdfrwt>
<pdfrwt beam="2">  1       -1 0.45964605E-01 0.89274082E+02</pdfrwt>
<totfact> 0.64120648E+04</totfact>
</mgrwt>
</event>
<event>
 5    1  0.2718303E+000  0.9180077E+02  0.7818608E-02  0.1298549E+00
          1   -1    0    0  501    0  0.00000000000E+00  0.00000000000E+00  0.64365330108E+02  0.64365330277E+02  0.46700000000E-02 0. -1.
         -1   -1    0    0    0  501 -0.00000000000E+00 -0.00000000000E+00 -0.32732613890E+02  0.32732614223E+02  0.46700000000E-02 0.  1.
         23    2    1    2    0    0  0.00000000000E+00  0.00000000000E+00  0.31632716218E+02  0.97097944500E+02  0.91800773912E+02 0.  0.
        -11    1    3    3    0    0  0.15018261531E+02 -0.11108559585E+02 -0.28530252939E+02  0.34101665773E+02  0.51100000000E-03 0.  1.
         11    1    3    3    0    0 -0.15018261531E+02  0.11108559585E+02  0.60162969157E+02  0.62996278727E+02  0.51100000000E-03 0. -1.
<mgrwt>
<rscale>  0 0.91800774E+02</rscale>
<asrwt>0</asrwt>
<pdfrwt beam="1">  1        1 0.99023586E-02 0.91800774E+02</pdfrwt>
<pdfrwt beam="2">  1       -1 0.50357868E-02 0.91800774E+02</pdfrwt>
<totfact> 0.95581812E+04</totfact>
</mgrwt>
</event>
<event>
 5    1  0.2718303E+000  0.9503126E+02  0.7818608E-02  0.1291106E+00
         -1   -1    0    0    0  501 -0.00000000000E+00  0.00000000000E+00  0.88679232448E+01  0.88679244745E+01  0.46700000000E-02 0.  1.
          1   -1    0    0  501    0  0.00000000000E+00 -0.00000000000E+00 -0.25459565758E+03  0.25459565762E+03  0.46700000000E-02 0. -1.
         23    2    1    2    0    0  0.00000000000E+00  0.00000000000E+00 -0.24572773433E+03  0.26346358209E+03  0.95031256278E+02 0.  0.
        -11    1    3    3    0    0  0.45616034781E+02 -0.82125528938E+01 -0.93857438022E+02  0.10467801740E+03  0.51100000000E-03 0.  1.
         11    1    3    3    0    0 -0.45616034781E+02  0.82125528938E+01 -0.15187029631E+03  0.15878556469E+03  0.51100000000E-03 0. -1.
<mgrwt>
<rscale>  0 0.95031256E+02</rscale>
<asrwt>0</asrwt>
<pdfrwt beam="2">  1        1 0.39168557E-01 0.95031256E+02</pdfrwt>
<pdfrwt beam="1">  1       -1 0.13642962E-02 0.95031256E+02</pdfrwt>
<totfact> 0.11108204E+05</totfact>
</mgrwt>
</event>
<event>
 5    1  0.2718303E+000  0.9239089E+02  0.7818608E-02  0.1297163E+00
         -1   -1    0    0    0  501 -0.00000000000E+00  0.00000000000E+00  0.16898002151E+03  0.16898002157E+03  0.46700000000E-02 0.  1.
          1   -1    0    0  501    0  0.00000000000E+00 -0.00000000000E+00 -0.12628823483E+02  0.12628824346E+02  0.46700000000E-02 0. -1.
         23    2    1    2    0    0  0.00000000000E+00  0.00000000000E+00  0.15635119802E+03  0.18160884592E+03  0.92390885871E+02 0.  0.
        -11    1    3    3    0    0 -0.26479302979E+02  0.27192191933E+02  0.12993812880E+03  0.13536796558E+03  0.51100000000E-03 0.  1.
         11    1    3    3    0    0  0.26479302979E+02 -0.27192191933E+02  0.26413069220E+02  0.46240880336E+02  0.51100000000E-03 0. -1.
<mgrwt>
<rscale>  0 0.92390886E+02</rscale>
<asrwt>0</asrwt>
<pdfrwt beam="2">  1        1 0.19428963E-02 0.92390886E+02</pdfrwt>
<pdfrwt beam="1">  1       -1 0.25996922E-01 0.92390886E+02</pdfrwt>
<totfact> 0.70190499E+04</totfact>
</mgrwt>
</event>
<event>
 5    1  0.2718303E+000  0.7901016E+02  0.7818608E-02  0.1331884E+00
         -1   -1    0    0    0  501 -0.00000000000E+00  0.00000000000E+00  0.92990246212E+02  0.92990246330E+02  0.46700000000E-02 0.  1.
          1   -1    0    0  501    0  0.00000000000E+00 -0.00000000000E+00 -0.16782958876E+02  0.16782959525E+02  0.46700000000E-02 0. -1.
         23    2    1    2    0    0  0.00000000000E+00  0.00000000000E+00  0.76207287337E+02  0.10977320586E+03  0.79010164412E+02 0.  0.
        -11    1    3    3    0    0  0.30547482617E+02  0.54416431201E+01  0.41313776795E+01  0.31302211677E+02  0.51100000000E-03 0. -1.
         11    1    3    3    0    0 -0.30547482617E+02 -0.54416431201E+01  0.72075909657E+02  0.78470994178E+02  0.51100000000E-03 0.  1.
<mgrwt>
<rscale>  0 0.79010164E+02</rscale>
<asrwt>0</asrwt>
<pdfrwt beam="2">  1        1 0.25819937E-02 0.79010164E+02</pdfrwt>
<pdfrwt beam="1">  1       -1 0.14306192E-01 0.79010164E+02</pdfrwt>
<totfact> 0.11902688E+05</totfact>
</mgrwt>
</event>
<event>
 5    1  0.2718303E+000  0.9112630E+02  0.7818608E-02  0.1300147E+00
          1   -1    0    0  501    0  0.00000000000E+00  0.00000000000E+00  0.17283487147E+03  0.17283487153E+03  0.46700000000E-02 0. -1.
         -1   -1    0    0    0  501 -0.00000000000E+00 -0.00000000000E+00 -0.12011468058E+02  0.12011468966E+02  0.46700000000E-02 0.  1.
         23    2    1    2    0    0  0.00000000000E+00  0.00000000000E+00  0.16082340341E+03  0.18484634050E+03  0.91126299777E+02 0.  0.
        -11    1    3    3    0    0 -0.30738002241E+01  0.42718879717E+02  0.11194433550E+03  0.11985777064E+03  0.51100000000E-03 0.  1.
         11    1    3    3    0    0  0.30738002241E+01 -0.42718879717E+02  0.48879067912E+02  0.64988569859E+02  0.51100000000E-03 0. -1.
<mgrwt>
<rscale>  0 0.91126300E+02</rscale>
<asrwt>0</asrwt>
<pdfrwt beam="1">  1        1 0.26589980E-01 0.91126300E+02</pdfrwt>
<pdfrwt beam="2">  1       -1 0.18479183E-02 0.91126300E+02</pdfrwt>
<totfact> 0.11530597E+05</totfact>
</mgrwt>
</event>
<event>
 5    1  0.2718303E+000  0.8956401E+02  0.7818608E-02  0.1303911E+00
          1   -1    0    0  501    0  0.00000000000E+00  0.00000000000E+00  0.13550602550E+02  0.13550603355E+02  0.46700000000E-02 0. -1.
         -1   -1    0    0    0  501 -0.00000000000E+00 -0.00000000000E+00 -0.14799547743E+03  0.14799547751E+03  0.46700000000E-02 0.  1.
         23    2    1    2    0    0  0.00000000000E+00  0.00000000000E+00 -0.13444487488E+03  0.16154608086E+03  0.89564009845E+02 0.  0.
        -11    1    3    3    0    0 -0.13547588574E+02  0.41267390234E+02 -0.86889595567E+02  0.97140807444E+02  0.51100000000E-03 0.  1.
         11    1    3    3    0    0  0.13547588574E+02 -0.41267390234E+02 -0.47555279315E+02  0.64405273416E+02  0.51100000000E-03 0. -1.
<mgrwt>
<rscale>  0 0.89564010E+02</rscale>
<asrwt>0</asrwt>
<pdfrwt beam="1">  1        1 0.20847083E-02 0.89564010E+02</pdfrwt>
<pdfrwt beam="2">  1       -1 0.22768534E-01 0.89564010E+02</pdfrwt>
<totfact> 0.78575355E+04</totfact>
</mgrwt>
</event>
<event>
 5    1  0.2718303E+000  0.8834348E+02  0.7818608E-02  0.1306913E+00
          1   -1    0    0  501    0  0.00000000000E+00  0.00000000000E+00  0.18570814176E+03  0.18570814182E+03  0.46700000000E-02 0.  1.
         -1   -1    0    0    0  501 -0.00000000000E+00 -0.00000000000E+00 -0.10506500192E+02  0.10506501230E+02  0.46700000000E-02 0. -1.
         23    2    1    2    0    0  0.00000000000E+00  0.00000000000E+00  0.17520164157E+03  0.19621464305E+03  0.88343482717E+02 0.  0.
        -11    1    3    3    0    0  0.27374674971E+02 -0.32949881770E+02  0.11152993437E+03  0.11947382056E+03  0.51100000000E-03 0.  1.
         11    1    3    3    0    0 -0.27374674971E+02  0.32949881770E+02  0.63671707202E+02  0.76740822492E+02  0.51100000000E-03 0. -1.
<mgrwt>
<rscale>  0 0.88343483E+02</rscale>
<asrwt>0</asrwt>
<pdfrwt beam="1">  1        1 0.28570481E-01 0.88343483E+02</pdfrwt>
<pdfrwt beam="2">  1       -1 0.16163849E-02 0.88343483E+02</pdfrwt>
<totfact> 0.12702374E+05</totfact>
</mgrwt>
</event>
<event>
 5    1  0.2718303E+000  0.9262331E+02  0.7818608E-02  0.1296620E+00
          1   -1    0    0  501    0  0.00000000000E+00  0.00000000000E+00  0.39327671680E+02  0.39327671958E+02  0.46700000000E-02 0. -1.
         -1   -1    0    0    0  501 -0.00000000000E+00 -0.00000000000E+00 -0.54535885303E+02  0.54535885503E+02  0.46700000000E-02 0.  1.
         23    2    1    2    0    0  0.00000000000E+00  0.00000000000E+00 -0.15208213623E+02  0.93863557460E+02  0.92623310552E+02 0.  0.
        -11    1    3    3    0    0 -0.26104167095E+02 -0.19091796735E+02 -0.41196810773E+02  0.52374626113E+02  0.51100000000E-03 0.  1.
         11    1    3    3    0    0  0.26104167095E+02  0.19091796735E+02  0.25988597150E+02  0.41488931348E+02  0.51100000000E-03 0. -1.
<mgrwt>
<rscale>  0 0.92623311E+02</rscale>
<asrwt>0</asrwt>
<pdfrwt beam="1">  1        1 0.60504111E-02 0.92623311E+02</pdfrwt>
<pdfrwt beam="2">  1       -1 0.83901362E-02 0.92623311E+02</pdfrwt>
<totfact> 0.86485300E+04</totfact>
</mgrwt>
</event>
<event>
 5    1  0.2718303E+000  0.9225451E+02  0.7818608E-02  0.1297482E+00
         -1   -1    0    0    0  501 -0.00000000000E+00  0.00000000000E+00  0.46718535334E+02  0.46718535567E+02  0.46700000000E-02 0.  1.
          1   -1    0    0  501    0  0.00000000000E+00 -0.00000000000E+00 -0.45543458206E+02  0.45543458445E+02  0.46700000000E-02 0. -1.
         23    2    1    2    0    0  0.00000000000E+00  0.00000000000E+00  0.11750771279E+01  0.92261994012E+02  0.92254510637E+02 0.  0.
        -11    1    3    3    0    0  0.25339812260E+02 -0.33828344652E+02  0.19062279747E+02  0.46366296991E+02  0.51100000000E-03 0.  1.
         11    1    3    3    0    0 -0.25339812260E+02  0.33828344652E+02 -0.17887202620E+02  0.45895697021E+02  0.51100000000E-03 0. -1.
<mgrwt>
<rscale>  0 0.92254511E+02</rscale>
<asrwt>0</asrwt>
<pdfrwt beam="2">  1        1 0.70066859E-02 0.92254511E+02</pdfrwt>
<pdfrwt beam="1">  1       -1 0.71874670E-02 0.92254511E+02</pdfrwt>
<totfact> 0.89452957E+04</totfact>
</mgrwt>
</event>
<event>
 5    1  0.2718303E+000  0.8787696E+02  0.7818608E-02  0.1308076E+00
         -1   -1    0    0    0  501 -0.00000000000E+00  0.00000000000E+00  0.23326627774E+02  0.23326628242E+02  0.46700000000E-02 0.  1.
          1   -1    0    0  501    0  0.00000000000E+00 -0.00000000000E+00 -0.82763364004E+02  0.82763364135E+02  0.46700000000E-02 0. -1.
         23    2    1    2    0    0  0.00000000000E+00  0.00000000000E+00 -0.59436736229E+02  0.10608999238E+03  0.87876964382E+02 0.  0.
        -11    1    3    3    0    0  0.16654559502E+02  0.61320047250E+01 -0.78243667926E+02  0.80231212161E+02  0.51100000000E-03 0. -1.
         11    1    3    3    0    0 -0.16654559502E+02 -0.61320047250E+01  0.18806931697E+02  0.25858780216E+02  0.51100000000E-03 0.  1.
<mgrwt>
<rscale>  0 0.87876964E+02</rscale>
<asrwt>0</asrwt>
<pdfrwt beam="2">  1        1 0.12732825E-01 0.87876964E+02</pdfrwt>
<pdfrwt beam="1">  1       -1 0.35887121E-02 0.87876964E+02</pdfrwt>
<totfact> 0.11202221E+05</totfact>
</mgrwt>
</event>
<event>
 5    1  0.2718303E+000  0.9072173E+02  0.7818608E-02  0.1301113E+00
          1   -1    0    0  501    0  0.00000000000E+00  0.00000000000E+00  0.16585454806E+02  0.16585455464E+02  0.46700000000E-02 0. -1.
         -1   -1    0    0    0  501 -0.00000000000E+00 -0.00000000000E+00 -0.12406098174E+03  0.12406098183E+03  0.46700000000E-02 0.  1.
         23    2    1    2    0    0  0.00000000000E+00  0.00000000000E+00 -0.10747552693E+03  0.14064643729E+03  0.90721725255E+02 0.  0.
        -11    1    3    3    0    0  0.14680089890E+02  0.24607720478E+02  0.77843240226E+00  0.28664453659E+02  0.51100000000E-03 0. -1.
         11    1    3    3    0    0 -0.14680089890E+02 -0.24607720478E+02 -0.10825395934E+03  0.11198198363E+03  0.51100000000E-03 0.  1.
<mgrwt>
<rscale>  0 0.90721725E+02</rscale>
<asrwt>0</asrwt>
<pdfrwt beam="1">  1        1 0.25516086E-02 0.90721725E+02</pdfrwt>
<pdfrwt beam="2">  1       -1 0.19086304E-01 0.90721725E+02</pdfrwt>
<totfact> 0.79008227E+04</totfact>
</mgrwt>
</event>
<event>
 5    1  0.2718303E+000  0.9211623E+02  0.7818608E-02  0.1297806E+00
          1   -1    0    0  501    0  0.00000000000E+00  0.00000000000E+00  0.27541890324E+03  0.27541890328E+03  0.46700000000E-02 0. -1.
         -1   -1    0    0    0  501 -0.00000000000E+00 -0.00000000000E+00 -0.77022663984E+01  0.77022678141E+01  0.46700000000E-02 0.  1.
         23    2    1    2    0    0  0.00000000000E+00  0.00000000000E+00  0.26771663685E+03  0.28312117110E+03  0.92116230274E+02 0.  0.
        -11    1    3    3    0    0 -0.37113706052E+02  0.15317068639E+02  0.20322123989E+03  0.20714949218E+03  0.51100000000E-03 0. -1.
         11    1    3    3    0    0  0.37113706052E+02 -0.15317068639E+02  0.64495396957E+02  0.75971678917E+02  0.51100000000E-03 0.  1.
<mgrwt>
<rscale>  0 0.92116230E+02</rscale>
<asrwt>0</asrwt>
<pdfrwt beam="1">  1        1 0.42372137E-01 0.92116230E+02</pdfrwt>
<pdfrwt beam="2">  1       -1 0.11849642E-02 0.92116230E+02</pdfrwt>
<totfact> 0.12262544E+05</totfact>
</mgrwt>
</event>
<event>
 5    1  0.2718303E+000  0.9034846E+02  0.7818608E-02  0.1302010E+00
         -1   -1    0    0    0  501 -0.00000000000E+00  0.00000000000E+00  0.84468870177E+02  0.84468870306E+02  0.46700000000E-02 0.  1.
          1   -1    0    0  501    0  0.00000000000E+00 -0.00000000000E+00 -0.24159329051E+02  0.24159329503E+02  0.46700000000E-02 0. -1.
         23    2    1    2    0    0  0.00000000000E+00  0.00000000000E+00  0.60309541126E+02  0.10862819981E+03  0.90348464530E+02 0.  0.
        -11    1    3    3    0    0 -0.14011710803E+02  0.19779662515E+02 -0.15678068106E+02  0.28868060354E+02  0.51100000000E-03 0. -1.
         11    1    3    3    0    0  0.14011710803E+02 -0.19779662515E+02  0.75987609232E+02  0.79760139455E+02  0.51100000000E-03 0.  1.
<mgrwt>
<rscale>  0 0.90348465E+02</rscale>
<asrwt>0</asrwt>
<pdfrwt beam="2">  1        1 0.37168199E-02 0.90348465E+02</pdfrwt>
<pdfrwt beam="1">  1       -1 0.12995211E-01 0.90348465E+02</pdfrwt>
<totfact> 0.85852189E+04</totfact>
</mgrwt>
</event>
<event>
 5    1  0.2718303E+000  0.9077193E+02  0.7818608E-02  0.1300993E+00
          1   -1    0    0  501    0  0.00000000000E+00  0.00000000000E+00  0.31694121272E+02  0.31694121616E+02  0.46700000000E-02 0. -1.
         -1   -1    0    0    0  501 -0.00000000000E+00 -0.00000000000E+00 -0.64992673539E+02  0.64992673707E+02  0.46700000000E-02 0.  1.
         23    2    1    2    0    0  0.00000000000E+00  0.00000000000E+00 -0.33298552267E+02  0.96686795324E+02  0.90771927416E+02 0.  0.
        -11    1    3    3    0    0 -0.42059070516E+02 -0.16394379749E+02 -0.11636832026E+02  0.46617131613E+02  0.51100000000E-03 0.  1.
         11    1    3    3    0    0  0.42059070516E+02  0.16394379749E+02 -0.21661720241E+02  0.50069663710E+02  0.51100000000E-03 0. -1.
<mgrwt>
<rscale>  0 0.90771927E+02</rscale>
<asrwt>0</asrwt>
<pdfrwt beam="1">  1        1 0.48760187E-02 0.90771927E+02</pdfrwt>
<pdfrwt beam="2">  1       -1 0.99988729E-02 0.90771927E+02</pdfrwt>
<totfact> 0.88570290E+04</totfact>
</mgrwt>
</event>
<event>
 5    1  0.2718303E+000  0.8982138E+02  0.7818608E-02  0.1303285E+00
          1   -1    0    0  501    0  0.00000000000E+00  0.00000000000E+00  0.31118656058E+03  0.31118656062E+03  0.46700000000E-02 0. -1.
         -1   -1    0    0    0  501 -0.00000000000E+00 -0.00000000000E+00 -0.64815451582E+01  0.64815468406E+01  0.46700000000E-02 0.  1.
         23    2    1    2    0    0  0.00000000000E+00  0.00000000000E+00  0.30470501542E+03  0.31766810746E+03  0.89821378698E+02 0.  0.
        -11    1    3    3    0    0  0.34784527653E+02  0.17282731992E+02  0.23208950205E+03  0.23531721814E+03  0.51100000000E-03 0. -1.
         11    1    3    3    0    0 -0.34784527653E+02 -0.17282731992E+02  0.72615513369E+02  0.82350889316E+02  0.51100000000E-03 0.  1.
<mgrwt>
<rscale>  0 0.89821379E+02</rscale>
<asrwt>0</asrwt>
<pdfrwt beam="1">  1        1 0.47874851E-01 0.89821379E+02</pdfrwt>
<pdfrwt beam="2">  1       -1 0.99716101E-03 0.89821379E+02</pdfrwt>
<totfact> 0.13425778E+05</totfact>
</mgrwt>
</event>
<event>
 5    1  0.2718303E+000  0.9558333E+02  0.7818608E-02  0.1289868E+00
         -1   -1    0    0    0  501 -0.00000000000E+00  0.00000000000E+00  0.19012526065E+02  0.19012526639E+02  0.46700000000E-02 0.  1.
          1   -1    0    0  501    0  0.00000000000E+00 -0.00000000000E+00 -0.12013360068E+03  0.12013360077E+03  0.46700000000E-02 0. -1.
         23    2    1    2    0    0  0.00000000000E+00  0.00000000000E+00 -0.10112107462E+03  0.13914612741E+03  0.95583330356E+02 0.  0.
        -11    1    3    3    0    0 -0.34756168182E+02  0.31499191295E+02 -0.37229982656E+02  0.59885406300E+02  0.51100000000E-03 0.  1.
         11    1    3    3    0    0  0.34756168182E+02 -0.31499191295E+02 -0.63891091959E+02  0.79260721110E+02  0.51100000000E-03 0. -1.
<mgrwt>
<rscale>  0 0.95583330E+02</rscale>
<asrwt>0</asrwt>
<pdfrwt beam="2">  1        1 0.18482092E-01 0.95583330E+02</pdfrwt>
<pdfrwt beam="1">  1       -1 0.29250041E-02 0.95583330E+02</pdfrwt>
<totfact> 0.94767303E+04</totfact>
</mgrwt>
</event>
<event>
 5    1  0.2718303E+000  0.8846916E+02  0.7818608E-02  0.1306602E+00
         -1   -1    0    0    0  501 -0.00000000000E+00  0.00000000000E+00  0.12323041141E+02  0.12323042026E+02  0.46700000000E-02 0.  1.
          1   -1    0    0  501    0  0.00000000000E+00 -0.00000000000E+00 -0.15878368538E+03  0.15878368544E+03  0.46700000000E-02 0. -1.
         23    2    1    2    0    0  0.00000000000E+00  0.00000000000E+00 -0.14646064424E+03  0.17110672747E+03  0.88469157767E+02 0.  0.
        -11    1    3    3    0    0 -0.48830344327E+01  0.41929557006E+02 -0.98798742910E+02  0.10743892859E+03  0.51100000000E-03 0. -1.
         11    1    3    3    0    0  0.48830344327E+01 -0.41929557006E+02 -0.47661901325E+02  0.63667798880E+02  0.51100000000E-03 0.  1.
<mgrwt>
<rscale>  0 0.88469158E+02</rscale>
<asrwt>0</asrwt>
<pdfrwt beam="2">  1        1 0.24428258E-01 0.88469158E+02</pdfrwt>
<pdfrwt beam="1">  1       -1 0.18958527E-02 0.88469158E+02</pdfrwt>
<totfact> 0.12288225E+05</totfact>
</mgrwt>
</event>
<event>
 5    1  0.2718303E+000  0.8996139E+02  0.7818608E-02  0.1302945E+00
          1   -1    0    0  501    0  0.00000000000E+00  0.00000000000E+00  0.16573425241E+03  0.16573425248E+03  0.46700000000E-02 0. -1.
         -1   -1    0    0    0  501 -0.00000000000E+00 -0.00000000000E+00 -0.12207874757E+02  0.12207875650E+02  0.46700000000E-02 0.  1.
         23    2    1    2    0    0  0.00000000000E+00  0.00000000000E+00  0.15352637765E+03  0.17794212813E+03  0.89961393534E+02 0.  0.
        -11    1    3    3    0    0 -0.27159273052E+02  0.11863962892E+01  0.58798908661E+01  0.27813787331E+02  0.51100000000E-03 0.  1.
         11    1    3    3    0    0  0.27159273052E+02 -0.11863962892E+01  0.14764648679E+03  0.15012834080E+03  0.51100000000E-03 0. -1.
<mgrwt>
<rscale>  0 0.89961394E+02</rscale>
<asrwt>0</asrwt>
<pdfrwt beam="1">  1        1 0.25497576E-01 0.89961394E+02</pdfrwt>
<pdfrwt beam="2">  1       -1 0.18781348E-02 0.89961394E+02</pdfrwt>
<totfact> 0.11842453E+05</totfact>
</mgrwt>
</event>
<event>
 5    1  0.2718303E+000  0.8934774E+02  0.7818608E-02  0.1304439E+00
         -1   -1    0    0    0  501 -0.00000000000E+00  0.00000000000E+00  0.45706980900E+01  0.45707004757E+01  0.46700000000E-02 0.  1.
          1   -1    0    0  501    0  0.00000000000E+00 -0.00000000000E+00 -0.43664096679E+03  0.43664096681E+03  0.46700000000E-02 0. -1.
         23    2    1    2    0    0  0.00000000000E+00  0.00000000000E+00 -0.43207026870E+03  0.44121166729E+03  0.89347737850E+02 0.  0.
        -11    1    3    3    0    0  0.28860676046E+02 -0.33433973560E+02 -0.18291447291E+03  0.18817139424E+03  0.51100000000E-03 0. -1.
         11    1    3    3    0    0 -0.28860676046E+02  0.33433973560E+02 -0.24915579579E+03  0.25304027305E+03  0.51100000000E-03 0.  1.
<mgrwt>
<rscale>  0 0.89347738E+02</rscale>
<asrwt>0</asrwt>
<pdfrwt beam="2">  1        1 0.67175501E-01 0.89347738E+02</pdfrwt>
<pdfrwt beam="1">  1       -1 0.70318485E-03 0.89347738E+02</pdfrwt>
<totfact> 0.14429831E+05</totfact>
</mgrwt>
</event>
<event>
 5    1  0.2718303E+000  0.8757177E+02  0.7818608E-02  0.1308841E+00
         -1   -1    0    0    0  501 -0.00000000000E+00  0.00000000000E+00  0.28918282349E+02  0.28918282726E+02  0.46700000000E-02 0.  1.
          1   -1    0    0  501    0  0.00000000000E+00 -0.00000000000E+00 -0.66297289443E+02  0.66297289608E+02  0.46700000000E-02 0. -1.
         23    2    1    2    0    0  0.00000000000E+00  0.00000000000E+00 -0.37379007094E+02  0.95215572334E+02  0.87571770815E+02 0.  0.
        -11    1    3    3    0    0  0.39660526476E+00  0.10827547285E+02 -0.64816721639E+02  0.65716059530E+02  0.51100000000E-03 0. -1.
         11    1    3    3    0    0 -0.39660526476E+00 -0.10827547285E+02  0.27437714545E+02  0.29499512804E+02  0.51100000000E-03 0.  1.
<mgrwt>
<rscale>  0 0.87571771E+02</rscale>
<asrwt>0</asrwt>
<pdfrwt beam="2">  1        1 0.10199583E-01 0.87571771E+02</pdfrwt>
<pdfrwt beam="1">  1       -1 0.44489666E-02 0.87571771E+02</pdfrwt>
<totfact> 0.10933934E+05</totfact>
</mgrwt>
</event>
<event>
 5    1  0.2718303E+000  0.9224241E+02  0.7818608E-02  0.1297510E+00
          1   -1    0    0  501    0  0.00000000000E+00  0.00000000000E+00  0.13640698682E+03  0.13640698690E+03  0.46700000000E-02 0. -1.
         -1   -1    0    0    0  501 -0.00000000000E+00 -0.00000000000E+00 -0.15594255051E+02  0.15594255750E+02  0.46700000000E-02 0.  1.
         23    2    1    2    0    0  0.00000000000E+00  0.00000000000E+00  0.12081273177E+03  0.15200124265E+03  0.92242406786E+02 0.  0.
        -11    1    3    3    0    0 -0.40929562461E+02 -0.67868619543E+01  0.93604415442E+02  0.10238689940E+03  0.51100000000E-03 0. -1.
         11    1    3    3    0    0  0.40929562461E+02  0.67868619543E+01  0.27208316328E+02  0.49614343250E+02  0.51100000000E-03 0.  1.
<mgrwt>
<rscale>  0 0.92242407E+02</rscale>
<asrwt>0</asrwt>
<pdfrwt beam="1">  1        1 0.20985691E-01 0.92242407E+02</pdfrwt>
<pdfrwt beam="2">  1       -1 0.23991162E-02 0.92242407E+02</pdfrwt>
<totfact> 0.10679804E+05</totfact>
</mgrwt>
</event>
<event>
 5    1  0.2718303E+000  0.9133276E+02  0.7818608E-02  0.1299656E+00
          1   -1    0    0  501    0  0.00000000000E+00  0.00000000000E+00  0.75230239206E+02  0.75230239351E+02  0.46700000000E-02 0. -1.
         -1   -1    0    0    0  501 -0.00000000000E+00 -0.00000000000E+00 -0.27720480119E+02  0.27720480512E+02  0.46700000000E-02 0.  1.
         23    2    1    2    0    0  0.00000000000E+00  0.00000000000E+00  0.47509759087E+02  0.10295071986E+03  0.91332762533E+02 0.  0.
        -11    1    3    3    0    0 -0.57520983493E+01 -0.19255295177E+02  0.69978043418E+02  0.72806452933E+02  0.51100000000E-03 0. -1.
         11    1    3    3    0    0  0.57520983493E+01  0.19255295177E+02 -0.22468284331E+02  0.30144266931E+02  0.51100000000E-03 0.  1.
<mgrwt>
<rscale>  0 0.91332763E+02</rscale>
<asrwt>0</asrwt>
<pdfrwt beam="1">  1        1 0.11573883E-01 0.91332763E+02</pdfrwt>
<pdfrwt beam="2">  1       -1 0.42646894E-02 0.91332763E+02</pdfrwt>
<totfact> 0.99308631E+04</totfact>
</mgrwt>
</event>
<event>
 5    1  0.2718303E+000  0.9072612E+02  0.7818608E-02  0.1301103E+00
         -1   -1    0    0    0  501 -0.00000000000E+00  0.00000000000E+00  0.64681263519E+02  0.64681263688E+02  0.46700000000E-02 0.  1.
          1   -1    0    0  501    0  0.00000000000E+00 -0.00000000000E+00 -0.31814576767E+02  0.31814577109E+02  0.46700000000E-02 0. -1.
         23    2    1    2    0    0  0.00000000000E+00  0.00000000000E+00  0.32866686753E+02  0.96495840797E+02  0.90726116378E+02 0.  0.
        -11    1    3    3    0    0  0.31914161489E+02 -0.11709593121E+02  0.48379791261E+02  0.59128947879E+02  0.51100000000E-03 0.  1.
         11    1    3    3    0    0 -0.31914161489E+02  0.11709593121E+02 -0.15513104508E+02  0.37366892918E+02  0.51100000000E-03 0. -1.
<mgrwt>
<rscale>  0 0.90726116E+02</rscale>
<asrwt>0</asrwt>
<pdfrwt beam="2">  1        1 0.48945503E-02 0.90726116E+02</pdfrwt>
<pdfrwt beam="1">  1       -1 0.99509636E-02 0.90726116E+02</pdfrwt>
<totfact> 0.88751260E+04</totfact>
</mgrwt>
</event>
<event>
 5    1  0.2718303E+000  0.9592536E+02  0.7818608E-02  0.1289105E+00
         -1   -1    0    0    0  501 -0.00000000000E+00  0.00000000000E+00  0.20220606988E+03  0.20220606994E+03  0.46700000000E-02 0.  1.
          1   -1    0    0  501    0  0.00000000000E+00 -0.00000000000E+00 -0.11376605649E+02  0.11376606608E+02  0.46700000000E-02 0. -1.
         23    2    1    2    0    0  0.00000000000E+00  0.00000000000E+00  0.19082946423E+03  0.21358267654E+03  0.95925363175E+02 0.  0.
        -11    1    3    3    0    0 -0.41672585681E+02  0.23305461880E+02  0.85291912737E+02  0.97746914679E+02  0.51100000000E-03 0.  1.
         11    1    3    3    0    0  0.41672585681E+02 -0.23305461880E+02  0.10553755150E+03  0.11583576186E+03  0.51100000000E-03 0. -1.
<mgrwt>
<rscale>  0 0.95925363E+02</rscale>
<asrwt>0</asrwt>
<pdfrwt beam="2">  1        1 0.17502471E-02 0.95925363E+02</pdfrwt>
<pdfrwt beam="1">  1       -1 0.31108626E-01 0.95925363E+02</pdfrwt>
<totfact> 0.60613139E+04</totfact>
</mgrwt>
</event>
<event>
 5    1  0.2718303E+000  0.9155380E+02  0.7818608E-02  0.1299132E+00
          1   -1    0    0  501    0  0.00000000000E+00  0.00000000000E+00  0.74447236179E+02  0.74447236325E+02  0.46700000000E-02 0. -1.
         -1   -1    0    0    0  501 -0.00000000000E+00 -0.00000000000E+00 -0.28147781341E+02  0.28147781729E+02  0.46700000000E-02 0.  1.
         23    2    1    2    0    0  0.00000000000E+00  0.00000000000E+00  0.46299454837E+02  0.10259501805E+03  0.91553799546E+02 0.  0.
        -11    1    3    3    0    0 -0.11299439995E+02 -0.11977045676E+02  0.71013799523E+02  0.72897782478E+02  0.51100000000E-03 0. -1.
         11    1    3    3    0    0  0.11299439995E+02  0.11977045676E+02 -0.24714344686E+02  0.29697235576E+02  0.51100000000E-03 0.  1.
<mgrwt>
<rscale>  0 0.91553800E+02</rscale>
<asrwt>0</asrwt>
<pdfrwt beam="1">  1        1 0.11453421E-01 0.91553800E+02</pdfrwt>
<pdfrwt beam="2">  1       -1 0.43304279E-02 0.91553800E+02</pdfrwt>
<totfact> 0.98488180E+04</totfact>
</mgrwt>
</event>
<event>
 5    1  0.2718303E+000  0.9166838E+02  0.7818608E-02  0.1298861E+00
          1   -1    0    0  501    0  0.00000000000E+00  0.00000000000E+00  0.78427700782E+02  0.78427700921E+02  0.46700000000E-02 0. -1.
         -1   -1    0    0    0  501 -0.00000000000E+00 -0.00000000000E+00 -0.26786109989E+02  0.26786110396E+02  0.46700000000E-02 0.  1.
         23    2    1    2    0    0  0.00000000000E+00  0.00000000000E+00  0.51641590792E+02  0.10521381132E+03  0.91668381639E+02 0.  0.
        -11    1    3    3    0    0 -0.24218606845E+02  0.37790823442E+02  0.15171547586E+02  0.47379986390E+02  0.51100000000E-03 0.  1.
         11    1    3    3    0    0  0.24218606845E+02 -0.37790823442E+02  0.36470043207E+02  0.57833824927E+02  0.51100000000E-03 0. -1.
<mgrwt>
<rscale>  0 0.91668382E+02</rscale>
<asrwt>0</asrwt>
<pdfrwt beam="1">  1        1 0.12065800E-01 0.91668382E+02</pdfrwt>
<pdfrwt beam="2">  1       -1 0.41209400E-02 0.91668382E+02</pdfrwt>
<totfact> 0.98955494E+04</totfact>
</mgrwt>
</event>
<event>
 5    1  0.2718303E+000  0.8823291E+02  0.7818608E-02  0.1307188E+00
          1   -1    0    0  501    0  0.00000000000E+00  0.00000000000E+00  0.15004916574E+02  0.15004917300E+02  0.46700000000E-02 0. -1.
         -1   -1    0    0    0  501 -0.00000000000E+00 -0.00000000000E+00 -0.12970826744E+03  0.12970826753E+03  0.46700000000E-02 0.  1.
         23    2    1    2    0    0  0.00000000000E+00  0.00000000000E+00 -0.11470335087E+03  0.14471318483E+03  0.88232914280E+02 0.  0.
        -11    1    3    3    0    0 -0.30362628638E+01  0.41560475673E+02 -0.81106340877E+02  0.91185144410E+02  0.51100000000E-03 0. -1.
         11    1    3    3    0    0  0.30362628638E+01 -0.41560475673E+02 -0.33597009993E+02  0.53528040419E+02  0.51100000000E-03 0.  1.
<mgrwt>
<rscale>  0 0.88232914E+02</rscale>
<asrwt>0</asrwt>
<pdfrwt beam="1">  1        1 0.23084488E-02 0.88232914E+02</pdfrwt>
<pdfrwt beam="2">  1       -1 0.19955117E-01 0.88232914E+02</pdfrwt>
<totfact> 0.84103233E+04</totfact>
</mgrwt>
</event>
<event>
 5    1  0.2718303E+000  0.8753545E+02  0.7818608E-02  0.1308932E+00
          1   -1    0    0  501    0  0.00000000000E+00  0.00000000000E+00  0.69144659639E+02  0.69144659797E+02  0.46700000000E-02 0. -1.
         -1   -1    0    0    0  501 -0.00000000000E+00 -0.00000000000E+00 -0.27704436158E+02  0.27704436552E+02  0.46700000000E-02 0.  1.
         23    2    1    2    0    0  0.00000000000E+00  0.00000000000E+00  0.41440223481E+02  0.96849096349E+02  0.87535451912E+02 0.  0.
        -11    1    3    3    0    0  0.33707434247E+02  0.11214185692E+02 -0.75670339817E+01  0.36320918047E+02  0.51100000000E-03 0.  1.
         11    1    3    3    0    0 -0.33707434247E+02 -0.11214185692E+02  0.49007257462E+02  0.60528178301E+02  0.51100000000E-03 0. -1.
<mgrwt>
<rscale>  0 0.87535452E+02</rscale>
<asrwt>0</asrwt>
<pdfrwt beam="1">  1        1 0.10637640E-01 0.87535452E+02</pdfrwt>
<pdfrwt beam="2">  1       -1 0.42622210E-02 0.87535452E+02</pdfrwt>
<totfact> 0.11015467E+05</totfact>
</mgrwt>
</event>
<event>
 5    1  0.2718303E+000  0.9239790E+02  0.7818608E-02  0.1297147E+00
         -1   -1    0    0    0  501 -0.00000000000E+00  0.00000000000E+00  0.16575445533E+03  0.16575445540E+03  0.46700000000E-02 0.  1.
          1   -1    0    0  501    0  0.00000000000E+00 -0.00000000000E+00 -0.12876533870E+02  0.12876534717E+02  0.46700000000E-02 0. -1.
         23    2    1    2    0    0  0.00000000000E+00  0.00000000000E+00  0.15287792146E+03  0.17863099012E+03  0.92397899105E+02 0.  0.
        -11    1    3    3    0    0 -0.59965400356E+01 -0.25382523236E+02  0.15016037062E+03  0.15240855581E+03  0.51100000000E-03 0.  1.
         11    1    3    3    0    0  0.59965400356E+01  0.25382523236E+02  0.27175508420E+01  0.26222434308E+02  0.51100000000E-03 0. -1.
<mgrwt>
<rscale>  0 0.92397899E+02</rscale>
<asrwt>0</asrwt>
<pdfrwt beam="2">  1        1 0.19810052E-02 0.92397899E+02</pdfrwt>
<pdfrwt beam="1">  1       -1 0.25500686E-01 0.92397899E+02</pdfrwt>
<totfact> 0.70518678E+04</totfact>
</mgrwt>
</event>
<event>
 5    1  0.2718303E+000  0.9012371E+02  0.7818608E-02  0.1302552E+00
          1   -1    0    0  501    0  0.00000000000E+00  0.00000000000E+00  0.69752482267E+02  0.69752482423E+02  0.46700000000E-02 0. -1.
         -1   -1    0    0    0  501 -0.00000000000E+00 -0.00000000000E+00 -0.29111088346E+02  0.29111088720E+02  0.46700000000E-02 0.  1.
         23    2    1    2    0    0  0.00000000000E+00  0.00000000000E+00  0.40641393921E+02  0.98863571144E+02  0.90123708309E+02 0.  0.
        -11    1    3    3    0    0  0.29610563066E+02  0.73347356429E+01 -0.16061674086E+02  0.34475515468E+02  0.51100000000E-03 0.  1.
         11    1    3    3    0    0 -0.29610563066E+02 -0.73347356429E+01  0.56703068007E+02  0.64388055676E+02  0.51100000000E-03 0. -1.
<mgrwt>
<rscale>  0 0.90123708E+02</rscale>
<asrwt>0</asrwt>
<pdfrwt beam="1">  1        1 0.10731151E-01 0.90123708E+02</pdfrwt>
<pdfrwt beam="2">  1       -1 0.44786291E-02 0.90123708E+02</pdfrwt>
<totfact> 0.10181910E+05</totfact>
</mgrwt>
</event>
<event>
 5    1  0.2718303E+000  0.9390202E+02  0.7818608E-02  0.1293668E+00
         -1   -1    0    0    0  501 -0.00000000000E+00  0.00000000000E+00  0.11149999620E+03  0.11149999630E+03  0.46700000000E-02 0.  1.
          1   -1    0    0  501    0  0.00000000000E+00 -0.00000000000E+00 -0.19770380314E+02  0.19770380865E+02  0.46700000000E-02 0. -1.
         23    2    1    2    0    0  0.00000000000E+00  0.00000000000E+00  0.91729615885E+02  0.13127037716E+03  0.93902020690E+02 0.  0.
        -11    1    3    3    0    0 -0.35090971894E+02 -0.29054859551E+02  0.61732389851E+02  0.76723198115E+02  0.51100000000E-03 0.  1.
         11    1    3    3    0    0  0.35090971894E+02  0.29054859551E+02  0.29997226034E+02  0.54547179047E+02  0.51100000000E-03 0. -1.
<mgrwt>
<rscale>  0 0.93902021E+02</rscale>
<asrwt>0</asrwt>
<pdfrwt beam="2">  1        1 0.30415971E-02 0.93902021E+02</pdfrwt>
<pdfrwt beam="1">  1       -1 0.17153845E-01 0.93902021E+02</pdfrwt>
<totfact> 0.73853198E+04</totfact>
</mgrwt>
</event>
<event>
 5    1  0.2718303E+000  0.8944777E+02  0.7818608E-02  0.1304195E+00
          1   -1    0    0  501    0  0.00000000000E+00  0.00000000000E+00  0.11448398980E+03  0.11448398989E+03  0.46700000000E-02 0. -1.
         -1   -1    0    0    0  501 -0.00000000000E+00 -0.00000000000E+00 -0.17471665223E+02  0.17471665847E+02  0.46700000000E-02 0.  1.
         23    2    1    2    0    0  0.00000000000E+00  0.00000000000E+00  0.97012324576E+02  0.13195565574E+03  0.89447772261E+02 0.  0.
        -11    1    3    3    0    0  0.39474672332E+01  0.44467622716E+02  0.52484904576E+02  0.68902954770E+02  0.51100000000E-03 0.  1.
         11    1    3    3    0    0 -0.39474672332E+01 -0.44467622716E+02  0.44527420000E+02  0.63052700970E+02  0.51100000000E-03 0. -1.
<mgrwt>
<rscale>  0 0.89447772E+02</rscale>
<asrwt>0</asrwt>
<pdfrwt beam="1">  1        1 0.17612921E-01 0.89447772E+02</pdfrwt>
<pdfrwt beam="2">  1       -1 0.26879486E-02 0.89447772E+02</pdfrwt>
<totfact> 0.11255819E+05</totfact>
</mgrwt>
</event>
<event>
 5    1  0.2718303E+000  0.9061792E+02  0.7818608E-02  0.1301362E+00
          1   -1    0    0  501    0  0.00000000000E+00  0.00000000000E+00  0.16830413077E+02  0.16830413725E+02  0.46700000000E-02 0. -1.
         -1   -1    0    0    0  501 -0.00000000000E+00 -0.00000000000E+00 -0.12197572599E+03  0.12197572608E+03  0.46700000000E-02 0.  1.
         23    2    1    2    0    0  0.00000000000E+00  0.00000000000E+00 -0.10514531291E+03  0.13880613980E+03  0.90617921073E+02 0.  0.
        -11    1    3    3    0    0 -0.81072341168E+01  0.43783997114E+02 -0.65400860895E+02  0.79120403528E+02  0.51100000000E-03 0.  1.
         11    1    3    3    0    0  0.81072341168E+01 -0.43783997114E+02 -0.39744452016E+02  0.59685736274E+02  0.51100000000E-03 0. -1.
<mgrwt>
<rscale>  0 0.90617921E+02</rscale>
<asrwt>0</asrwt>
<pdfrwt beam="1">  1        1 0.25892944E-02 0.90617921E+02</pdfrwt>
<pdfrwt beam="2">  1       -1 0.18765496E-01 0.90617921E+02</pdfrwt>
<totfact> 0.79521356E+04</totfact>
</mgrwt>
</event>
<event>
 5    1  0.2718303E+000  0.9051239E+02  0.7818608E-02  0.1301616E+00
         -1   -1    0    0    0  501 -0.00000000000E+00  0.00000000000E+00  0.31081510921E+02  0.31081511272E+02  0.46700000000E-02 0.  1.
          1   -1    0    0  501    0  0.00000000000E+00 -0.00000000000E+00 -0.65895224414E+02  0.65895224579E+02  0.46700000000E-02 0. -1.
         23    2    1    2    0    0  0.00000000000E+00  0.00000000000E+00 -0.34813713493E+02  0.96976735851E+02  0.90512389479E+02 0.  0.
        -11    1    3    3    0    0 -0.19978345918E+02  0.14562640681E+02 -0.58020839285E+02  0.63068396213E+02  0.51100000000E-03 0. -1.
         11    1    3    3    0    0  0.19978345918E+02 -0.14562640681E+02  0.23207125792E+02  0.33908339638E+02  0.51100000000E-03 0.  1.
<mgrwt>
<rscale>  0 0.90512389E+02</rscale>
<asrwt>0</asrwt>
<pdfrwt beam="2">  1        1 0.10137727E-01 0.90512389E+02</pdfrwt>
<pdfrwt beam="1">  1       -1 0.47817710E-02 0.90512389E+02</pdfrwt>
<totfact> 0.99749162E+04</totfact>
</mgrwt>
</event>
<event>
 5    1  0.2718303E+000  0.8989657E+02  0.7818608E-02  0.1303102E+00
          1   -1    0    0  501    0  0.00000000000E+00  0.00000000000E+00  0.27842367172E+03  0.27842367176E+03  0.46700000000E-02 0. -1.
         -1   -1    0    0    0  501 -0.00000000000E+00 -0.00000000000E+00 -0.72563813089E+01  0.72563828116E+01  0.46700000000E-02 0.  1.
         23    2    1    2    0    0  0.00000000000E+00  0.00000000000E+00  0.27116729041E+03  0.28568005457E+03  0.89896574966E+02 0.  0.
        -11    1    3    3    0    0  0.16072758515E+02 -0.40224039026E+02  0.17372365865E+03  0.17904249903E+03  0.51100000000E-03 0. -1.
         11    1    3    3    0    0 -0.16072758515E+02  0.40224039026E+02  0.97443631757E+02  0.10663755554E+03  0.51100000000E-03 0.  1.
<mgrwt>
<rscale>  0 0.89896575E+02</rscale>
<asrwt>0</asrwt>
<pdfrwt beam="1">  1        1 0.42834406E-01 0.89896575E+02</pdfrwt>
<pdfrwt beam="2">  1       -1 0.11163666E-02 0.89896575E+02</pdfrwt>
<totfact> 0.13114313E+05</totfact>
</mgrwt>
</event>
<event>
 5    1  0.2718303E+000  0.9097438E+02  0.7818608E-02  0.1300509E+00
         -1   -1    0    0    0  501 -0.00000000000E+00  0.00000000000E+00  0.61359597932E+02  0.61359598110E+02  0.46700000000E-02 0.  1.
          1   -1    0    0  501    0  0.00000000000E+00 -0.00000000000E+00 -0.33720634443E+02  0.33720634766E+02  0.46700000000E-02 0. -1.
         23    2    1    2    0    0  0.00000000000E+00  0.00000000000E+00  0.27638963489E+02  0.95080232876E+02  0.90974383103E+02 0.  0.
        -11    1    3    3    0    0  0.77680030043E+01  0.34759010302E+02  0.43390509138E+02  0.56136146567E+02  0.51100000000E-03 0.  1.
         11    1    3    3    0    0 -0.77680030043E+01 -0.34759010302E+02 -0.15751545649E+02  0.38944086309E+02  0.51100000000E-03 0. -1.
<mgrwt>
<rscale>  0 0.90974383E+02</rscale>
<asrwt>0</asrwt>
<pdfrwt beam="2">  1        1 0.51877900E-02 0.90974383E+02</pdfrwt>
<pdfrwt beam="1">  1       -1 0.94399380E-02 0.90974383E+02</pdfrwt>
<totfact> 0.88871020E+04</totfact>
</mgrwt>
</event>
<event>
 5    1  0.2718303E+000  0.8604438E+02  0.7818608E-02  0.1312724E+00
         -1   -1    0    0    0  501 -0.00000000000E+00  0.00000000000E+00  0.91081680565E+02  0.91081680685E+02  0.46700000000E-02 0.  1.
          1   -1    0    0  501    0  0.00000000000E+00 -0.00000000000E+00 -0.20321417080E+02  0.20321417617E+02  0.46700000000E-02 0. -1.
         23    2    1    2    0    0  0.00000000000E+00  0.00000000000E+00  0.70760263485E+02  0.11140309830E+03  0.86044380542E+02 0.  0.
        -11    1    3    3    0    0 -0.97386506155E+01  0.40347518230E+02  0.50036491576E+02  0.65010876265E+02  0.51100000000E-03 0.  1.
         11    1    3    3    0    0  0.97386506155E+01 -0.40347518230E+02  0.20723771909E+02  0.46392222037E+02  0.51100000000E-03 0. -1.
<mgrwt>
<rscale>  0 0.86044381E+02</rscale>
<asrwt>0</asrwt>
<pdfrwt beam="2">  1        1 0.31263719E-02 0.86044381E+02</pdfrwt>
<pdfrwt beam="1">  1       -1 0.14012566E-01 0.86044381E+02</pdfrwt>
<totfact> 0.96025571E+04</totfact>
</mgrwt>
</event>
<event>
 5    1  0.2718303E+000  0.9186955E+02  0.7818608E-02  0.1298386E+00
         -1   -1    0    0    0  501 -0.00000000000E+00  0.00000000000E+00  0.89131057793E+02  0.89131057916E+02  0.46700000000E-02 0.  1.
          1   -1    0    0  501    0  0.00000000000E+00 -0.00000000000E+00 -0.23673046603E+02  0.23673047064E+02  0.46700000000E-02 0. -1.
         23    2    1    2    0    0  0.00000000000E+00  0.00000000000E+00  0.65458011190E+02  0.11280410498E+03  0.91869553560E+02 0.  0.
        -11    1    3    3    0    0 -0.24845615932E+02 -0.37229830935E+02  0.45408760886E+02  0.63759865965E+02  0.51100000000E-03 0.  1.
         11    1    3    3    0    0  0.24845615932E+02  0.37229830935E+02  0.20049250304E+02  0.49044239014E+02  0.51100000000E-03 0. -1.
<mgrwt>
<rscale>  0 0.91869554E+02</rscale>
<asrwt>0</asrwt>
<pdfrwt beam="2">  1        1 0.36420072E-02 0.91869554E+02</pdfrwt>
<pdfrwt beam="1">  1       -1 0.13712470E-01 0.91869554E+02</pdfrwt>
<totfact> 0.81483768E+04</totfact>
</mgrwt>
</event>
<event>
 5    1  0.2718303E+000  0.8417521E+02  0.7818608E-02  0.1317604E+00
         -1   -1    0    0    0  501 -0.00000000000E+00  0.00000000000E+00  0.18415166843E+02  0.18415167435E+02  0.46700000000E-02 0.  1.
          1   -1    0    0  501    0  0.00000000000E+00 -0.00000000000E+00 -0.96190635767E+02  0.96190635880E+02  0.46700000000E-02 0. -1.
         23    2    1    2    0    0  0.00000000000E+00  0.00000000000E+00 -0.77775468924E+02  0.11460580332E+03  0.84175213615E+02 0.  0.
        -11    1    3    3    0    0  0.28264197195E+02  0.21561275543E+02 -0.82124332366E+01  0.36485579426E+02  0.51100000000E-03 0.  1.
         11    1    3    3    0    0 -0.28264197195E+02 -0.21561275543E+02 -0.69563035688E+02  0.78120223889E+02  0.51100000000E-03 0. -1.
<mgrwt>
<rscale>  0 0.84175214E+02</rscale>
<asrwt>0</asrwt>
<pdfrwt beam="2">  1        1 0.14798559E-01 0.84175214E+02</pdfrwt>
<pdfrwt beam="1">  1       -1 0.28331027E-02 0.84175214E+02</pdfrwt>
<totfact> 0.12890394E+05</totfact>
</mgrwt>
</event>
<event>
 5    1  0.2718303E+000  0.8976892E+02  0.7818608E-02  0.1303412E+00
         -1   -1    0    0    0  501 -0.00000000000E+00  0.00000000000E+00  0.26360853785E+02  0.26360854199E+02  0.46700000000E-02 0.  1.
          1   -1    0    0  501    0  0.00000000000E+00 -0.00000000000E+00 -0.76424486360E+02  0.76424486503E+02  0.46700000000E-02 0. -1.
         23    2    1    2    0    0  0.00000000000E+00  0.00000000000E+00 -0.50063632575E+02  0.10278534070E+03  0.89768919769E+02 0.  0.
        -11    1    3    3    0    0 -0.24522217895E+02 -0.37585066759E+02 -0.24117016345E+02  0.50947098950E+02  0.51100000000E-03 0.  1.
         11    1    3    3    0    0  0.24522217895E+02  0.37585066759E+02 -0.25946616230E+02  0.51838241751E+02  0.51100000000E-03 0. -1.
<mgrwt>
<rscale>  0 0.89768920E+02</rscale>
<asrwt>0</asrwt>
<pdfrwt beam="2">  1        1 0.11757613E-01 0.89768920E+02</pdfrwt>
<pdfrwt beam="1">  1       -1 0.40555161E-02 0.89768920E+02</pdfrwt>
<totfact> 0.10438643E+05</totfact>
</mgrwt>
</event>
<event>
 5    1  0.2718303E+000  0.9053298E+02  0.7818608E-02  0.1301566E+00
         -1   -1    0    0    0  501 -0.00000000000E+00  0.00000000000E+00  0.56257975510E+02  0.56257975704E+02  0.46700000000E-02 0. -1.
          1   -1    0    0  501    0  0.00000000000E+00 -0.00000000000E+00 -0.36422484939E+02  0.36422485238E+02  0.46700000000E-02 0.  1.
         23    2    1    2    0    0  0.00000000000E+00  0.00000000000E+00  0.19835490572E+02  0.92680460942E+02  0.90532983792E+02 0.  0.
        -11    1    3    3    0    0  0.32864773432E+02  0.24709371834E+02  0.29298502593E+02  0.50488103981E+02  0.51100000000E-03 0. -1.
         11    1    3    3    0    0 -0.32864773432E+02 -0.24709371834E+02 -0.94630120212E+01  0.42192356961E+02  0.51100000000E-03 0.  1.
<mgrwt>
<rscale>  0 0.90532984E+02</rscale>
<asrwt>0</asrwt>
<pdfrwt beam="2">  1        1 0.56034592E-02 0.90532984E+02</pdfrwt>
<pdfrwt beam="1">  1       -1 0.86550732E-02 0.90532984E+02</pdfrwt>
<totfact> 0.91187260E+04</totfact>
</mgrwt>
</event>
<event>
 5    1  0.2718303E+000  0.8948397E+02  0.7818608E-02  0.1304106E+00
         -1   -1    0    0    0  501 -0.00000000000E+00  0.00000000000E+00  0.23890450108E+02  0.23890450564E+02  0.46700000000E-02 0.  1.
          1   -1    0    0  501    0  0.00000000000E+00 -0.00000000000E+00 -0.83792696441E+02  0.83792696571E+02  0.46700000000E-02 0. -1.
         23    2    1    2    0    0  0.00000000000E+00  0.00000000000E+00 -0.59902246333E+02  0.10768314713E+03  0.89483970973E+02 0.  0.
        -11    1    3    3    0    0  0.41124037368E+01  0.29320592569E+02 -0.70317925606E+02  0.76296917860E+02  0.51100000000E-03 0. -1.
         11    1    3    3    0    0 -0.41124037368E+01 -0.29320592569E+02  0.10415679273E+02  0.31386229275E+02  0.51100000000E-03 0.  1.
<mgrwt>
<rscale>  0 0.89483971E+02</rscale>
<asrwt>0</asrwt>
<pdfrwt beam="2">  1        1 0.12891184E-01 0.89483971E+02</pdfrwt>
<pdfrwt beam="1">  1       -1 0.36754540E-02 0.89483971E+02</pdfrwt>
<totfact> 0.10682459E+05</totfact>
</mgrwt>
</event>
<event>
 5    1  0.2718303E+000  0.8949154E+02  0.7818608E-02  0.1304088E+00
         -1   -1    0    0    0  501 -0.00000000000E+00  0.00000000000E+00  0.56990398587E+02  0.56990398778E+02  0.46700000000E-02 0.  1.
          1   -1    0    0  501    0  0.00000000000E+00 -0.00000000000E+00 -0.35131954830E+02  0.35131955140E+02  0.46700000000E-02 0. -1.
         23    2    1    2    0    0  0.00000000000E+00  0.00000000000E+00  0.21858443757E+02  0.92122353919E+02  0.89491544450E+02 0.  0.
        -11    1    3    3    0    0  0.29763490112E+02 -0.31384288030E+02 -0.86828431368E+00  0.43261909305E+02  0.51100000000E-03 0. -1.
         11    1    3    3    0    0 -0.29763490112E+02  0.31384288030E+02  0.22726728071E+02  0.48860444614E+02  0.51100000000E-03 0.  1.
<mgrwt>
<rscale>  0 0.89491544E+02</rscale>
<asrwt>0</asrwt>
<pdfrwt beam="2">  1        1 0.54049162E-02 0.89491544E+02</pdfrwt>
<pdfrwt beam="1">  1       -1 0.87677535E-02 0.89491544E+02</pdfrwt>
<totfact> 0.93707388E+04</totfact>
</mgrwt>
</event>
<event>
 5    1  0.2718303E+000  0.1007976E+03  0.7818608E-02  0.1278628E+00
          1   -1    0    0  501    0  0.00000000000E+00  0.00000000000E+00  0.21721245974E+03  0.21721245979E+03  0.46700000000E-02 0. -1.
         -1   -1    0    0    0  501 -0.00000000000E+00 -0.00000000000E+00 -0.11693788633E+02  0.11693789565E+02  0.46700000000E-02 0.  1.
         23    2    1    2    0    0  0.00000000000E+00  0.00000000000E+00  0.20551867111E+03  0.22890624936E+03  0.10079755364E+03 0.  0.
        -11    1    3    3    0    0 -0.47290215761E+02  0.44783108002E+01  0.64514417583E+02  0.80115727861E+02  0.51100000000E-03 0.  1.
         11    1    3    3    0    0  0.47290215761E+02 -0.44783108002E+01  0.14100425353E+03  0.14879052150E+03  0.51100000000E-03 0. -1.
<mgrwt>
<rscale>  0 0.10079755E+03</rscale>
<asrwt>0</asrwt>
<pdfrwt beam="1">  1        1 0.33417301E-01 0.10079755E+03</pdfrwt>
<pdfrwt beam="2">  1       -1 0.17990445E-02 0.10079755E+03</pdfrwt>
<totfact> 0.91830196E+04</totfact>
</mgrwt>
</event>
<event>
 5    1  0.2718303E+000  0.5573064E+02  0.7818608E-02  0.1416675E+00
          1   -1    0    0  501    0  0.00000000000E+00  0.00000000000E+00  0.10821424265E+03  0.10821424275E+03  0.46700000000E-02 0. -1.
         -1   -1    0    0    0  501 -0.00000000000E+00 -0.00000000000E+00 -0.71753582287E+01  0.71753597484E+01  0.46700000000E-02 0.  1.
         23    2    1    2    0    0  0.00000000000E+00  0.00000000000E+00  0.10103888442E+03  0.11538960250E+03  0.55730639685E+02 0.  0.
        -11    1    3    3    0    0  0.58350106088E+01  0.21358737446E+02  0.85548828408E+02  0.88367669746E+02  0.51100000000E-03 0. -1.
         11    1    3    3    0    0 -0.58350106088E+01 -0.21358737446E+02  0.15490056011E+02  0.27021932751E+02  0.51100000000E-03 0.  1.
<mgrwt>
<rscale>  0 0.55730640E+02</rscale>
<asrwt>0</asrwt>
<pdfrwt beam="1">  1        1 0.16648345E-01 0.55730640E+02</pdfrwt>
<pdfrwt beam="2">  1       -1 0.11039014E-02 0.55730640E+02</pdfrwt>
<totfact> 0.38746322E+05</totfact>
</mgrwt>
</event>
<event>
 5    1  0.2718303E+000  0.7497346E+02  0.7818608E-02  0.1343953E+00
         -1   -1    0    0    0  501 -0.00000000000E+00  0.00000000000E+00  0.29470766619E+02  0.29470766989E+02  0.46700000000E-02 0.  1.
          1   -1    0    0  501    0  0.00000000000E+00 -0.00000000000E+00 -0.47683007169E+02  0.47683007397E+02  0.46700000000E-02 0. -1.
         23    2    1    2    0    0  0.00000000000E+00  0.00000000000E+00 -0.18212240550E+02  0.77153774386E+02  0.74973456611E+02 0.  0.
        -11    1    3    3    0    0 -0.22994804736E+02  0.19312799551E+02 -0.32197691720E+02  0.44027680199E+02  0.51100000000E-03 0. -1.
         11    1    3    3    0    0  0.22994804736E+02 -0.19312799551E+02  0.13985451170E+02  0.33126094187E+02  0.51100000000E-03 0.  1.
<mgrwt>
<rscale>  0 0.74973457E+02</rscale>
<asrwt>0</asrwt>
<pdfrwt beam="2">  1        1 0.73358473E-02 0.74973457E+02</pdfrwt>
<pdfrwt beam="1">  1       -1 0.45339641E-02 0.74973457E+02</pdfrwt>
<totfact> 0.15967135E+05</totfact>
</mgrwt>
</event>
<event>
 5    1  0.2718303E+000  0.9092396E+02  0.7818608E-02  0.1300629E+00
         -1   -1    0    0    0  501 -0.00000000000E+00  0.00000000000E+00  0.12288766594E+02  0.12288767481E+02  0.46700000000E-02 0.  1.
          1   -1    0    0  501    0  0.00000000000E+00 -0.00000000000E+00 -0.16818544452E+03  0.16818544458E+03  0.46700000000E-02 0. -1.
         23    2    1    2    0    0  0.00000000000E+00  0.00000000000E+00 -0.15589667792E+03  0.18047421206E+03  0.90923962915E+02 0.  0.
        -11    1    3    3    0    0  0.40903287077E+02  0.16794304159E+02 -0.98922944447E+02  0.10835532513E+03  0.51100000000E-03 0.  1.
         11    1    3    3    0    0 -0.40903287077E+02 -0.16794304159E+02 -0.56973733475E+02  0.72118886931E+02  0.51100000000E-03 0. -1.
<mgrwt>
<rscale>  0 0.90923963E+02</rscale>
<asrwt>0</asrwt>
<pdfrwt beam="2">  1        1 0.25874682E-01 0.90923963E+02</pdfrwt>
<pdfrwt beam="1">  1       -1 0.18905797E-02 0.90923963E+02</pdfrwt>
<totfact> 0.11540326E+05</totfact>
</mgrwt>
</event>
<event>
 5    1  0.2718303E+000  0.9397915E+02  0.7818608E-02  0.1293492E+00
         -1   -1    0    0    0  501 -0.00000000000E+00  0.00000000000E+00  0.20835833744E+02  0.20835834267E+02  0.46700000000E-02 0.  1.
          1   -1    0    0  501    0  0.00000000000E+00 -0.00000000000E+00 -0.10597224893E+03  0.10597224903E+03  0.46700000000E-02 0. -1.
         23    2    1    2    0    0  0.00000000000E+00  0.00000000000E+00 -0.85136415185E+02  0.12680808330E+03  0.93979150875E+02 0.  0.
        -11    1    3    3    0    0  0.99103080425E+01 -0.20611431823E+02 -0.97955755138E+02  0.10059013516E+03  0.51100000000E-03 0. -1.
         11    1    3    3    0    0 -0.99103080425E+01  0.20611431823E+02  0.12819339953E+02  0.26217948135E+02  0.51100000000E-03 0.  1.
<mgrwt>
<rscale>  0 0.93979151E+02</rscale>
<asrwt>0</asrwt>
<pdfrwt beam="2">  1        1 0.16303423E-01 0.93979151E+02</pdfrwt>
<pdfrwt beam="1">  1       -1 0.32055130E-02 0.93979151E+02</pdfrwt>
<totfact> 0.97107510E+04</totfact>
</mgrwt>
</event>
<event>
 5    1  0.2718303E+000  0.9308180E+02  0.7818608E-02  0.1295556E+00
          1   -1    0    0  501    0  0.00000000000E+00  0.00000000000E+00  0.48594101233E+02  0.48594101458E+02  0.46700000000E-02 0. -1.
         -1   -1    0    0    0  501 -0.00000000000E+00 -0.00000000000E+00 -0.44574451395E+02  0.44574451640E+02  0.46700000000E-02 0.  1.
         23    2    1    2    0    0  0.00000000000E+00  0.00000000000E+00  0.40196498382E+01  0.93168553098E+02  0.93081801129E+02 0.  0.
        -11    1    3    3    0    0 -0.92801599119E+01  0.34208434697E+02  0.32199451451E+02  0.47886773189E+02  0.51100000000E-03 0. -1.
         11    1    3    3    0    0  0.92801599119E+01 -0.34208434697E+02 -0.28179801613E+02  0.45281779908E+02  0.51100000000E-03 0.  1.
<mgrwt>
<rscale>  0 0.93081801E+02</rscale>
<asrwt>0</asrwt>
<pdfrwt beam="1">  1        1 0.74760156E-02 0.93081801E+02</pdfrwt>
<pdfrwt beam="2">  1       -1 0.68576079E-02 0.93081801E+02</pdfrwt>
<totfact> 0.88100270E+04</totfact>
</mgrwt>
</event>
<event>
 5    1  0.2718303E+000  0.9020294E+02  0.7818608E-02  0.1302361E+00
         -1   -1    0    0    0  501 -0.00000000000E+00  0.00000000000E+00  0.22272942746E+02  0.22272943236E+02  0.46700000000E-02 0.  1.
          1   -1    0    0  501    0  0.00000000000E+00 -0.00000000000E+00 -0.91327976015E+02  0.91327976134E+02  0.46700000000E-02 0. -1.
         23    2    1    2    0    0  0.00000000000E+00  0.00000000000E+00 -0.69055033269E+02  0.11360091937E+03  0.90202944863E+02 0.  0.
        -11    1    3    3    0    0  0.26436779843E+02 -0.14215843217E+02 -0.76921545883E+02  0.82570683345E+02  0.51100000000E-03 0. -1.
         11    1    3    3    0    0 -0.26436779843E+02  0.14215843217E+02  0.78665126142E+01  0.31030236025E+02  0.51100000000E-03 0.  1.
<mgrwt>
<rscale>  0 0.90202945E+02</rscale>
<asrwt>0</asrwt>
<pdfrwt beam="2">  1        1 0.14050458E-01 0.90202945E+02</pdfrwt>
<pdfrwt beam="1">  1       -1 0.34266067E-02 0.90202945E+02</pdfrwt>
<totfact> 0.10596593E+05</totfact>
</mgrwt>
</event>
<event>
 5    1  0.2718303E+000  0.9100070E+02  0.7818608E-02  0.1300446E+00
          1   -1    0    0  501    0  0.00000000000E+00  0.00000000000E+00  0.28694152916E+03  0.28694152920E+03  0.46700000000E-02 0. -1.
         -1   -1    0    0    0  501 -0.00000000000E+00 -0.00000000000E+00 -0.72149949263E+01  0.72149964376E+01  0.46700000000E-02 0.  1.
         23    2    1    2    0    0  0.00000000000E+00  0.00000000000E+00  0.27972653423E+03  0.29415652563E+03  0.91000701204E+02 0.  0.
        -11    1    3    3    0    0  0.38735729593E+02  0.19952727802E+02  0.18222135644E+03  0.18735845547E+03  0.51100000000E-03 0. -1.
         11    1    3    3    0    0 -0.38735729593E+02 -0.19952727802E+02  0.97505177796E+02  0.10679807017E+03  0.51100000000E-03 0.  1.
<mgrwt>
<rscale>  0 0.91000701E+02</rscale>
<asrwt>0</asrwt>
<pdfrwt beam="1">  1        1 0.44144847E-01 0.91000701E+02</pdfrwt>
<pdfrwt beam="2">  1       -1 0.11099994E-02 0.91000701E+02</pdfrwt>
<totfact> 0.12768993E+05</totfact>
</mgrwt>
</event>
<event>
 5    1  0.2718303E+000  0.8906486E+02  0.7818608E-02  0.1305132E+00
          1   -1    0    0  501    0  0.00000000000E+00  0.00000000000E+00  0.40615739320E+02  0.40615739589E+02  0.46700000000E-02 0. -1.
         -1   -1    0    0    0  501 -0.00000000000E+00 -0.00000000000E+00 -0.48826818699E+02  0.48826818922E+02  0.46700000000E-02 0.  1.
         23    2    1    2    0    0  0.00000000000E+00  0.00000000000E+00 -0.82110793786E+01  0.89442558511E+02  0.89064860908E+02 0.  0.
        -11    1    3    3    0    0 -0.33612137978E+02 -0.18331733957E+02 -0.26946421539E+02  0.46818136692E+02  0.51100000000E-03 0.  1.
         11    1    3    3    0    0  0.33612137978E+02  0.18331733957E+02  0.18735342160E+02  0.42624421819E+02  0.51100000000E-03 0. -1.
<mgrwt>
<rscale>  0 0.89064861E+02</rscale>
<asrwt>0</asrwt>
<pdfrwt beam="1">  1        1 0.62485753E-02 0.89064861E+02</pdfrwt>
<pdfrwt beam="2">  1       -1 0.75118183E-02 0.89064861E+02</pdfrwt>
<totfact> 0.97070694E+04</totfact>
</mgrwt>
</event>
<event>
 5    1  0.2718303E+000  0.8904587E+02  0.7818608E-02  0.1305179E+00
         -1   -1    0    0    0  501 -0.00000000000E+00  0.00000000000E+00  0.23700418903E+02  0.23700419363E+02  0.46700000000E-02 0.  1.
          1   -1    0    0  501    0  0.00000000000E+00 -0.00000000000E+00 -0.83639521751E+02  0.83639521881E+02  0.46700000000E-02 0. -1.
         23    2    1    2    0    0  0.00000000000E+00  0.00000000000E+00 -0.59939102847E+02  0.10733994124E+03  0.89045869844E+02 0.  0.
        -11    1    3    3    0    0  0.36078070911E+02 -0.19882979991E+02 -0.50331650145E+02  0.65040257538E+02  0.51100000000E-03 0. -1.
         11    1    3    3    0    0 -0.36078070911E+02  0.19882979991E+02 -0.96074527022E+01  0.42299683707E+02  0.51100000000E-03 0.  1.
<mgrwt>
<rscale>  0 0.89045870E+02</rscale>
<asrwt>0</asrwt>
<pdfrwt beam="2">  1        1 0.12867619E-01 0.89045870E+02</pdfrwt>
<pdfrwt beam="1">  1       -1 0.36462184E-02 0.89045870E+02</pdfrwt>
<totfact> 0.10823455E+05</totfact>
</mgrwt>
</event>
<event>
 5    1  0.2718303E+000  0.8859447E+02  0.7818608E-02  0.1306292E+00
          1   -1    0    0  501    0  0.00000000000E+00  0.00000000000E+00  0.60611691472E+02  0.60611691652E+02  0.46700000000E-02 0. -1.
         -1   -1    0    0    0  501 -0.00000000000E+00 -0.00000000000E+00 -0.32374034138E+02  0.32374034475E+02  0.46700000000E-02 0.  1.
         23    2    1    2    0    0  0.00000000000E+00  0.00000000000E+00  0.28237657334E+02  0.92985726127E+02  0.88594469193E+02 0.  0.
        -11    1    3    3    0    0  0.14183609786E+01 -0.34124387887E+02 -0.15488591305E+02  0.37501760724E+02  0.51100000000E-03 0.  1.
         11    1    3    3    0    0 -0.14183609786E+01  0.34124387887E+02  0.43726248639E+02  0.55483965403E+02  0.51100000000E-03 0. -1.
<mgrwt>
<rscale>  0 0.88594469E+02</rscale>
<asrwt>0</asrwt>
<pdfrwt beam="1">  1        1 0.93248756E-02 0.88594469E+02</pdfrwt>
<pdfrwt beam="2">  1       -1 0.49806207E-02 0.88594469E+02</pdfrwt>
<totfact> 0.10449822E+05</totfact>
</mgrwt>
</event>
<event>
 5    1  0.2718303E+000  0.9127556E+02  0.7818608E-02  0.1299792E+00
          1   -1    0    0  501    0  0.00000000000E+00  0.00000000000E+00  0.34656138834E+03  0.34656138838E+03  0.46700000000E-02 0. -1.
         -1   -1    0    0    0  501 -0.00000000000E+00 -0.00000000000E+00 -0.60099207975E+01  0.60099226119E+01  0.46700000000E-02 0.  1.
         23    2    1    2    0    0  0.00000000000E+00  0.00000000000E+00  0.34055146755E+03  0.35257131099E+03  0.91275556877E+02 0.  0.
        -11    1    3    3    0    0  0.39731402238E+02  0.19769431475E+02  0.21140811310E+03  0.21601575181E+03  0.51100000000E-03 0. -1.
         11    1    3    3    0    0 -0.39731402238E+02 -0.19769431475E+02  0.12914335444E+03  0.13655555918E+03  0.51100000000E-03 0.  1.
<mgrwt>
<rscale>  0 0.91275557E+02</rscale>
<asrwt>0</asrwt>
<pdfrwt beam="1">  1        1 0.53317137E-01 0.91275557E+02</pdfrwt>
<pdfrwt beam="2">  1       -1 0.92460334E-03 0.91275557E+02</pdfrwt>
<totfact> 0.13122122E+05</totfact>
</mgrwt>
</event>
<event>
 5    1  0.2718303E+000  0.9191978E+02  0.7818608E-02  0.1298268E+00
         -1   -1    0    0    0  501 -0.00000000000E+00  0.00000000000E+00  0.21407583675E+03  0.21407583680E+03  0.46700000000E-02 0.  1.
          1   -1    0    0  501    0  0.00000000000E+00 -0.00000000000E+00 -0.98671175044E+01  0.98671186096E+01  0.46700000000E-02 0. -1.
         23    2    1    2    0    0  0.00000000000E+00  0.00000000000E+00  0.20420871924E+03  0.22394295541E+03  0.91919781669E+02 0.  0.
        -11    1    3    3    0    0 -0.19388967980E+02 -0.37233851623E+02  0.14768440094E+03  0.15353492784E+03  0.51100000000E-03 0.  1.
         11    1    3    3    0    0  0.19388967980E+02  0.37233851623E+02  0.56524318304E+02  0.70408027567E+02  0.51100000000E-03 0. -1.
<mgrwt>
<rscale>  0 0.91919782E+02</rscale>
<asrwt>0</asrwt>
<pdfrwt beam="2">  1        1 0.15180182E-02 0.91919782E+02</pdfrwt>
<pdfrwt beam="1">  1       -1 0.32934743E-01 0.91919782E+02</pdfrwt>
<totfact> 0.66626914E+04</totfact>
</mgrwt>
</event>
<event>
 5    1  0.2718303E+000  0.9346184E+02  0.7818608E-02  0.1294678E+00
         -1   -1    0    0    0  501 -0.00000000000E+00  0.00000000000E+00  0.20678578087E+02  0.20678578615E+02  0.46700000000E-02 0.  1.
          1   -1    0    0  501    0  0.00000000000E+00 -0.00000000000E+00 -0.10560586209E+03  0.10560586219E+03  0.46700000000E-02 0. -1.
         23    2    1    2    0    0  0.00000000000E+00  0.00000000000E+00 -0.84927284000E+02  0.12628444081E+03  0.93461844738E+02 0.  0.
        -11    1    3    3    0    0 -0.37946813290E+02  0.11835294938E+02 -0.75663941698E+02  0.85469684209E+02  0.51100000000E-03 0. -1.
         11    1    3    3    0    0  0.37946813290E+02 -0.11835294938E+02 -0.92633423016E+01  0.40814756596E+02  0.51100000000E-03 0.  1.
<mgrwt>
<rscale>  0 0.93461845E+02</rscale>
<asrwt>0</asrwt>
<pdfrwt beam="2">  1        1 0.16247055E-01 0.93461845E+02</pdfrwt>
<pdfrwt beam="1">  1       -1 0.31813198E-02 0.93461845E+02</pdfrwt>
<totfact> 0.98525504E+04</totfact>
</mgrwt>
</event>
<event>
 5    1  0.2718303E+000  0.9220752E+02  0.7818608E-02  0.1297592E+00
         -1   -1    0    0    0  501 -0.00000000000E+00  0.00000000000E+00  0.11899083167E+03  0.11899083176E+03  0.46700000000E-02 0.  1.
          1   -1    0    0  501    0  0.00000000000E+00 -0.00000000000E+00 -0.17863197985E+02  0.17863198596E+02  0.46700000000E-02 0. -1.
         23    2    1    2    0    0  0.00000000000E+00  0.00000000000E+00  0.10112763369E+03  0.13685403036E+03  0.92207523178E+02 0.  0.
        -11    1    3    3    0    0 -0.12781911827E+02 -0.40815255735E+02  0.76111587123E+02  0.87305418304E+02  0.51100000000E-03 0.  1.
         11    1    3    3    0    0  0.12781911827E+02  0.40815255735E+02  0.25016046565E+02  0.49548612056E+02  0.51100000000E-03 0. -1.
<mgrwt>
<rscale>  0 0.92207523E+02</rscale>
<asrwt>0</asrwt>
<pdfrwt beam="2">  1        1 0.27481845E-02 0.92207523E+02</pdfrwt>
<pdfrwt beam="1">  1       -1 0.18306281E-01 0.92207523E+02</pdfrwt>
<totfact> 0.76410747E+04</totfact>
</mgrwt>
</event>
<event>
 5    1  0.2718303E+000  0.8648291E+02  0.7818608E-02  0.1311599E+00
          1   -1    0    0  501    0  0.00000000000E+00  0.00000000000E+00  0.89545881025E+01  0.89545893202E+01  0.46700000000E-02 0. -1.
         -1   -1    0    0    0  501 -0.00000000000E+00 -0.00000000000E+00 -0.20881175694E+03  0.20881175699E+03  0.46700000000E-02 0.  1.
         23    2    1    2    0    0  0.00000000000E+00  0.00000000000E+00 -0.19985716884E+03  0.21776634631E+03  0.86482909587E+02 0.  0.
        -11    1    3    3    0    0 -0.26327637667E+02 -0.16677797977E+02 -0.17540769152E+03  0.17815485314E+03  0.51100000000E-03 0.  1.
         11    1    3    3    0    0  0.26327637667E+02  0.16677797977E+02 -0.24449477318E+02  0.39611493179E+02  0.51100000000E-03 0. -1.
<mgrwt>
<rscale>  0 0.86482910E+02</rscale>
<asrwt>0</asrwt>
<pdfrwt beam="1">  1        1 0.13776292E-02 0.86482910E+02</pdfrwt>
<pdfrwt beam="2">  1       -1 0.32124882E-01 0.86482910E+02</pdfrwt>
<totfact> 0.78663105E+04</totfact>
</mgrwt>
</event>
<event>
 4    1  0.2718303E+000  0.3006937E+02  0.7818608E-02  0.1597323E+00
         -1   -1    0    0    0  501 -0.00000000000E+00  0.00000000000E+00  0.42292607894E+01  0.42292633677E+01  0.46700000000E-02 0. -1.
          1   -1    0    0  501    0  0.00000000000E+00 -0.00000000000E+00 -0.53447091027E+02  0.53447091231E+02  0.46700000000E-02 0.  1.
        -11    1    1    2    0    0 -0.82833249305E+01 -0.12455334510E+02 -0.21704427741E+02  0.26359647446E+02  0.51100000000E-03 0. -1.
         11    1    1    2    0    0  0.82833249305E+01  0.12455334510E+02 -0.27513402497E+02  0.31316707153E+02  0.51100000000E-03 0.  1.
<mgrwt>
<rscale>  0 0.30069371E+02</rscale>
<asrwt>0</asrwt>
<pdfrwt beam="2">  1        1 0.82226291E-02 0.30069371E+02</pdfrwt>
<pdfrwt beam="1">  1       -1 0.65065576E-03 0.30069371E+02</pdfrwt>
<totfact> 0.16414281E+06</totfact>
</mgrwt>
</event>
<event>
 5    1  0.2718303E+000  0.8878571E+02  0.7818608E-02  0.1305819E+00
         -1   -1    0    0    0  501 -0.00000000000E+00  0.00000000000E+00  0.22233028090E+03  0.22233028095E+03  0.46700000000E-02 0. -1.
          1   -1    0    0  501    0  0.00000000000E+00 -0.00000000000E+00 -0.88639539225E+01  0.88639551527E+01  0.46700000000E-02 0.  1.
         23    2    1    2    0    0  0.00000000000E+00  0.00000000000E+00  0.21346632698E+03  0.23119423611E+03  0.88785708611E+02 0.  0.
        -11    1    3    3    0    0 -0.38918380386E+02 -0.10408278164E+02  0.58174208241E+02  0.70761649861E+02  0.51100000000E-03 0.  1.
         11    1    3    3    0    0  0.38918380386E+02  0.10408278164E+02  0.15529211874E+03  0.16043258624E+03  0.51100000000E-03 0. -1.
<mgrwt>
<rscale>  0 0.88785709E+02</rscale>
<asrwt>0</asrwt>
<pdfrwt beam="2">  1        1 0.13636853E-02 0.88785709E+02</pdfrwt>
<pdfrwt beam="1">  1       -1 0.34204659E-01 0.88785709E+02</pdfrwt>
<totfact> 0.72093598E+04</totfact>
</mgrwt>
</event>
<event>
 5    1  0.2718303E+000  0.9053890E+02  0.7818608E-02  0.1301552E+00
         -1   -1    0    0    0  501 -0.00000000000E+00  0.00000000000E+00  0.28991045486E+02  0.28991045863E+02  0.46700000000E-02 0.  1.
          1   -1    0    0  501    0  0.00000000000E+00 -0.00000000000E+00 -0.70688146558E+02  0.70688146712E+02  0.46700000000E-02 0. -1.
         23    2    1    2    0    0  0.00000000000E+00  0.00000000000E+00 -0.41697101071E+02  0.99679192575E+02  0.90538904315E+02 0.  0.
        -11    1    3    3    0    0  0.53689030642E+01  0.21842368299E+02 -0.64100910513E+02  0.67932620307E+02  0.51100000000E-03 0. -1.
         11    1    3    3    0    0 -0.53689030642E+01 -0.21842368299E+02  0.22403809441E+02  0.31746572267E+02  0.51100000000E-03 0.  1.
<mgrwt>
<rscale>  0 0.90538904E+02</rscale>
<asrwt>0</asrwt>
<pdfrwt beam="2">  1        1 0.10875099E-01 0.90538904E+02</pdfrwt>
<pdfrwt beam="1">  1       -1 0.44601609E-02 0.90538904E+02</pdfrwt>
<totfact> 0.10074553E+05</totfact>
</mgrwt>
</event>
<event>
 5    1  0.2718303E+000  0.9122805E+02  0.7818608E-02  0.1299905E+00
          1   -1    0    0  501    0  0.00000000000E+00  0.00000000000E+00  0.88216818713E+02  0.88216818837E+02  0.46700000000E-02 0. -1.
         -1   -1    0    0    0  501 -0.00000000000E+00 -0.00000000000E+00 -0.23585516865E+02  0.23585517327E+02  0.46700000000E-02 0.  1.
         23    2    1    2    0    0  0.00000000000E+00  0.00000000000E+00  0.64631301848E+02  0.11180233616E+03  0.91228050473E+02 0.  0.
        -11    1    3    3    0    0 -0.26193214094E+02  0.35987515182E+02  0.44537381467E+02  0.62966372468E+02  0.51100000000E-03 0. -1.
         11    1    3    3    0    0  0.26193214094E+02 -0.35987515182E+02  0.20093920382E+02  0.48835963696E+02  0.51100000000E-03 0.  1.
<mgrwt>
<rscale>  0 0.91228050E+02</rscale>
<asrwt>0</asrwt>
<pdfrwt beam="1">  1        1 0.13571818E-01 0.91228050E+02</pdfrwt>
<pdfrwt beam="2">  1       -1 0.36285411E-02 0.91228050E+02</pdfrwt>
<totfact> 0.10217126E+05</totfact>
</mgrwt>
</event>
<event>
 5    1  0.2718303E+000  0.9019857E+02  0.7818608E-02  0.1302372E+00
          1   -1    0    0  501    0  0.00000000000E+00  0.00000000000E+00  0.30484118199E+02  0.30484118557E+02  0.46700000000E-02 0. -1.
         -1   -1    0    0    0  501 -0.00000000000E+00 -0.00000000000E+00 -0.66721475551E+02  0.66721475714E+02  0.46700000000E-02 0.  1.
         23    2    1    2    0    0  0.00000000000E+00  0.00000000000E+00 -0.36237357352E+02  0.97205594271E+02  0.90198567004E+02 0.  0.
        -11    1    3    3    0    0  0.12550448348E+02  0.39851444667E+02  0.17956496664E+00  0.41781379101E+02  0.51100000000E-03 0.  1.
         11    1    3    3    0    0 -0.12550448348E+02 -0.39851444667E+02 -0.36416922318E+02  0.55424215169E+02  0.51100000000E-03 0. -1.
<mgrwt>
<rscale>  0 0.90198567E+02</rscale>
<asrwt>0</asrwt>
<pdfrwt beam="1">  1        1 0.46898644E-02 0.90198567E+02</pdfrwt>
<pdfrwt beam="2">  1       -1 0.10264842E-01 0.90198567E+02</pdfrwt>
<totfact> 0.89634343E+04</totfact>
</mgrwt>
</event>
<event>
 5    1  0.2718303E+000  0.9162530E+02  0.7818608E-02  0.1298963E+00
          1   -1    0    0  501    0  0.00000000000E+00  0.00000000000E+00  0.18827577070E+03  0.18827577076E+03  0.46700000000E-02 0. -1.
         -1   -1    0    0    0  501 -0.00000000000E+00 -0.00000000000E+00 -0.11147470928E+02  0.11147471907E+02  0.46700000000E-02 0.  1.
         23    2    1    2    0    0  0.00000000000E+00  0.00000000000E+00  0.17712829978E+03  0.19942324267E+03  0.91625297463E+02 0.  0.
        -11    1    3    3    0    0 -0.19984150799E+02  0.29269160163E+02  0.15174848768E+03  0.15583213254E+03  0.51100000000E-03 0. -1.
         11    1    3    3    0    0  0.19984150799E+02 -0.29269160163E+02  0.25379812100E+02  0.43591110129E+02  0.51100000000E-03 0.  1.
<mgrwt>
<rscale>  0 0.91625297E+02</rscale>
<asrwt>0</asrwt>
<pdfrwt beam="1">  1        1 0.28965505E-01 0.91625297E+02</pdfrwt>
<pdfrwt beam="2">  1       -1 0.17149955E-02 0.91625297E+02</pdfrwt>
<totfact> 0.11549831E+05</totfact>
</mgrwt>
</event>
<event>
 5    1  0.2718303E+000  0.9154900E+02  0.7818608E-02  0.1299143E+00
          1   -1    0    0  501    0  0.00000000000E+00  0.00000000000E+00  0.30146625447E+03  0.30146625451E+03  0.46700000000E-02 0. -1.
         -1   -1    0    0    0  501 -0.00000000000E+00 -0.00000000000E+00 -0.69503789814E+01  0.69503805503E+01  0.46700000000E-02 0.  1.
         23    2    1    2    0    0  0.00000000000E+00  0.00000000000E+00  0.29451587549E+03  0.30841663506E+03  0.91549002533E+02 0.  0.
        -11    1    3    3    0    0 -0.23832439921E+02 -0.38458870787E+02  0.12386065306E+03  0.13186558047E+03  0.51100000000E-03 0. -1.
         11    1    3    3    0    0  0.23832439921E+02  0.38458870787E+02  0.17065522243E+03  0.17655105459E+03  0.51100000000E-03 0.  1.
<mgrwt>
<rscale>  0 0.91549003E+02</rscale>
<asrwt>0</asrwt>
<pdfrwt beam="1">  1        1 0.46379420E-01 0.91549003E+02</pdfrwt>
<pdfrwt beam="2">  1       -1 0.10692893E-02 0.91549003E+02</pdfrwt>
<totfact> 0.12685548E+05</totfact>
</mgrwt>
</event>
<event>
 5    1  0.2718303E+000  0.8916311E+02  0.7818608E-02  0.1304891E+00
         -1   -1    0    0    0  501 -0.00000000000E+00  0.00000000000E+00  0.38930035458E+02  0.38930035738E+02  0.46700000000E-02 0.  1.
          1   -1    0    0  501    0  0.00000000000E+00 -0.00000000000E+00 -0.51053514883E+02  0.51053515096E+02  0.46700000000E-02 0. -1.
         23    2    1    2    0    0  0.00000000000E+00  0.00000000000E+00 -0.12123479425E+02  0.89983550834E+02  0.89163112706E+02 0.  0.
        -11    1    3    3    0    0  0.36293384261E+02 -0.10869282722E+02  0.17652652375E+02  0.41796736525E+02  0.51100000000E-03 0.  1.
         11    1    3    3    0    0 -0.36293384261E+02  0.10869282722E+02 -0.29776131800E+02  0.48186814309E+02  0.51100000000E-03 0. -1.
<mgrwt>
<rscale>  0 0.89163113E+02</rscale>
<asrwt>0</asrwt>
<pdfrwt beam="2">  1        1 0.78543870E-02 0.89163113E+02</pdfrwt>
<pdfrwt beam="1">  1       -1 0.59892362E-02 0.89163113E+02</pdfrwt>
<totfact> 0.10009433E+05</totfact>
</mgrwt>
</event>
<event>
 5    1  0.2718303E+000  0.8489687E+02  0.7818608E-02  0.1315702E+00
          1   -1    0    0  501    0  0.00000000000E+00  0.00000000000E+00  0.19517545725E+03  0.19517545731E+03  0.46700000000E-02 0. -1.
         -1   -1    0    0    0  501 -0.00000000000E+00 -0.00000000000E+00 -0.92320496490E+01  0.92320508301E+01  0.46700000000E-02 0.  1.
         23    2    1    2    0    0  0.00000000000E+00  0.00000000000E+00  0.18594340760E+03  0.20440750814E+03  0.84896870096E+02 0.  0.
        -11    1    3    3    0    0 -0.42444298707E+02 -0.19113445737E+00  0.91621207993E+02  0.10097524835E+03  0.51100000000E-03 0.  1.
         11    1    3    3    0    0  0.42444298707E+02  0.19113445737E+00  0.94322199608E+02  0.10343225979E+03  0.51100000000E-03 0. -1.
<mgrwt>
<rscale>  0 0.84896870E+02</rscale>
<asrwt>0</asrwt>
<pdfrwt beam="1">  1        1 0.30026994E-01 0.84896870E+02</pdfrwt>
<pdfrwt beam="2">  1       -1 0.14203154E-02 0.84896870E+02</pdfrwt>
<totfact> 0.14259333E+05</totfact>
</mgrwt>
</event>
<event>
 5    1  0.2718303E+000  0.7447482E+02  0.7818608E-02  0.1345505E+00
         -1   -1    0    0    0  501 -0.00000000000E+00  0.00000000000E+00  0.12710535508E+02  0.12710536366E+02  0.46700000000E-02 0.  1.
          1   -1    0    0  501    0  0.00000000000E+00 -0.00000000000E+00 -0.10909253042E+03  0.10909253052E+03  0.46700000000E-02 0. -1.
         23    2    1    2    0    0  0.00000000000E+00  0.00000000000E+00 -0.96381994914E+02  0.12180306689E+03  0.74474815607E+02 0.  0.
        -11    1    3    3    0    0  0.30720911676E+02  0.20981815595E+02 -0.50835009005E+02  0.62993723026E+02  0.51100000000E-03 0. -1.
         11    1    3    3    0    0 -0.30720911676E+02 -0.20981815595E+02 -0.45546985909E+02  0.58809343862E+02  0.51100000000E-03 0.  1.
<mgrwt>
<rscale>  0 0.74474816E+02</rscale>
<asrwt>0</asrwt>
<pdfrwt beam="2">  1        1 0.16783466E-01 0.74474816E+02</pdfrwt>
<pdfrwt beam="1">  1       -1 0.19554671E-02 0.74474816E+02</pdfrwt>
<totfact> 0.18243448E+05</totfact>
</mgrwt>
</event>
<event>
 5    1  0.2718303E+000  0.9282204E+02  0.7818608E-02  0.1296158E+00
          1   -1    0    0  501    0  0.00000000000E+00  0.00000000000E+00  0.11354638041E+02  0.11354639001E+02  0.46700000000E-02 0. -1.
         -1   -1    0    0    0  501 -0.00000000000E+00 -0.00000000000E+00 -0.18970070276E+03  0.18970070282E+03  0.46700000000E-02 0.  1.
         23    2    1    2    0    0  0.00000000000E+00  0.00000000000E+00 -0.17834606472E+03  0.20105534182E+03  0.92822043033E+02 0.  0.
        -11    1    3    3    0    0  0.23096770033E+02  0.35191851155E+02 -0.46835273976E+02  0.62971978390E+02  0.51100000000E-03 0.  1.
         11    1    3    3    0    0 -0.23096770033E+02 -0.35191851155E+02 -0.13151079074E+03  0.13808336343E+03  0.51100000000E-03 0. -1.
<mgrwt>
<rscale>  0 0.92822043E+02</rscale>
<asrwt>0</asrwt>
<pdfrwt beam="1">  1        1 0.17468676E-02 0.92822043E+02</pdfrwt>
<pdfrwt beam="2">  1       -1 0.29184721E-01 0.92822043E+02</pdfrwt>
<totfact> 0.67252485E+04</totfact>
</mgrwt>
</event>
<event>
 5    1  0.2718303E+000  0.8977409E+02  0.7818608E-02  0.1303400E+00
          1   -1    0    0  501    0  0.00000000000E+00  0.00000000000E+00  0.66828134488E+01  0.66828150805E+01  0.46700000000E-02 0. -1.
         -1   -1    0    0    0  501 -0.00000000000E+00 -0.00000000000E+00 -0.30149672251E+03  0.30149672254E+03  0.46700000000E-02 0.  1.
         23    2    1    2    0    0  0.00000000000E+00  0.00000000000E+00 -0.29481390906E+03  0.30817953762E+03  0.89774085546E+02 0.  0.
        -11    1    3    3    0    0 -0.40997149522E+02 -0.18250280685E+02 -0.15085279944E+03  0.15738616875E+03  0.51100000000E-03 0.  1.
         11    1    3    3    0    0  0.40997149522E+02  0.18250280685E+02 -0.14396110961E+03  0.15079336887E+03  0.51100000000E-03 0. -1.
<mgrwt>
<rscale>  0 0.89774086E+02</rscale>
<asrwt>0</asrwt>
<pdfrwt beam="1">  1        1 0.10281255E-02 0.89774086E+02</pdfrwt>
<pdfrwt beam="2">  1       -1 0.46384101E-01 0.89774086E+02</pdfrwt>
<totfact> 0.62967124E+04</totfact>
</mgrwt>
</event>
<event>
 5    1  0.2718303E+000  0.9070736E+02  0.7818608E-02  0.1301148E+00
         -1   -1    0    0    0  501 -0.00000000000E+00  0.00000000000E+00  0.64418773149E+01  0.64418790076E+01  0.46700000000E-02 0.  1.
          1   -1    0    0  501    0  0.00000000000E+00 -0.00000000000E+00 -0.31931003022E+03  0.31931003026E+03  0.46700000000E-02 0. -1.
         23    2    1    2    0    0  0.00000000000E+00  0.00000000000E+00 -0.31286815291E+03  0.32575190927E+03  0.90707360702E+02 0.  0.
        -11    1    3    3    0    0  0.57457308441E+00 -0.43288452966E+02 -0.10788773255E+03  0.11624965862E+03  0.51100000000E-03 0.  1.
         11    1    3    3    0    0 -0.57457308441E+00  0.43288452966E+02 -0.20498042036E+03  0.20950225064E+03  0.51100000000E-03 0. -1.
<mgrwt>
<rscale>  0 0.90707361E+02</rscale>
<asrwt>0</asrwt>
<pdfrwt beam="2">  1        1 0.49124608E-01 0.90707361E+02</pdfrwt>
<pdfrwt beam="1">  1       -1 0.99105843E-03 0.90707361E+02</pdfrwt>
<totfact> 0.13143233E+05</totfact>
</mgrwt>
</event>
<event>
 5    1  0.2718303E+000  0.1005491E+03  0.7818608E-02  0.1279145E+00
          1   -1    0    0  501    0  0.00000000000E+00  0.00000000000E+00  0.21915931947E+03  0.21915931952E+03  0.46700000000E-02 0. -1.
         -1   -1    0    0    0  501 -0.00000000000E+00 -0.00000000000E+00 -0.11532849934E+02  0.11532850879E+02  0.46700000000E-02 0.  1.
         23    2    1    2    0    0  0.00000000000E+00  0.00000000000E+00  0.20762646954E+03  0.23069217040E+03  0.10054912546E+03 0.  0.
        -11    1    3    3    0    0  0.17814631368E+02 -0.44724385743E+02  0.70573261991E+02  0.85429603061E+02  0.51100000000E-03 0.  1.
         11    1    3    3    0    0 -0.17814631368E+02  0.44724385743E+02  0.13705320755E+03  0.14526256734E+03  0.51100000000E-03 0. -1.
<mgrwt>
<rscale>  0 0.10054913E+03</rscale>
<asrwt>0</asrwt>
<pdfrwt beam="1">  1        1 0.33716815E-01 0.10054913E+03</pdfrwt>
<pdfrwt beam="2">  1       -1 0.17742849E-02 0.10054913E+03</pdfrwt>
<totfact> 0.92610916E+04</totfact>
</mgrwt>
</event>
<event>
 5    1  0.2718303E+000  0.6675170E+02  0.7818608E-02  0.1371501E+00
         -1   -1    0    0    0  501 -0.00000000000E+00  0.00000000000E+00  0.32000168153E+02  0.32000168494E+02  0.46700000000E-02 0.  1.
          1   -1    0    0  501    0  0.00000000000E+00 -0.00000000000E+00 -0.34810667273E+02  0.34810667586E+02  0.46700000000E-02 0. -1.
         23    2    1    2    0    0  0.00000000000E+00  0.00000000000E+00 -0.28104991197E+01  0.66810836080E+02  0.66751695951E+02 0.  0.
        -11    1    3    3    0    0 -0.17614672478E+02 -0.12826617931E+02  0.23898533765E+02  0.32340976028E+02  0.51100000000E-03 0.  1.
         11    1    3    3    0    0  0.17614672478E+02  0.12826617931E+02 -0.26709032885E+02  0.34469860052E+02  0.51100000000E-03 0. -1.
<mgrwt>
<rscale>  0 0.66751696E+02</rscale>
<asrwt>0</asrwt>
<pdfrwt beam="2">  1        1 0.53554873E-02 0.66751696E+02</pdfrwt>
<pdfrwt beam="1">  1       -1 0.49231028E-02 0.66751696E+02</pdfrwt>
<totfact> 0.21040399E+05</totfact>
</mgrwt>
</event>
<event>
 5    1  0.2718303E+000  0.9093928E+02  0.7818608E-02  0.1300593E+00
         -1   -1    0    0    0  501 -0.00000000000E+00  0.00000000000E+00  0.44168166632E+02  0.44168166879E+02  0.46700000000E-02 0.  1.
          1   -1    0    0  501    0  0.00000000000E+00 -0.00000000000E+00 -0.46809460758E+02  0.46809460991E+02  0.46700000000E-02 0. -1.
         23    2    1    2    0    0  0.00000000000E+00  0.00000000000E+00 -0.26412941258E+01  0.90977627870E+02  0.90939278302E+02 0.  0.
        -11    1    3    3    0    0  0.95410342349E+01  0.27866443386E+02 -0.35975088623E+02  0.46494913732E+02  0.51100000000E-03 0. -1.
         11    1    3    3    0    0 -0.95410342349E+01 -0.27866443386E+02  0.33333794497E+02  0.44482714138E+02  0.51100000000E-03 0.  1.
<mgrwt>
<rscale>  0 0.90939278E+02</rscale>
<asrwt>0</asrwt>
<pdfrwt beam="2">  1        1 0.72014556E-02 0.90939278E+02</pdfrwt>
<pdfrwt beam="1">  1       -1 0.67951026E-02 0.90939278E+02</pdfrwt>
<totfact> 0.93521881E+04</totfact>
</mgrwt>
</event>
<event>
 5    1  0.2718303E+000  0.9306949E+02  0.7818608E-02  0.1295584E+00
          1   -1    0    0  501    0  0.00000000000E+00  0.00000000000E+00  0.30666060595E+03  0.30666060598E+03  0.46700000000E-02 0. -1.
         -1   -1    0    0    0  501 -0.00000000000E+00 -0.00000000000E+00 -0.70614954065E+01  0.70614969507E+01  0.46700000000E-02 0.  1.
         23    2    1    2    0    0  0.00000000000E+00  0.00000000000E+00  0.29959911054E+03  0.31372210293E+03  0.93069494638E+02 0.  0.
        -11    1    3    3    0    0 -0.39175969636E+02  0.18985696571E+01  0.65385722012E+02  0.76247319998E+02  0.51100000000E-03 0.  1.
         11    1    3    3    0    0  0.39175969636E+02 -0.18985696571E+01  0.23421338853E+03  0.23747478293E+03  0.51100000000E-03 0. -1.
<mgrwt>
<rscale>  0 0.93069495E+02</rscale>
<asrwt>0</asrwt>
<pdfrwt beam="1">  1        1 0.47178551E-01 0.93069495E+02</pdfrwt>
<pdfrwt beam="2">  1       -1 0.10863841E-02 0.93069495E+02</pdfrwt>
<totfact> 0.12179453E+05</totfact>
</mgrwt>
</event>
<event>
 5    1  0.2718303E+000  0.8908754E+02  0.7818608E-02  0.1305077E+00
         -1   -1    0    0    0  501 -0.00000000000E+00  0.00000000000E+00  0.21091986774E+02  0.21091987291E+02  0.46700000000E-02 0.  1.
          1   -1    0    0  501    0  0.00000000000E+00 -0.00000000000E+00 -0.94071139772E+02  0.94071139887E+02  0.46700000000E-02 0. -1.
         23    2    1    2    0    0  0.00000000000E+00  0.00000000000E+00 -0.72979152998E+02  0.11516312718E+03  0.89087536105E+02 0.  0.
        -11    1    3    3    0    0  0.98291858015E+01 -0.37819873145E+02 -0.64130058387E+02  0.75097403998E+02  0.51100000000E-03 0.  1.
         11    1    3    3    0    0 -0.98291858015E+01  0.37819873145E+02 -0.88490946102E+01  0.40065723180E+02  0.51100000000E-03 0. -1.
<mgrwt>
<rscale>  0 0.89087536E+02</rscale>
<asrwt>0</asrwt>
<pdfrwt beam="2">  1        1 0.14472483E-01 0.89087536E+02</pdfrwt>
<pdfrwt beam="1">  1       -1 0.32449212E-02 0.89087536E+02</pdfrwt>
<totfact> 0.11014500E+05</totfact>
</mgrwt>
</event>
<event>
 5    1  0.2718303E+000  0.9159163E+02  0.7818608E-02  0.1299042E+00
         -1   -1    0    0    0  501 -0.00000000000E+00  0.00000000000E+00  0.11865642625E+02  0.11865643544E+02  0.46700000000E-02 0.  1.
          1   -1    0    0  501    0  0.00000000000E+00 -0.00000000000E+00 -0.17675037639E+03  0.17675037645E+03  0.46700000000E-02 0. -1.
         23    2    1    2    0    0  0.00000000000E+00  0.00000000000E+00 -0.16488473377E+03  0.18861602000E+03  0.91591634829E+02 0.  0.
        -11    1    3    3    0    0  0.37485529260E+02  0.20434218375E+02 -0.48321394870E+02  0.64480069688E+02  0.51100000000E-03 0.  1.
         11    1    3    3    0    0 -0.37485529260E+02 -0.20434218375E+02 -0.11656333889E+03  0.12413595031E+03  0.51100000000E-03 0. -1.
<mgrwt>
<rscale>  0 0.91591635E+02</rscale>
<asrwt>0</asrwt>
<pdfrwt beam="2">  1        1 0.27192364E-01 0.91591635E+02</pdfrwt>
<pdfrwt beam="1">  1       -1 0.18254837E-02 0.91591635E+02</pdfrwt>
<totfact> 0.11421943E+05</totfact>
</mgrwt>
</event>
<event>
 5    1  0.2718303E+000  0.9102461E+02  0.7818608E-02  0.1300389E+00
          1   -1    0    0  501    0  0.00000000000E+00  0.00000000000E+00  0.18550704120E+03  0.18550704126E+03  0.46700000000E-02 0. -1.
         -1   -1    0    0    0  501 -0.00000000000E+00 -0.00000000000E+00 -0.11165991269E+02  0.11165992245E+02  0.46700000000E-02 0.  1.
         23    2    1    2    0    0  0.00000000000E+00  0.00000000000E+00  0.17434104994E+03  0.19667303351E+03  0.91024614344E+02 0.  0.
        -11    1    3    3    0    0 -0.34811793824E+02 -0.23700730734E+02  0.49885280365E+02  0.65284966294E+02  0.51100000000E-03 0.  1.
         11    1    3    3    0    0  0.34811793824E+02  0.23700730734E+02  0.12445576957E+03  0.13138806721E+03  0.51100000000E-03 0. -1.
<mgrwt>
<rscale>  0 0.91024614E+02</rscale>
<asrwt>0</asrwt>
<pdfrwt beam="1">  1        1 0.28539543E-01 0.91024614E+02</pdfrwt>
<pdfrwt beam="2">  1       -1 0.17178450E-02 0.91024614E+02</pdfrwt>
<totfact> 0.11722369E+05</totfact>
</mgrwt>
</event>
<event>
 5    1  0.2718303E+000  0.9030982E+02  0.7818608E-02  0.1302103E+00
          1   -1    0    0  501    0  0.00000000000E+00  0.00000000000E+00  0.34444085236E+03  0.34444085240E+03  0.46700000000E-02 0. -1.
         -1   -1    0    0    0  501 -0.00000000000E+00 -0.00000000000E+00 -0.59196386108E+01  0.59196404529E+01  0.46700000000E-02 0.  1.
         23    2    1    2    0    0  0.00000000000E+00  0.00000000000E+00  0.33852121375E+03  0.35036049285E+03  0.90309815569E+02 0.  0.
        -11    1    3    3    0    0 -0.43265562113E+02 -0.11665826566E+02  0.14767233016E+03  0.15432147443E+03  0.51100000000E-03 0.  1.
         11    1    3    3    0    0  0.43265562113E+02  0.11665826566E+02  0.19084888359E+03  0.19603901842E+03  0.51100000000E-03 0. -1.
<mgrwt>
<rscale>  0 0.90309816E+02</rscale>
<asrwt>0</asrwt>
<pdfrwt beam="1">  1        1 0.52990913E-01 0.90309816E+02</pdfrwt>
<pdfrwt beam="2">  1       -1 0.91071357E-03 0.90309816E+02</pdfrwt>
<totfact> 0.13483485E+05</totfact>
</mgrwt>
</event>
<event>
 5    1  0.2718303E+000  0.8432158E+02  0.7818608E-02  0.1317216E+00
         -1   -1    0    0    0  501 -0.00000000000E+00  0.00000000000E+00  0.78199708699E+01  0.78199722643E+01  0.46700000000E-02 0.  1.
          1   -1    0    0  501    0  0.00000000000E+00 -0.00000000000E+00 -0.22730673920E+03  0.22730673925E+03  0.46700000000E-02 0. -1.
         23    2    1    2    0    0  0.00000000000E+00  0.00000000000E+00 -0.21948676833E+03  0.23512671152E+03  0.84321580836E+02 0.  0.
        -11    1    3    3    0    0 -0.64862536138E+00  0.31799983348E+02 -0.18691213923E+03  0.18959907027E+03  0.51100000000E-03 0. -1.
         11    1    3    3    0    0  0.64862536138E+00 -0.31799983348E+02 -0.32574629103E+02  0.45527641245E+02  0.51100000000E-03 0.  1.
<mgrwt>
<rscale>  0 0.84321581E+02</rscale>
<asrwt>0</asrwt>
<pdfrwt beam="2">  1        1 0.34970263E-01 0.84321581E+02</pdfrwt>
<pdfrwt beam="1">  1       -1 0.12030727E-02 0.84321581E+02</pdfrwt>
<totfact> 0.14948533E+05</totfact>
</mgrwt>
</event>
<event>
 5    1  0.2718303E+000  0.9877381E+02  0.7818608E-02  0.1282896E+00
          1   -1    0    0  501    0  0.00000000000E+00  0.00000000000E+00  0.13782559342E+02  0.13782560133E+02  0.46700000000E-02 0. -1.
         -1   -1    0    0    0  501 -0.00000000000E+00 -0.00000000000E+00 -0.17696757384E+03  0.17696757390E+03  0.46700000000E-02 0.  1.
         23    2    1    2    0    0  0.00000000000E+00  0.00000000000E+00 -0.16318501450E+03  0.19075013403E+03  0.98773805623E+02 0.  0.
        -11    1    3    3    0    0  0.41603435160E+02  0.10697221226E+02 -0.34533860396E+02  0.55116820238E+02  0.51100000000E-03 0. -1.
         11    1    3    3    0    0 -0.41603435160E+02 -0.10697221226E+02 -0.12865115410E+03  0.13563331380E+03  0.51100000000E-03 0.  1.
<mgrwt>
<rscale>  0 0.98773806E+02</rscale>
<asrwt>0</asrwt>
<pdfrwt beam="1">  1        1 0.21203939E-02 0.98773806E+02</pdfrwt>
<pdfrwt beam="2">  1       -1 0.27225779E-01 0.98773806E+02</pdfrwt>
<totfact> 0.58263549E+04</totfact>
</mgrwt>
</event>
<event>
 5    1  0.2718303E+000  0.9220837E+02  0.7818608E-02  0.1297590E+00
          1   -1    0    0  501    0  0.00000000000E+00  0.00000000000E+00  0.33705308737E+02  0.33705309061E+02  0.46700000000E-02 0. -1.
         -1   -1    0    0    0  501 -0.00000000000E+00 -0.00000000000E+00 -0.63064128704E+02  0.63064128877E+02  0.46700000000E-02 0.  1.
         23    2    1    2    0    0  0.00000000000E+00  0.00000000000E+00 -0.29358819966E+02  0.96769437938E+02  0.92208371686E+02 0.  0.
        -11    1    3    3    0    0  0.77334154021E+00 -0.25368557533E+02  0.25713863180E+02  0.36129828789E+02  0.51100000000E-03 0. -1.
         11    1    3    3    0    0 -0.77334154021E+00  0.25368557533E+02 -0.55072683146E+02  0.60639609148E+02  0.51100000000E-03 0.  1.
<mgrwt>
<rscale>  0 0.92208372E+02</rscale>
<asrwt>0</asrwt>
<pdfrwt beam="1">  1        1 0.51854321E-02 0.92208372E+02</pdfrwt>
<pdfrwt beam="2">  1       -1 0.97021737E-02 0.92208372E+02</pdfrwt>
<totfact> 0.85510085E+04</totfact>
</mgrwt>
</event>
<event>
 5    1  0.2718303E+000  0.9247178E+02  0.7818608E-02  0.1296974E+00
         -1   -1    0    0    0  501 -0.00000000000E+00  0.00000000000E+00  0.72534987541E+01  0.72535002574E+01  0.46700000000E-02 0.  1.
          1   -1    0    0  501    0  0.00000000000E+00 -0.00000000000E+00 -0.29472087584E+03  0.29472087588E+03  0.46700000000E-02 0. -1.
         23    2    1    2    0    0  0.00000000000E+00  0.00000000000E+00 -0.28746737709E+03  0.30197437613E+03  0.92471784632E+02 0.  0.
        -11    1    3    3    0    0  0.15414626262E+02  0.43408671379E+02 -0.15672820348E+03  0.16335744005E+03  0.51100000000E-03 0.  1.
         11    1    3    3    0    0 -0.15414626262E+02 -0.43408671379E+02 -0.13073917361E+03  0.13861693609E+03  0.51100000000E-03 0. -1.
<mgrwt>
<rscale>  0 0.92471785E+02</rscale>
<asrwt>0</asrwt>
<pdfrwt beam="2">  1        1 0.45341664E-01 0.92471785E+02</pdfrwt>
<pdfrwt beam="1">  1       -1 0.11159232E-02 0.92471785E+02</pdfrwt>
<totfact> 0.12297146E+05</totfact>
</mgrwt>
</event>
<event>
 5    1  0.2718303E+000  0.9219427E+02  0.7818608E-02  0.1297623E+00
          1   -1    0    0  501    0  0.00000000000E+00  0.00000000000E+00  0.17547198113E+02  0.17547198734E+02  0.46700000000E-02 0. -1.
         -1   -1    0    0    0  501 -0.00000000000E+00 -0.00000000000E+00 -0.12109887597E+03  0.12109887606E+03  0.46700000000E-02 0.  1.
         23    2    1    2    0    0  0.00000000000E+00  0.00000000000E+00 -0.10355167786E+03  0.13864607479E+03  0.92194273514E+02 0.  0.
        -11    1    3    3    0    0  0.40196294095E+01  0.39730098480E+02 -0.86407049173E+02  0.95188320149E+02  0.51100000000E-03 0.  1.
         11    1    3    3    0    0 -0.40196294095E+01 -0.39730098480E+02 -0.17144628684E+02  0.43457754645E+02  0.51100000000E-03 0. -1.
<mgrwt>
<rscale>  0 0.92194274E+02</rscale>
<asrwt>0</asrwt>
<pdfrwt beam="1">  1        1 0.26995691E-02 0.92194274E+02</pdfrwt>
<pdfrwt beam="2">  1       -1 0.18630596E-01 0.92194274E+02</pdfrwt>
<totfact> 0.76164342E+04</totfact>
</mgrwt>
</event>
<event>
 5    1  0.2718303E+000  0.9097078E+02  0.7818608E-02  0.1300518E+00
         -1   -1    0    0    0  501 -0.00000000000E+00  0.00000000000E+00  0.87978668566E+02  0.87978668690E+02  0.46700000000E-02 0.  1.
          1   -1    0    0  501    0  0.00000000000E+00 -0.00000000000E+00 -0.23516164596E+02  0.23516165060E+02  0.46700000000E-02 0. -1.
         23    2    1    2    0    0  0.00000000000E+00  0.00000000000E+00  0.64462503970E+02  0.11149483375E+03  0.90970783964E+02 0.  0.
        -11    1    3    3    0    0  0.11570138362E+02 -0.17928252876E+02 -0.17001584531E+02  0.27282672702E+02  0.51100000000E-03 0. -1.
         11    1    3    3    0    0 -0.11570138362E+02  0.17928252876E+02  0.81464088501E+02  0.84212161049E+02  0.51100000000E-03 0.  1.
<mgrwt>
<rscale>  0 0.90970784E+02</rscale>
<asrwt>0</asrwt>
<pdfrwt beam="2">  1        1 0.36178715E-02 0.90970784E+02</pdfrwt>
<pdfrwt beam="1">  1       -1 0.13535180E-01 0.90970784E+02</pdfrwt>
<totfact> 0.83760563E+04</totfact>
</mgrwt>
</event>
<event>
 5    1  0.2718303E+000  0.9122687E+02  0.7818608E-02  0.1299908E+00
         -1   -1    0    0    0  501 -0.00000000000E+00  0.00000000000E+00  0.78015150494E+02  0.78015150633E+02  0.46700000000E-02 0.  1.
          1   -1    0    0  501    0  0.00000000000E+00 -0.00000000000E+00 -0.26668989446E+02  0.26668989855E+02  0.46700000000E-02 0. -1.
         23    2    1    2    0    0  0.00000000000E+00  0.00000000000E+00  0.51346161048E+02  0.10468414049E+03  0.91226865645E+02 0.  0.
        -11    1    3    3    0    0  0.32120544223E+02 -0.20888886942E+02  0.54072851261E+02  0.66271775309E+02  0.51100000000E-03 0.  1.
         11    1    3    3    0    0 -0.32120544223E+02  0.20888886942E+02 -0.27266902131E+01  0.38412365179E+02  0.51100000000E-03 0. -1.
<mgrwt>
<rscale>  0 0.91226866E+02</rscale>
<asrwt>0</asrwt>
<pdfrwt beam="2">  1        1 0.41029215E-02 0.91226866E+02</pdfrwt>
<pdfrwt beam="1">  1       -1 0.12002331E-01 0.91226866E+02</pdfrwt>
<totfact> 0.84890042E+04</totfact>
</mgrwt>
</event>
<event>
 5    1  0.2718303E+000  0.9088877E+02  0.7818608E-02  0.1300714E+00
          1   -1    0    0  501    0  0.00000000000E+00  0.00000000000E+00  0.11859464703E+03  0.11859464713E+03  0.46700000000E-02 0. -1.
         -1   -1    0    0    0  501 -0.00000000000E+00 -0.00000000000E+00 -0.17413874367E+02  0.17413874994E+02  0.46700000000E-02 0.  1.
         23    2    1    2    0    0  0.00000000000E+00  0.00000000000E+00  0.10118077267E+03  0.13600852212E+03  0.90888774509E+02 0.  0.
        -11    1    3    3    0    0  0.76634372360E+01  0.44573117000E+02  0.43948317799E+02  0.63063029320E+02  0.51100000000E-03 0.  1.
         11    1    3    3    0    0 -0.76634372360E+01 -0.44573117000E+02  0.57232454868E+02  0.72945492800E+02  0.51100000000E-03 0. -1.
<mgrwt>
<rscale>  0 0.90888775E+02</rscale>
<asrwt>0</asrwt>
<pdfrwt beam="1">  1        1 0.18245331E-01 0.90888775E+02</pdfrwt>
<pdfrwt beam="2">  1       -1 0.26790576E-02 0.90888775E+02</pdfrwt>
<totfact> 0.10844563E+05</totfact>
</mgrwt>
</event>
<event>
 5    1  0.2718303E+000  0.9101577E+02  0.7818608E-02  0.1300410E+00
         -1   -1    0    0    0  501 -0.00000000000E+00  0.00000000000E+00  0.69082215343E+01  0.69082231128E+01  0.46700000000E-02 0.  1.
          1   -1    0    0  501    0  0.00000000000E+00 -0.00000000000E+00 -0.29978300429E+03  0.29978300433E+03  0.46700000000E-02 0. -1.
         23    2    1    2    0    0  0.00000000000E+00  0.00000000000E+00 -0.29287478276E+03  0.30669122744E+03  0.91015771238E+02 0.  0.
        -11    1    3    3    0    0  0.41140238297E+02  0.16726518320E+02 -0.11296538589E+03  0.12138152262E+03  0.51100000000E-03 0. -1.
         11    1    3    3    0    0 -0.41140238297E+02 -0.16726518320E+02 -0.17990939686E+03  0.18530970482E+03  0.51100000000E-03 0.  1.
<mgrwt>
<rscale>  0 0.91015771E+02</rscale>
<asrwt>0</asrwt>
<pdfrwt beam="2">  1        1 0.46120452E-01 0.91015771E+02</pdfrwt>
<pdfrwt beam="1">  1       -1 0.10628037E-02 0.91015771E+02</pdfrwt>
<totfact> 0.12870944E+05</totfact>
</mgrwt>
</event>
<event>
 5    1  0.2718303E+000  0.8926330E+02  0.7818608E-02  0.1304646E+00
         -1   -1    0    0    0  501 -0.00000000000E+00  0.00000000000E+00  0.54757119895E+02  0.54757120094E+02  0.46700000000E-02 0.  1.
          1   -1    0    0  501    0  0.00000000000E+00 -0.00000000000E+00 -0.36378543218E+02  0.36378543518E+02  0.46700000000E-02 0. -1.
         23    2    1    2    0    0  0.00000000000E+00  0.00000000000E+00  0.18378576677E+02  0.91135663612E+02  0.89263302097E+02 0.  0.
        -11    1    3    3    0    0  0.43736955604E+01  0.28494442107E+02 -0.25597705545E+02  0.38552626023E+02  0.51100000000E-03 0. -1.
         11    1    3    3    0    0 -0.43736955604E+01 -0.28494442107E+02  0.43976282221E+02  0.52583037589E+02  0.51100000000E-03 0.  1.
<mgrwt>
<rscale>  0 0.89263302E+02</rscale>
<asrwt>0</asrwt>
<pdfrwt beam="2">  1        1 0.55966991E-02 0.89263302E+02</pdfrwt>
<pdfrwt beam="1">  1       -1 0.84241722E-02 0.89263302E+02</pdfrwt>
<totfact> 0.94886918E+04</totfact>
</mgrwt>
</event>
<event>
 5    1  0.2718303E+000  0.9025485E+02  0.7818608E-02  0.1302236E+00
          1   -1    0    0  501    0  0.00000000000E+00  0.00000000000E+00  0.40814486403E+02  0.40814486670E+02  0.46700000000E-02 0. -1.
         -1   -1    0    0    0  501 -0.00000000000E+00 -0.00000000000E+00 -0.49896121074E+02  0.49896121292E+02  0.46700000000E-02 0.  1.
         23    2    1    2    0    0  0.00000000000E+00  0.00000000000E+00 -0.90816346710E+01  0.90710607963E+02  0.90254851995E+02 0.  0.
        -11    1    3    3    0    0 -0.33379075326E+02 -0.12019833580E+01 -0.35040011597E+02  0.48408778611E+02  0.51100000000E-03 0.  1.
         11    1    3    3    0    0  0.33379075326E+02  0.12019833580E+01  0.25958376926E+02  0.42301829352E+02  0.51100000000E-03 0. -1.
<mgrwt>
<rscale>  0 0.90254852E+02</rscale>
<asrwt>0</asrwt>
<pdfrwt beam="1">  1        1 0.62791518E-02 0.90254852E+02</pdfrwt>
<pdfrwt beam="2">  1       -1 0.76763263E-02 0.90254852E+02</pdfrwt>
<totfact> 0.93583373E+04</totfact>
</mgrwt>
</event>
<event>
 5    1  0.2718303E+000  0.8950233E+02  0.7818608E-02  0.1304061E+00
         -1   -1    0    0    0  501 -0.00000000000E+00  0.00000000000E+00  0.27002073175E+02  0.27002073579E+02  0.46700000000E-02 0.  1.
          1   -1    0    0  501    0  0.00000000000E+00 -0.00000000000E+00 -0.74167147750E+02  0.74167147897E+02  0.46700000000E-02 0. -1.
         23    2    1    2    0    0  0.00000000000E+00  0.00000000000E+00 -0.47165074575E+02  0.10116922148E+03  0.89502330218E+02 0.  0.
        -11    1    3    3    0    0  0.14329834448E+01  0.34190977131E+02  0.90138000956E+01  0.35388203559E+02  0.51100000000E-03 0.  1.
         11    1    3    3    0    0 -0.14329834448E+01 -0.34190977131E+02 -0.56178874671E+02  0.65781017917E+02  0.51100000000E-03 0. -1.
<mgrwt>
<rscale>  0 0.89502330E+02</rscale>
<asrwt>0</asrwt>
<pdfrwt beam="2">  1        1 0.11410330E-01 0.89502330E+02</pdfrwt>
<pdfrwt beam="1">  1       -1 0.41541652E-02 0.89502330E+02</pdfrwt>
<totfact> 0.10475480E+05</totfact>
</mgrwt>
</event>
<event>
 5    1  0.2718303E+000  0.8945569E+02  0.7818608E-02  0.1304175E+00
         -1   -1    0    0    0  501 -0.00000000000E+00  0.00000000000E+00  0.93042496375E+02  0.93042496492E+02  0.46700000000E-02 0.  1.
          1   -1    0    0  501    0  0.00000000000E+00 -0.00000000000E+00 -0.21501789920E+02  0.21501790427E+02  0.46700000000E-02 0. -1.
         23    2    1    2    0    0  0.00000000000E+00  0.00000000000E+00  0.71540706455E+02  0.11454428692E+03  0.89455692865E+02 0.  0.
        -11    1    3    3    0    0 -0.39496354239E+02 -0.18454890957E+02  0.48577192975E+02  0.65270886895E+02  0.51100000000E-03 0.  1.
         11    1    3    3    0    0  0.39496354239E+02  0.18454890957E+02  0.22963513480E+02  0.49273400025E+02  0.51100000000E-03 0. -1.
<mgrwt>
<rscale>  0 0.89455693E+02</rscale>
<asrwt>0</asrwt>
<pdfrwt beam="2">  1        1 0.33079676E-02 0.89455693E+02</pdfrwt>
<pdfrwt beam="1">  1       -1 0.14314231E-01 0.89455693E+02</pdfrwt>
<totfact> 0.86585789E+04</totfact>
</mgrwt>
</event>
<event>
 5    1  0.2718303E+000  0.9173289E+02  0.7818608E-02  0.1298709E+00
         -1   -1    0    0    0  501 -0.00000000000E+00  0.00000000000E+00  0.15597091076E+02  0.15597091776E+02  0.46700000000E-02 0.  1.
          1   -1    0    0  501    0  0.00000000000E+00 -0.00000000000E+00 -0.13487969420E+03  0.13487969428E+03  0.46700000000E-02 0. -1.
         23    2    1    2    0    0  0.00000000000E+00  0.00000000000E+00 -0.11928260312E+03  0.15047678606E+03  0.91732893413E+02 0.  0.
        -11    1    3    3    0    0  0.16348165206E+02  0.13768792368E+02  0.69283909066E+01  0.22468750515E+02  0.51100000000E-03 0.  1.
         11    1    3    3    0    0 -0.16348165206E+02 -0.13768792368E+02 -0.12621099403E+03  0.12800803554E+03  0.51100000000E-03 0. -1.
<mgrwt>
<rscale>  0 0.91732893E+02</rscale>
<asrwt>0</asrwt>
<pdfrwt beam="2">  1        1 0.20750721E-01 0.91732893E+02</pdfrwt>
<pdfrwt beam="1">  1       -1 0.23995526E-02 0.91732893E+02</pdfrwt>
<totfact> 0.10819290E+05</totfact>
</mgrwt>
</event>
<event>
 5    1  0.2718303E+000  0.8820260E+02  0.7818608E-02  0.1307264E+00
          1   -1    0    0  501    0  0.00000000000E+00  0.00000000000E+00  0.31725621752E+03  0.31725621756E+03  0.46700000000E-02 0. -1.
         -1   -1    0    0    0  501 -0.00000000000E+00 -0.00000000000E+00 -0.61304528061E+01  0.61304545848E+01  0.46700000000E-02 0.  1.
         23    2    1    2    0    0  0.00000000000E+00  0.00000000000E+00  0.31112576471E+03  0.32338667214E+03  0.88202597742E+02 0.  0.
        -11    1    3    3    0    0  0.35220824882E+02  0.26360618268E+02  0.14424094630E+03  0.15080066078E+03  0.51100000000E-03 0.  1.
         11    1    3    3    0    0 -0.35220824882E+02 -0.26360618268E+02  0.16688481842E+03  0.17258601136E+03  0.51100000000E-03 0. -1.
<mgrwt>
<rscale>  0 0.88202598E+02</rscale>
<asrwt>0</asrwt>
<pdfrwt beam="1">  1        1 0.48808644E-01 0.88202598E+02</pdfrwt>
<pdfrwt beam="2">  1       -1 0.94314682E-03 0.88202598E+02</pdfrwt>
<totfact> 0.14140895E+05</totfact>
</mgrwt>
</event>
<event>
 5    1  0.2718303E+000  0.9034690E+02  0.7818608E-02  0.1302014E+00
          1   -1    0    0  501    0  0.00000000000E+00  0.00000000000E+00  0.48839101502E+02  0.48839101726E+02  0.46700000000E-02 0. -1.
         -1   -1    0    0    0  501 -0.00000000000E+00 -0.00000000000E+00 -0.41782923025E+02  0.41782923286E+02  0.46700000000E-02 0.  1.
         23    2    1    2    0    0  0.00000000000E+00  0.00000000000E+00  0.70561784779E+01  0.90622025011E+02  0.90346896806E+02 0.  0.
        -11    1    3    3    0    0 -0.24403921598E+02  0.21189502187E+02  0.35185157662E+02  0.47775953284E+02  0.51100000000E-03 0. -1.
         11    1    3    3    0    0  0.24403921598E+02 -0.21189502187E+02 -0.28128979184E+02  0.42846071727E+02  0.51100000000E-03 0.  1.
<mgrwt>
<rscale>  0 0.90346897E+02</rscale>
<asrwt>0</asrwt>
<pdfrwt beam="1">  1        1 0.75137080E-02 0.90346897E+02</pdfrwt>
<pdfrwt beam="2">  1       -1 0.64281420E-02 0.90346897E+02</pdfrwt>
<totfact> 0.95851972E+04</totfact>
</mgrwt>
</event>
<event>
 5    1  0.2718303E+000  0.9313908E+02  0.7818608E-02  0.1295423E+00
          1   -1    0    0  501    0  0.00000000000E+00  0.00000000000E+00  0.16500215758E+03  0.16500215765E+03  0.46700000000E-02 0. -1.
         -1   -1    0    0    0  501 -0.00000000000E+00 -0.00000000000E+00 -0.13143598091E+02  0.13143598920E+02  0.46700000000E-02 0.  1.
         23    2    1    2    0    0  0.00000000000E+00  0.00000000000E+00  0.15185855949E+03  0.17814575657E+03  0.93139081445E+02 0.  0.
        -11    1    3    3    0    0 -0.17877653840E+02  0.38253125491E+02  0.38360224412E+02  0.57047514703E+02  0.51100000000E-03 0.  1.
         11    1    3    3    0    0  0.17877653840E+02 -0.38253125491E+02  0.11349833508E+03  0.12109824186E+03  0.51100000000E-03 0. -1.
<mgrwt>
<rscale>  0 0.93139081E+02</rscale>
<asrwt>0</asrwt>
<pdfrwt beam="1">  1        1 0.25384949E-01 0.93139081E+02</pdfrwt>
<pdfrwt beam="2">  1       -1 0.20220920E-02 0.93139081E+02</pdfrwt>
<totfact> 0.10776360E+05</totfact>
</mgrwt>
</event>
<event>
 5    1  0.2718303E+000  0.9123839E+02  0.7818608E-02  0.1299880E+00
         -1   -1    0    0    0  501 -0.00000000000E+00  0.00000000000E+00  0.20532502962E+03  0.20532502967E+03  0.46700000000E-02 0.  1.
          1   -1    0    0  501    0  0.00000000000E+00 -0.00000000000E+00 -0.10135690619E+02  0.10135691695E+02  0.46700000000E-02 0. -1.
         23    2    1    2    0    0  0.00000000000E+00  0.00000000000E+00  0.19518933900E+03  0.21546072137E+03  0.91238393196E+02 0.  0.
        -11    1    3    3    0    0  0.38279273151E+02 -0.24806264085E+02  0.95997184212E+02  0.10628317302E+03  0.51100000000E-03 0.  1.
         11    1    3    3    0    0 -0.38279273151E+02  0.24806264085E+02  0.99192154787E+02  0.10917754834E+03  0.51100000000E-03 0. -1.
<mgrwt>
<rscale>  0 0.91238393E+02</rscale>
<asrwt>0</asrwt>
<pdfrwt beam="2">  1        1 0.15593370E-02 0.91238393E+02</pdfrwt>
<pdfrwt beam="1">  1       -1 0.31588468E-01 0.91238393E+02</pdfrwt>
<totfact> 0.68778497E+04</totfact>
</mgrwt>
</event>
<event>
 5    1  0.2718303E+000  0.8931985E+02  0.7818608E-02  0.1304507E+00
          1   -1    0    0  501    0  0.00000000000E+00  0.00000000000E+00  0.17674854409E+02  0.17674855026E+02  0.46700000000E-02 0. -1.
         -1   -1    0    0    0  501 -0.00000000000E+00 -0.00000000000E+00 -0.11284442174E+03  0.11284442184E+03  0.46700000000E-02 0.  1.
         23    2    1    2    0    0  0.00000000000E+00  0.00000000000E+00 -0.95169567330E+02  0.13051927686E+03  0.89319847103E+02 0.  0.
        -11    1    3    3    0    0  0.23917074380E+02  0.12992247612E+01 -0.10266457636E+03  0.10542167553E+03  0.51100000000E-03 0.  1.
         11    1    3    3    0    0 -0.23917074380E+02 -0.12992247612E+01  0.74950090320E+01  0.25097601330E+02  0.51100000000E-03 0. -1.
<mgrwt>
<rscale>  0 0.89319847E+02</rscale>
<asrwt>0</asrwt>
<pdfrwt beam="1">  1        1 0.27192085E-02 0.89319847E+02</pdfrwt>
<pdfrwt beam="2">  1       -1 0.17360680E-01 0.89319847E+02</pdfrwt>
<totfact> 0.83840426E+04</totfact>
</mgrwt>
</event>
<event>
 5    1  0.2718303E+000  0.9102642E+02  0.7818608E-02  0.1300385E+00
          1   -1    0    0  501    0  0.00000000000E+00  0.00000000000E+00  0.45000734336E+02  0.45000734579E+02  0.46700000000E-02 0. -1.
         -1   -1    0    0    0  501 -0.00000000000E+00 -0.00000000000E+00 -0.46031523972E+02  0.46031524209E+02  0.46700000000E-02 0.  1.
         23    2    1    2    0    0  0.00000000000E+00  0.00000000000E+00 -0.10307896358E+01  0.91032258787E+02  0.91026422607E+02 0.  0.
        -11    1    3    3    0    0  0.27920029088E+02 -0.35492883064E+02  0.51576781552E+01  0.45451891233E+02  0.51100000000E-03 0. -1.
         11    1    3    3    0    0 -0.27920029088E+02  0.35492883064E+02 -0.61884677910E+01  0.45580367554E+02  0.51100000000E-03 0.  1.
<mgrwt>
<rscale>  0 0.91026423E+02</rscale>
<asrwt>0</asrwt>
<pdfrwt beam="1">  1        1 0.69231899E-02 0.91026423E+02</pdfrwt>
<pdfrwt beam="2">  1       -1 0.70817729E-02 0.91026423E+02</pdfrwt>
<totfact> 0.92721345E+04</totfact>
</mgrwt>
</event>
<event>
 5    1  0.2718303E+000  0.7611453E+02  0.7818608E-02  0.1340454E+00
         -1   -1    0    0    0  501 -0.00000000000E+00  0.00000000000E+00  0.76454592471E+01  0.76454606734E+01  0.46700000000E-02 0. -1.
          1   -1    0    0  501    0  0.00000000000E+00 -0.00000000000E+00 -0.18943990742E+03  0.18943990748E+03  0.46700000000E-02 0.  1.
         23    2    1    2    0    0  0.00000000000E+00  0.00000000000E+00 -0.18179444817E+03  0.19708536815E+03  0.76114525241E+02 0.  0.
        -11    1    3    3    0    0  0.12835701705E+02 -0.34175271554E+02 -0.11874311945E+03  0.12422814834E+03  0.51100000000E-03 0.  1.
         11    1    3    3    0    0 -0.12835701705E+02  0.34175271554E+02 -0.63051328724E+02  0.72857219808E+02  0.51100000000E-03 0. -1.
<mgrwt>
<rscale>  0 0.76114525E+02</rscale>
<asrwt>0</asrwt>
<pdfrwt beam="2">  1        1 0.29144598E-01 0.76114525E+02</pdfrwt>
<pdfrwt beam="1">  1       -1 0.11762248E-02 0.76114525E+02</pdfrwt>
<totfact> 0.18930801E+05</totfact>
</mgrwt>
</event>
<event>
 5    1  0.2718303E+000  0.9123478E+02  0.7818608E-02  0.1299889E+00
         -1   -1    0    0    0  501 -0.00000000000E+00  0.00000000000E+00  0.35936722722E+02  0.35936723026E+02  0.46700000000E-02 0.  1.
          1   -1    0    0  501    0  0.00000000000E+00 -0.00000000000E+00 -0.57905845102E+02  0.57905845291E+02  0.46700000000E-02 0. -1.
         23    2    1    2    0    0  0.00000000000E+00  0.00000000000E+00 -0.21969122380E+02  0.93842568316E+02  0.91234781142E+02 0.  0.
        -11    1    3    3    0    0 -0.20205089785E+02  0.15922329587E+02  0.27764234160E+02  0.37849952859E+02  0.51100000000E-03 0.  1.
         11    1    3    3    0    0  0.20205089785E+02 -0.15922329587E+02 -0.49733356540E+02  0.55992615457E+02  0.51100000000E-03 0. -1.
<mgrwt>
<rscale>  0 0.91234781E+02</rscale>
<asrwt>0</asrwt>
<pdfrwt beam="2">  1        1 0.89085916E-02 0.91234781E+02</pdfrwt>
<pdfrwt beam="1">  1       -1 0.55287266E-02 0.91234781E+02</pdfrwt>
<totfact> 0.95686140E+04</totfact>
</mgrwt>
</event>
<event>
 5    1  0.2718303E+000  0.9480955E+02  0.7818608E-02  0.1291606E+00
          1   -1    0    0  501    0  0.00000000000E+00  0.00000000000E+00  0.61667057904E+02  0.61667058081E+02  0.46700000000E-02 0. -1.
         -1   -1    0    0    0  501 -0.00000000000E+00 -0.00000000000E+00 -0.36441052703E+02  0.36441053002E+02  0.46700000000E-02 0.  1.
         23    2    1    2    0    0  0.00000000000E+00  0.00000000000E+00  0.25226005202E+02  0.98108111083E+02  0.94809546576E+02 0.  0.
        -11    1    3    3    0    0 -0.37437453196E+01 -0.44479461688E+02 -0.39039806758E+01  0.44807133432E+02  0.51100000000E-03 0.  1.
         11    1    3    3    0    0  0.37437453196E+01  0.44479461688E+02  0.29129985877E+02  0.53300977651E+02  0.51100000000E-03 0. -1.
<mgrwt>
<rscale>  0 0.94809547E+02</rscale>
<asrwt>0</asrwt>
<pdfrwt beam="1">  1        1 0.94872396E-02 0.94809547E+02</pdfrwt>
<pdfrwt beam="2">  1       -1 0.56063159E-02 0.94809547E+02</pdfrwt>
<totfact> 0.86807667E+04</totfact>
</mgrwt>
</event>
<event>
 5    1  0.2718303E+000  0.8853704E+02  0.7818608E-02  0.1306434E+00
          1   -1    0    0  501    0  0.00000000000E+00  0.00000000000E+00  0.44096622489E+02  0.44096622736E+02  0.46700000000E-02 0. -1.
         -1   -1    0    0    0  501 -0.00000000000E+00 -0.00000000000E+00 -0.44441090307E+02  0.44441090552E+02  0.46700000000E-02 0.  1.
         23    2    1    2    0    0  0.00000000000E+00  0.00000000000E+00 -0.34446781753E+00  0.88537713288E+02  0.88537043187E+02 0.  0.
        -11    1    3    3    0    0  0.43135726650E+02  0.50573310491E+01 -0.87416915607E+01  0.44302197266E+02  0.51100000000E-03 0. -1.
         11    1    3    3    0    0 -0.43135726650E+02 -0.50573310491E+01  0.83972237432E+01  0.44235516023E+02  0.51100000000E-03 0.  1.
<mgrwt>
<rscale>  0 0.88537043E+02</rscale>
<asrwt>0</asrwt>
<pdfrwt beam="1">  1        1 0.67840958E-02 0.88537043E+02</pdfrwt>
<pdfrwt beam="2">  1       -1 0.68370909E-02 0.88537043E+02</pdfrwt>
<totfact> 0.99905765E+04</totfact>
</mgrwt>
</event>
<event>
 5    1  0.2718303E+000  0.8979258E+02  0.7818608E-02  0.1303355E+00
          1   -1    0    0  501    0  0.00000000000E+00  0.00000000000E+00  0.21835574679E+02  0.21835575178E+02  0.46700000000E-02 0. -1.
         -1   -1    0    0    0  501 -0.00000000000E+00 -0.00000000000E+00 -0.92311606523E+02  0.92311606641E+02  0.46700000000E-02 0.  1.
         23    2    1    2    0    0  0.00000000000E+00  0.00000000000E+00 -0.70476031844E+02  0.11414718182E+03  0.89792583506E+02 0.  0.
        -11    1    3    3    0    0  0.14818767628E+02 -0.14232712025E+02 -0.85984068576E+02  0.88404898137E+02  0.51100000000E-03 0.  1.
         11    1    3    3    0    0 -0.14818767628E+02  0.14232712025E+02  0.15508036732E+02  0.25742283681E+02  0.51100000000E-03 0. -1.
<mgrwt>
<rscale>  0 0.89792584E+02</rscale>
<asrwt>0</asrwt>
<pdfrwt beam="1">  1        1 0.33593193E-02 0.89792584E+02</pdfrwt>
<pdfrwt beam="2">  1       -1 0.14201785E-01 0.89792584E+02</pdfrwt>
<totfact> 0.85875305E+04</totfact>
</mgrwt>
</event>
<event>
 5    1  0.2718303E+000  0.9205171E+02  0.7818608E-02  0.1297958E+00
          1   -1    0    0  501    0  0.00000000000E+00  0.00000000000E+00  0.53470746420E+03  0.53470746422E+03  0.46700000000E-02 0. -1.
         -1   -1    0    0    0  501 -0.00000000000E+00 -0.00000000000E+00 -0.39617521822E+01  0.39617549346E+01  0.46700000000E-02 0.  1.
         23    2    1    2    0    0  0.00000000000E+00  0.00000000000E+00  0.53074571202E+03  0.53866921915E+03  0.92051707424E+02 0.  0.
        -11    1    3    3    0    0 -0.13534675359E+01 -0.46004926427E+02  0.26716774839E+03  0.27110310015E+03  0.51100000000E-03 0.  1.
         11    1    3    3    0    0  0.13534675359E+01  0.46004926427E+02  0.26357796362E+03  0.26756611900E+03  0.51100000000E-03 0. -1.
<mgrwt>
<rscale>  0 0.92051707E+02</rscale>
<asrwt>0</asrwt>
<pdfrwt beam="1">  1        1 0.82262634E-01 0.92051707E+02</pdfrwt>
<pdfrwt beam="2">  1       -1 0.60950094E-03 0.92051707E+02</pdfrwt>
<totfact> 0.13677878E+05</totfact>
</mgrwt>
</event>
<event>
 5    1  0.2718303E+000  0.8946252E+02  0.7818608E-02  0.1304159E+00
         -1   -1    0    0    0  501 -0.00000000000E+00  0.00000000000E+00  0.10398353857E+02  0.10398354905E+02  0.46700000000E-02 0.  1.
          1   -1    0    0  501    0  0.00000000000E+00 -0.00000000000E+00 -0.19242329729E+03  0.19242329735E+03  0.46700000000E-02 0. -1.
         23    2    1    2    0    0  0.00000000000E+00  0.00000000000E+00 -0.18202494344E+03  0.20282165225E+03  0.89462520591E+02 0.  0.
        -11    1    3    3    0    0 -0.24609908063E+02  0.24778097823E+02 -0.15438158569E+03  0.15828226593E+03  0.51100000000E-03 0. -1.
         11    1    3    3    0    0  0.24609908063E+02 -0.24778097823E+02 -0.27643357744E+02  0.44539386325E+02  0.51100000000E-03 0.  1.
<mgrwt>
<rscale>  0 0.89462521E+02</rscale>
<asrwt>0</asrwt>
<pdfrwt beam="2">  1        1 0.29603582E-01 0.89462521E+02</pdfrwt>
<pdfrwt beam="1">  1       -1 0.15997470E-02 0.89462521E+02</pdfrwt>
<totfact> 0.12365549E+05</totfact>
</mgrwt>
</event>
<event>
 5    1  0.2718303E+000  0.9152496E+02  0.7818608E-02  0.1299200E+00
         -1   -1    0    0    0  501 -0.00000000000E+00  0.00000000000E+00  0.22024841852E+02  0.22024842347E+02  0.46700000000E-02 0.  1.
          1   -1    0    0  501    0  0.00000000000E+00 -0.00000000000E+00 -0.95083746402E+02  0.95083746517E+02  0.46700000000E-02 0. -1.
         23    2    1    2    0    0  0.00000000000E+00  0.00000000000E+00 -0.73058904550E+02  0.11710858886E+03  0.91524958627E+02 0.  0.
        -11    1    3    3    0    0  0.25806530395E+02 -0.35731528270E+02 -0.52277784935E+02  0.68378987427E+02  0.51100000000E-03 0.  1.
         11    1    3    3    0    0 -0.25806530395E+02  0.35731528270E+02 -0.20781119615E+02  0.48729601437E+02  0.51100000000E-03 0. -1.
<mgrwt>
<rscale>  0 0.91524959E+02</rscale>
<asrwt>0</asrwt>
<pdfrwt beam="2">  1        1 0.14628269E-01 0.91524959E+02</pdfrwt>
<pdfrwt beam="1">  1       -1 0.33884373E-02 0.91524959E+02</pdfrwt>
<totfact> 0.10251180E+05</totfact>
</mgrwt>
</event>
<event>
 5    1  0.2718303E+000  0.8738835E+02  0.7818608E-02  0.1309302E+00
          1   -1    0    0  501    0  0.00000000000E+00  0.00000000000E+00  0.36088541727E+02  0.36088542029E+02  0.46700000000E-02 0. -1.
         -1   -1    0    0    0  501 -0.00000000000E+00 -0.00000000000E+00 -0.52902693132E+02  0.52902693338E+02  0.46700000000E-02 0.  1.
         23    2    1    2    0    0  0.00000000000E+00  0.00000000000E+00 -0.16814151406E+02  0.88991235367E+02  0.87388353255E+02 0.  0.
        -11    1    3    3    0    0 -0.16188855454E+02  0.36536637625E+02  0.95855080932E+01  0.41096069100E+02  0.51100000000E-03 0. -1.
         11    1    3    3    0    0  0.16188855454E+02 -0.36536637625E+02 -0.26399659499E+02  0.47895166267E+02  0.51100000000E-03 0.  1.
<mgrwt>
<rscale>  0 0.87388353E+02</rscale>
<asrwt>0</asrwt>
<pdfrwt beam="1">  1        1 0.55520834E-02 0.87388353E+02</pdfrwt>
<pdfrwt beam="2">  1       -1 0.81388759E-02 0.87388353E+02</pdfrwt>
<totfact> 0.10062252E+05</totfact>
</mgrwt>
</event>
<event>
 5    1  0.2718303E+000  0.8983491E+02  0.7818608E-02  0.1303252E+00
         -1   -1    0    0    0  501 -0.00000000000E+00  0.00000000000E+00  0.25245658811E+02  0.25245659243E+02  0.46700000000E-02 0.  1.
          1   -1    0    0  501    0  0.00000000000E+00 -0.00000000000E+00 -0.79917805411E+02  0.79917805547E+02  0.46700000000E-02 0. -1.
         23    2    1    2    0    0  0.00000000000E+00  0.00000000000E+00 -0.54672146600E+02  0.10516346479E+03  0.89834908097E+02 0.  0.
        -11    1    3    3    0    0 -0.20506441380E+02 -0.21929567531E+02 -0.66445596406E+02  0.72913903696E+02  0.51100000000E-03 0. -1.
         11    1    3    3    0    0  0.20506441380E+02  0.21929567531E+02  0.11773449806E+02  0.32249561094E+02  0.51100000000E-03 0.  1.
<mgrwt>
<rscale>  0 0.89834908E+02</rscale>
<asrwt>0</asrwt>
<pdfrwt beam="2">  1        1 0.12295047E-01 0.89834908E+02</pdfrwt>
<pdfrwt beam="1">  1       -1 0.38839476E-02 0.89834908E+02</pdfrwt>
<totfact> 0.10490428E+05</totfact>
</mgrwt>
</event>
<event>
 5    1  0.2718303E+000  0.9302138E+02  0.7818608E-02  0.1295696E+00
          1   -1    0    0  501    0  0.00000000000E+00  0.00000000000E+00  0.23853673498E+02  0.23853673955E+02  0.46700000000E-02 0. -1.
         -1   -1    0    0    0  501 -0.00000000000E+00 -0.00000000000E+00 -0.90688099124E+02  0.90688099244E+02  0.46700000000E-02 0.  1.
         23    2    1    2    0    0  0.00000000000E+00  0.00000000000E+00 -0.66834425626E+02  0.11454177320E+03  0.93021381192E+02 0.  0.
        -11    1    3    3    0    0 -0.24223432747E+02 -0.11238244397E+01 -0.82288062355E+02  0.85786729054E+02  0.51100000000E-03 0.  1.
         11    1    3    3    0    0  0.24223432747E+02  0.11238244397E+01  0.15453636729E+02  0.28755044145E+02  0.51100000000E-03 0. -1.
<mgrwt>
<rscale>  0 0.93021381E+02</rscale>
<asrwt>0</asrwt>
<pdfrwt beam="1">  1        1 0.36697960E-02 0.93021381E+02</pdfrwt>
<pdfrwt beam="2">  1       -1 0.13952015E-01 0.93021381E+02</pdfrwt>
<totfact> 0.78671046E+04</totfact>
</mgrwt>
</event>
<event>
 5    1  0.2718303E+000  0.9442315E+02  0.7818608E-02  0.1292481E+00
          1   -1    0    0  501    0  0.00000000000E+00  0.00000000000E+00  0.12753001905E+03  0.12753001914E+03  0.46700000000E-02 0. -1.
         -1   -1    0    0    0  501 -0.00000000000E+00 -0.00000000000E+00 -0.17477710114E+02  0.17477710737E+02  0.46700000000E-02 0.  1.
         23    2    1    2    0    0  0.00000000000E+00  0.00000000000E+00  0.11005230894E+03  0.14500772988E+03  0.94423148755E+02 0.  0.
        -11    1    3    3    0    0  0.23906529337E+02 -0.36742414645E+02  0.28100358834E+02  0.52068775151E+02  0.51100000000E-03 0.  1.
         11    1    3    3    0    0 -0.23906529337E+02  0.36742414645E+02  0.81951950106E+02  0.92938954725E+02  0.51100000000E-03 0. -1.
<mgrwt>
<rscale>  0 0.94423149E+02</rscale>
<asrwt>0</asrwt>
<pdfrwt beam="1">  1        1 0.19620003E-01 0.94423149E+02</pdfrwt>
<pdfrwt beam="2">  1       -1 0.26888785E-02 0.94423149E+02</pdfrwt>
<totfact> 0.99025014E+04</totfact>
</mgrwt>
</event>
<event>
 5    1  0.2718303E+000  0.9380399E+02  0.7818608E-02  0.1293893E+00
          1   -1    0    0  501    0  0.00000000000E+00  0.00000000000E+00  0.12321390035E+02  0.12321390920E+02  0.46700000000E-02 0. -1.
         -1   -1    0    0    0  501 -0.00000000000E+00 -0.00000000000E+00 -0.17853480744E+03  0.17853480750E+03  0.46700000000E-02 0.  1.
         23    2    1    2    0    0  0.00000000000E+00  0.00000000000E+00 -0.16621341741E+03  0.19085619842E+03  0.93803988990E+02 0.  0.
        -11    1    3    3    0    0  0.25727524914E+02 -0.37336009404E+02 -0.58698471788E+02  0.74171380781E+02  0.51100000000E-03 0. -1.
         11    1    3    3    0    0 -0.25727524914E+02  0.37336009404E+02 -0.10751494562E+03  0.11668481764E+03  0.51100000000E-03 0.  1.
<mgrwt>
<rscale>  0 0.93803989E+02</rscale>
<asrwt>0</asrwt>
<pdfrwt beam="1">  1        1 0.18955987E-02 0.93803989E+02</pdfrwt>
<pdfrwt beam="2">  1       -1 0.27466892E-01 0.93803989E+02</pdfrwt>
<totfact> 0.66513702E+04</totfact>
</mgrwt>
</event>
<event>
 5    1  0.2718303E+000  0.9127042E+02  0.7818608E-02  0.1299804E+00
         -1   -1    0    0    0  501 -0.00000000000E+00  0.00000000000E+00  0.17345449486E+02  0.17345450114E+02  0.46700000000E-02 0.  1.
          1   -1    0    0  501    0  0.00000000000E+00 -0.00000000000E+00 -0.12006447783E+03  0.12006447792E+03  0.46700000000E-02 0. -1.
         23    2    1    2    0    0  0.00000000000E+00  0.00000000000E+00 -0.10271902834E+03  0.13740992803E+03  0.91270419844E+02 0.  0.
        -11    1    3    3    0    0 -0.37861658786E+02 -0.21754848220E+02 -0.31398169755E+02  0.53783117159E+02  0.51100000000E-03 0. -1.
         11    1    3    3    0    0  0.37861658786E+02  0.21754848220E+02 -0.71320858587E+02  0.83626810874E+02  0.51100000000E-03 0.  1.
<mgrwt>
<rscale>  0 0.91270420E+02</rscale>
<asrwt>0</asrwt>
<pdfrwt beam="2">  1        1 0.18471458E-01 0.91270420E+02</pdfrwt>
<pdfrwt beam="1">  1       -1 0.26685308E-02 0.91270420E+02</pdfrwt>
<totfact> 0.10744916E+05</totfact>
</mgrwt>
</event>
<event>
 5    1  0.2718303E+000  0.9004124E+02  0.7818608E-02  0.1302752E+00
         -1   -1    0    0    0  501 -0.00000000000E+00  0.00000000000E+00  0.10508845956E+02  0.10508846993E+02  0.46700000000E-02 0.  1.
          1   -1    0    0  501    0  0.00000000000E+00 -0.00000000000E+00 -0.19287141452E+03  0.19287141458E+03  0.46700000000E-02 0. -1.
         23    2    1    2    0    0  0.00000000000E+00  0.00000000000E+00 -0.18236256857E+03  0.20338026157E+03  0.90041237126E+02 0.  0.
        -11    1    3    3    0    0 -0.42786148621E+02 -0.11720630401E+02 -0.73856777317E+02  0.86155970465E+02  0.51100000000E-03 0.  1.
         11    1    3    3    0    0  0.42786148621E+02  0.11720630401E+02 -0.10850579125E+03  0.11722429111E+03  0.51100000000E-03 0. -1.
<mgrwt>
<rscale>  0 0.90041237E+02</rscale>
<asrwt>0</asrwt>
<pdfrwt beam="2">  1        1 0.29672523E-01 0.90041237E+02</pdfrwt>
<pdfrwt beam="1">  1       -1 0.16167458E-02 0.90041237E+02</pdfrwt>
<totfact> 0.12159376E+05</totfact>
</mgrwt>
</event>
<event>
 5    1  0.2718303E+000  0.9141274E+02  0.7818608E-02  0.1299466E+00
          1   -1    0    0  501    0  0.00000000000E+00  0.00000000000E+00  0.25144828722E+03  0.25144828726E+03  0.46700000000E-02 0. -1.
         -1   -1    0    0    0  501 -0.00000000000E+00 -0.00000000000E+00 -0.83081578512E+01  0.83081591637E+01  0.46700000000E-02 0.  1.
         23    2    1    2    0    0  0.00000000000E+00  0.00000000000E+00  0.24314012937E+03  0.25975644643E+03  0.91412739544E+02 0.  0.
        -11    1    3    3    0    0  0.27421997767E+00  0.42214678227E+02  0.17135188554E+03  0.17647555903E+03  0.51100000000E-03 0. -1.
         11    1    3    3    0    0 -0.27421997767E+00 -0.42214678227E+02  0.71788243827E+02  0.83280887401E+02  0.51100000000E-03 0.  1.
<mgrwt>
<rscale>  0 0.91412740E+02</rscale>
<asrwt>0</asrwt>
<pdfrwt beam="1">  1        1 0.38684358E-01 0.91412740E+02</pdfrwt>
<pdfrwt beam="2">  1       -1 0.12781780E-02 0.91412740E+02</pdfrwt>
<totfact> 0.12295680E+05</totfact>
</mgrwt>
</event>
<event>
 5    1  0.2718303E+000  0.8812850E+02  0.7818608E-02  0.1307448E+00
         -1   -1    0    0    0  501 -0.00000000000E+00  0.00000000000E+00  0.96271958701E+02  0.96271958815E+02  0.46700000000E-02 0.  1.
          1   -1    0    0  501    0  0.00000000000E+00 -0.00000000000E+00 -0.20168472005E+02  0.20168472545E+02  0.46700000000E-02 0. -1.
         23    2    1    2    0    0  0.00000000000E+00  0.00000000000E+00  0.76103486697E+02  0.11644043136E+03  0.88128504854E+02 0.  0.
        -11    1    3    3    0    0 -0.14339798643E+02  0.33966541837E+02  0.69934932104E+02  0.79058525904E+02  0.51100000000E-03 0.  1.
         11    1    3    3    0    0  0.14339798643E+02 -0.33966541837E+02  0.61685545933E+01  0.37381905456E+02  0.51100000000E-03 0. -1.
<mgrwt>
<rscale>  0 0.88128505E+02</rscale>
<asrwt>0</asrwt>
<pdfrwt beam="2">  1        1 0.31028419E-02 0.88128505E+02</pdfrwt>
<pdfrwt beam="1">  1       -1 0.14811071E-01 0.88128505E+02</pdfrwt>
<totfact> 0.89423179E+04</totfact>
</mgrwt>
</event>
<event>
 5    1  0.2718303E+000  0.9026745E+02  0.7818608E-02  0.1302205E+00
         -1   -1    0    0    0  501 -0.00000000000E+00  0.00000000000E+00  0.74625447812E+01  0.74625462424E+01  0.46700000000E-02 0.  1.
          1   -1    0    0  501    0  0.00000000000E+00 -0.00000000000E+00 -0.27297025109E+03  0.27297025113E+03  0.46700000000E-02 0. -1.
         23    2    1    2    0    0  0.00000000000E+00  0.00000000000E+00 -0.26550770630E+03  0.28043279737E+03  0.90267445586E+02 0.  0.
        -11    1    3    3    0    0  0.23092343457E+02  0.35186950771E+02 -0.82116257177E+02  0.92273818193E+02  0.51100000000E-03 0.  1.
         11    1    3    3    0    0 -0.23092343457E+02 -0.35186950771E+02 -0.18339144913E+03  0.18815897918E+03  0.51100000000E-03 0. -1.
<mgrwt>
<rscale>  0 0.90267446E+02</rscale>
<asrwt>0</asrwt>
<pdfrwt beam="2">  1        1 0.41995416E-01 0.90267446E+02</pdfrwt>
<pdfrwt beam="1">  1       -1 0.11480841E-02 0.90267446E+02</pdfrwt>
<totfact> 0.12921686E+05</totfact>
</mgrwt>
</event>
<event>
 5    1  0.2718303E+000  0.8996350E+02  0.7818608E-02  0.1302940E+00
         -1   -1    0    0    0  501 -0.00000000000E+00  0.00000000000E+00  0.44185137488E+02  0.44185137735E+02  0.46700000000E-02 0.  1.
          1   -1    0    0  501    0  0.00000000000E+00 -0.00000000000E+00 -0.45792721065E+02  0.45792721303E+02  0.46700000000E-02 0. -1.
         23    2    1    2    0    0  0.00000000000E+00  0.00000000000E+00 -0.16075835772E+01  0.89977859038E+02  0.89963496998E+02 0.  0.
        -11    1    3    3    0    0 -0.82532767495E+01 -0.44216211816E+02 -0.12134097716E+01  0.44996247932E+02  0.51100000000E-03 0. -1.
         11    1    3    3    0    0  0.82532767495E+01  0.44216211816E+02 -0.39417380563E+00  0.44981611106E+02  0.51100000000E-03 0.  1.
<mgrwt>
<rscale>  0 0.89963497E+02</rscale>
<asrwt>0</asrwt>
<pdfrwt beam="2">  1        1 0.70450340E-02 0.89963497E+02</pdfrwt>
<pdfrwt beam="1">  1       -1 0.67977135E-02 0.89963497E+02</pdfrwt>
<totfact> 0.96072907E+04</totfact>
</mgrwt>
</event>
<event>
 5    1  0.2718303E+000  0.9071842E+02  0.7818608E-02  0.1301121E+00
         -1   -1    0    0    0  501 -0.00000000000E+00  0.00000000000E+00  0.63214697334E+01  0.63214714584E+01  0.46700000000E-02 0.  1.
          1   -1    0    0  501    0  0.00000000000E+00 -0.00000000000E+00 -0.32547140101E+03  0.32547140104E+03  0.46700000000E-02 0. -1.
         23    2    1    2    0    0  0.00000000000E+00  0.00000000000E+00 -0.31914993128E+03  0.33179287250E+03  0.90718419349E+02 0.  0.
        -11    1    3    3    0    0 -0.42333519321E+02 -0.12664453917E+01 -0.21896984531E+03  0.22302807872E+03  0.51100000000E-03 0. -1.
         11    1    3    3    0    0  0.42333519321E+02  0.12664453917E+01 -0.10018008597E+03  0.10876479379E+03  0.51100000000E-03 0.  1.
<mgrwt>
<rscale>  0 0.90718419E+02</rscale>
<asrwt>0</asrwt>
<pdfrwt beam="2">  1        1 0.50072510E-01 0.90718419E+02</pdfrwt>
<pdfrwt beam="1">  1       -1 0.97253419E-03 0.90718419E+02</pdfrwt>
<totfact> 0.13185702E+05</totfact>
</mgrwt>
</event>
<event>
 5    1  0.2718303E+000  0.9065763E+02  0.7818608E-02  0.1301267E+00
          1   -1    0    0  501    0  0.00000000000E+00  0.00000000000E+00  0.22479180299E+02  0.22479180784E+02  0.46700000000E-02 0. -1.
         -1   -1    0    0    0  501 -0.00000000000E+00 -0.00000000000E+00 -0.91404642376E+02  0.91404642495E+02  0.46700000000E-02 0.  1.
         23    2    1    2    0    0  0.00000000000E+00  0.00000000000E+00 -0.68925462077E+02  0.11388382328E+03  0.90657630027E+02 0.  0.
        -11    1    3    3    0    0 -0.72427795166E+01 -0.22463224362E+02 -0.83076851385E+02  0.86364446043E+02  0.51100000000E-03 0.  1.
         11    1    3    3    0    0  0.72427795166E+01  0.22463224362E+02  0.14151389309E+02  0.27519377236E+02  0.51100000000E-03 0. -1.
<mgrwt>
<rscale>  0 0.90657630E+02</rscale>
<asrwt>0</asrwt>
<pdfrwt beam="1">  1        1 0.34583355E-02 0.90657630E+02</pdfrwt>
<pdfrwt beam="2">  1       -1 0.14062252E-01 0.90657630E+02</pdfrwt>
<totfact> 0.83935752E+04</totfact>
</mgrwt>
</event>
<event>
 5    1  0.2718303E+000  0.9141684E+02  0.7818608E-02  0.1299456E+00
          1   -1    0    0  501    0  0.00000000000E+00  0.00000000000E+00  0.58662976639E+02  0.58662976825E+02  0.46700000000E-02 0. -1.
         -1   -1    0    0    0  501 -0.00000000000E+00 -0.00000000000E+00 -0.35614619252E+02  0.35614619558E+02  0.46700000000E-02 0.  1.
         23    2    1    2    0    0  0.00000000000E+00  0.00000000000E+00  0.23048357387E+02  0.94277596383E+02  0.91416838720E+02 0.  0.
        -11    1    3    3    0    0 -0.26111818687E+02 -0.36458481208E+02  0.20644666994E+02  0.49368514285E+02  0.51100000000E-03 0.  1.
         11    1    3    3    0    0  0.26111818687E+02  0.36458481208E+02  0.24036903928E+01  0.44909082098E+02  0.51100000000E-03 0. -1.
<mgrwt>
<rscale>  0 0.91416839E+02</rscale>
<asrwt>0</asrwt>
<pdfrwt beam="1">  1        1 0.90250732E-02 0.91416839E+02</pdfrwt>
<pdfrwt beam="2">  1       -1 0.54791723E-02 0.91416839E+02</pdfrwt>
<totfact> 0.95344242E+04</totfact>
</mgrwt>
</event>
<event>
 5    1  0.2718303E+000  0.9218852E+02  0.7818608E-02  0.1297637E+00
         -1   -1    0    0    0  501 -0.00000000000E+00  0.00000000000E+00  0.15110905177E+03  0.15110905184E+03  0.46700000000E-02 0.  1.
          1   -1    0    0  501    0  0.00000000000E+00 -0.00000000000E+00 -0.14060577587E+02  0.14060578363E+02  0.46700000000E-02 0. -1.
         23    2    1    2    0    0  0.00000000000E+00  0.00000000000E+00  0.13704847418E+03  0.16516963020E+03  0.92188515912E+02 0.  0.
        -11    1    3    3    0    0  0.30478116296E+02  0.14429188084E+02  0.12220670768E+02  0.35867280855E+02  0.51100000000E-03 0. -1.
         11    1    3    3    0    0 -0.30478116296E+02 -0.14429188084E+02  0.12482780341E+03  0.12930234935E+03  0.51100000000E-03 0.  1.
<mgrwt>
<rscale>  0 0.92188516E+02</rscale>
<asrwt>0</asrwt>
<pdfrwt beam="2">  1        1 0.21631658E-02 0.92188516E+02</pdfrwt>
<pdfrwt beam="1">  1       -1 0.23247547E-01 0.92188516E+02</pdfrwt>
<totfact> 0.72548638E+04</totfact>
</mgrwt>
</event>
<event>
 5    1  0.2718303E+000  0.8992944E+02  0.7818608E-02  0.1303023E+00
          1   -1    0    0  501    0  0.00000000000E+00  0.00000000000E+00  0.14218303428E+02  0.14218304195E+02  0.46700000000E-02 0. -1.
         -1   -1    0    0    0  501 -0.00000000000E+00 -0.00000000000E+00 -0.14219883494E+03  0.14219883502E+03  0.46700000000E-02 0.  1.
         23    2    1    2    0    0  0.00000000000E+00  0.00000000000E+00 -0.12798053151E+03  0.15641713921E+03  0.89929444527E+02 0.  0.
        -11    1    3    3    0    0  0.40385924885E+02  0.63254388809E+01 -0.96566985822E+02  0.10486284784E+03  0.51100000000E-03 0.  1.
         11    1    3    3    0    0 -0.40385924885E+02 -0.63254388809E+01 -0.31413545692E+02  0.51554291374E+02  0.51100000000E-03 0. -1.
<mgrwt>
<rscale>  0 0.89929445E+02</rscale>
<asrwt>0</asrwt>
<pdfrwt beam="1">  1        1 0.21874315E-02 0.89929445E+02</pdfrwt>
<pdfrwt beam="2">  1       -1 0.21876743E-01 0.89929445E+02</pdfrwt>
<totfact> 0.78464450E+04</totfact>
</mgrwt>
</event>
<event>
 5    1  0.2718303E+000  0.8939495E+02  0.7818608E-02  0.1304324E+00
         -1   -1    0    0    0  501 -0.00000000000E+00  0.00000000000E+00  0.87533071223E+02  0.87533071348E+02  0.46700000000E-02 0.  1.
          1   -1    0    0  501    0  0.00000000000E+00 -0.00000000000E+00 -0.22824107217E+02  0.22824107695E+02  0.46700000000E-02 0. -1.
         23    2    1    2    0    0  0.00000000000E+00  0.00000000000E+00  0.64708964006E+02  0.11035717904E+03  0.89394949206E+02 0.  0.
        -11    1    3    3    0    0  0.36787312174E+02  0.14690170739E+02  0.57916380737E+02  0.70167047902E+02  0.51100000000E-03 0.  1.
         11    1    3    3    0    0 -0.36787312174E+02 -0.14690170739E+02  0.67925832685E+01  0.40190131140E+02  0.51100000000E-03 0. -1.
<mgrwt>
<rscale>  0 0.89394949E+02</rscale>
<asrwt>0</asrwt>
<pdfrwt beam="2">  1        1 0.35114011E-02 0.89394949E+02</pdfrwt>
<pdfrwt beam="1">  1       -1 0.13466627E-01 0.89394949E+02</pdfrwt>
<totfact> 0.87675140E+04</totfact>
</mgrwt>
</event>
<event>
 5    1  0.2718303E+000  0.8952305E+02  0.7818608E-02  0.1304011E+00
          1   -1    0    0  501    0  0.00000000000E+00  0.00000000000E+00  0.21261020035E+02  0.21261020548E+02  0.46700000000E-02 0. -1.
         -1   -1    0    0    0  501 -0.00000000000E+00 -0.00000000000E+00 -0.94237901883E+02  0.94237901999E+02  0.46700000000E-02 0.  1.
         23    2    1    2    0    0  0.00000000000E+00  0.00000000000E+00 -0.72976881848E+02  0.11549892255E+03  0.89523046336E+02 0.  0.
        -11    1    3    3    0    0  0.32294649311E+02 -0.30731862265E+02 -0.31295296610E+02  0.54468223054E+02  0.51100000000E-03 0.  1.
         11    1    3    3    0    0 -0.32294649311E+02  0.30731862265E+02 -0.41681585238E+02  0.61030699493E+02  0.51100000000E-03 0. -1.
<mgrwt>
<rscale>  0 0.89523046E+02</rscale>
<asrwt>0</asrwt>
<pdfrwt beam="1">  1        1 0.32709262E-02 0.89523046E+02</pdfrwt>
<pdfrwt beam="2">  1       -1 0.14498139E-01 0.89523046E+02</pdfrwt>
<totfact> 0.86221155E+04</totfact>
</mgrwt>
</event>
<event>
 5    1  0.2718303E+000  0.9126887E+02  0.7818608E-02  0.1299808E+00
         -1   -1    0    0    0  501 -0.00000000000E+00  0.00000000000E+00  0.50448233646E+02  0.50448233863E+02  0.46700000000E-02 0.  1.
          1   -1    0    0  501    0  0.00000000000E+00 -0.00000000000E+00 -0.41279969161E+02  0.41279969425E+02  0.46700000000E-02 0. -1.
         23    2    1    2    0    0  0.00000000000E+00  0.00000000000E+00  0.91682644852E+01  0.91728203288E+02  0.91268867664E+02 0.  0.
        -11    1    3    3    0    0 -0.17162152654E+02 -0.19184429102E+02  0.42455598860E+02  0.49649367352E+02  0.51100000000E-03 0.  1.
         11    1    3    3    0    0  0.17162152654E+02  0.19184429102E+02 -0.33287334375E+02  0.42078835936E+02  0.51100000000E-03 0. -1.
<mgrwt>
<rscale>  0 0.91268868E+02</rscale>
<asrwt>0</asrwt>
<pdfrwt beam="2">  1        1 0.63507646E-02 0.91268868E+02</pdfrwt>
<pdfrwt beam="1">  1       -1 0.77612667E-02 0.91268868E+02</pdfrwt>
<totfact> 0.90838845E+04</totfact>
</mgrwt>
</event>
<event>
 5    1  0.2718303E+000  0.9336789E+02  0.7818608E-02  0.1294895E+00
          1   -1    0    0  501    0  0.00000000000E+00  0.00000000000E+00  0.58815436543E+02  0.58815436728E+02  0.46700000000E-02 0. -1.
         -1   -1    0    0    0  501 -0.00000000000E+00 -0.00000000000E+00 -0.37054739798E+02  0.37054740092E+02  0.46700000000E-02 0.  1.
         23    2    1    2    0    0  0.00000000000E+00  0.00000000000E+00  0.21760696744E+02  0.95870176820E+02  0.93367889988E+02 0.  0.
        -11    1    3    3    0    0  0.39793894459E+02  0.22630739486E+02  0.20273540468E+02  0.50067163383E+02  0.51100000000E-03 0. -1.
         11    1    3    3    0    0 -0.39793894459E+02 -0.22630739486E+02  0.14871562767E+01  0.45803013437E+02  0.51100000000E-03 0.  1.
<mgrwt>
<rscale>  0 0.93367890E+02</rscale>
<asrwt>0</asrwt>
<pdfrwt beam="1">  1        1 0.90485287E-02 0.93367890E+02</pdfrwt>
<pdfrwt beam="2">  1       -1 0.57007292E-02 0.93367890E+02</pdfrwt>
<totfact> 0.89935531E+04</totfact>
</mgrwt>
</event>
<event>
 5    1  0.2718303E+000  0.9165338E+02  0.7818608E-02  0.1298896E+00
          1   -1    0    0  501    0  0.00000000000E+00  0.00000000000E+00  0.94325301808E+02  0.94325301924E+02  0.46700000000E-02 0. -1.
         -1   -1    0    0    0  501 -0.00000000000E+00 -0.00000000000E+00 -0.22264287330E+02  0.22264287820E+02  0.46700000000E-02 0.  1.
         23    2    1    2    0    0  0.00000000000E+00  0.00000000000E+00  0.72061014478E+02  0.11658958974E+03  0.91653383074E+02 0.  0.
        -11    1    3    3    0    0 -0.91020022245E+01  0.22555174492E+02 -0.13376029100E+02  0.27757890691E+02  0.51100000000E-03 0.  1.
         11    1    3    3    0    0  0.91020022245E+01 -0.22555174492E+02  0.85437043578E+02  0.88831699052E+02  0.51100000000E-03 0. -1.
<mgrwt>
<rscale>  0 0.91653383E+02</rscale>
<asrwt>0</asrwt>
<pdfrwt beam="1">  1        1 0.14511585E-01 0.91653383E+02</pdfrwt>
<pdfrwt beam="2">  1       -1 0.34252750E-02 0.91653383E+02</pdfrwt>
<totfact> 0.10198506E+05</totfact>
</mgrwt>
</event>
<event>
 5    1  0.2718303E+000  0.1018119E+03  0.7818608E-02  0.1276531E+00
          1   -1    0    0  501    0  0.00000000000E+00  0.00000000000E+00  0.15468134662E+03  0.15468134669E+03  0.46700000000E-02 0. -1.
         -1   -1    0    0    0  501 -0.00000000000E+00 -0.00000000000E+00 -0.16753237350E+02  0.16753238001E+02  0.46700000000E-02 0.  1.
         23    2    1    2    0    0  0.00000000000E+00  0.00000000000E+00  0.13792810927E+03  0.17143458469E+03  0.10181185344E+03 0.  0.
        -11    1    3    3    0    0  0.13000717052E+02 -0.49213059012E+02  0.67810221971E+02  0.84788973489E+02  0.51100000000E-03 0. -1.
         11    1    3    3    0    0 -0.13000717052E+02  0.49213059012E+02  0.70117887296E+02  0.86645611201E+02  0.51100000000E-03 0.  1.
<mgrwt>
<rscale>  0 0.10181185E+03</rscale>
<asrwt>0</asrwt>
<pdfrwt beam="1">  1        1 0.23797131E-01 0.10181185E+03</pdfrwt>
<pdfrwt beam="2">  1       -1 0.25774211E-02 0.10181185E+03</pdfrwt>
<totfact> 0.83581507E+04</totfact>
</mgrwt>
</event>
<event>
 5    1  0.2718303E+000  0.9281296E+02  0.7818608E-02  0.1296179E+00
          1   -1    0    0  501    0  0.00000000000E+00  0.00000000000E+00  0.23057780003E+03  0.23057780008E+03  0.46700000000E-02 0. -1.
         -1   -1    0    0    0  501 -0.00000000000E+00 -0.00000000000E+00 -0.93398468816E+01  0.93398480491E+01  0.46700000000E-02 0.  1.
         23    2    1    2    0    0  0.00000000000E+00  0.00000000000E+00  0.22123795315E+03  0.23991764813E+03  0.92812962291E+02 0.  0.
        -11    1    3    3    0    0  0.28045259453E+02 -0.33644504278E+02  0.70986223650E+02  0.83411828863E+02  0.51100000000E-03 0.  1.
         11    1    3    3    0    0 -0.28045259453E+02  0.33644504278E+02  0.15025172950E+03  0.15650581927E+03  0.51100000000E-03 0. -1.
<mgrwt>
<rscale>  0 0.92812962E+02</rscale>
<asrwt>0</asrwt>
<pdfrwt beam="1">  1        1 0.35473508E-01 0.92812962E+02</pdfrwt>
<pdfrwt beam="2">  1       -1 0.14368996E-02 0.92812962E+02</pdfrwt>
<totfact> 0.11606886E+05</totfact>
</mgrwt>
</event>
<event>
 5    1  0.2718303E+000  0.8426129E+02  0.7818608E-02  0.1317376E+00
          1   -1    0    0  501    0  0.00000000000E+00  0.00000000000E+00  0.22912106548E+03  0.22912106553E+03  0.46700000000E-02 0. -1.
         -1   -1    0    0    0  501 -0.00000000000E+00 -0.00000000000E+00 -0.77469570140E+01  0.77469584216E+01  0.46700000000E-02 0.  1.
         23    2    1    2    0    0  0.00000000000E+00  0.00000000000E+00  0.22137410847E+03  0.23686802395E+03  0.84261289277E+02 0.  0.
        -11    1    3    3    0    0  0.30387115646E+02  0.18681158356E+02  0.17371047863E+03  0.17733497360E+03  0.51100000000E-03 0. -1.
         11    1    3    3    0    0 -0.30387115646E+02 -0.18681158356E+02  0.47663629839E+02  0.59533050355E+02  0.51100000000E-03 0.  1.
<mgrwt>
<rscale>  0 0.84261289E+02</rscale>
<asrwt>0</asrwt>
<pdfrwt beam="1">  1        1 0.35249394E-01 0.84261289E+02</pdfrwt>
<pdfrwt beam="2">  1       -1 0.11918397E-02 0.84261289E+02</pdfrwt>
<totfact> 0.14999786E+05</totfact>
</mgrwt>
</event>
<event>
 5    1  0.2718303E+000  0.9116547E+02  0.7818608E-02  0.1300054E+00
         -1   -1    0    0    0  501 -0.00000000000E+00  0.00000000000E+00  0.69949235859E+02  0.69949236015E+02  0.46700000000E-02 0. -1.
          1   -1    0    0  501    0  0.00000000000E+00 -0.00000000000E+00 -0.29704196818E+02  0.29704197185E+02  0.46700000000E-02 0.  1.
         23    2    1    2    0    0  0.00000000000E+00  0.00000000000E+00  0.40245039041E+02  0.99653433200E+02  0.91165473625E+02 0.  0.
        -11    1    3    3    0    0  0.17550451791E+02  0.31384691413E+02 -0.10499420700E+02  0.37460046029E+02  0.51100000000E-03 0.  1.
         11    1    3    3    0    0 -0.17550451791E+02 -0.31384691413E+02  0.50744459741E+02  0.62193387172E+02  0.51100000000E-03 0. -1.
<mgrwt>
<rscale>  0 0.91165474E+02</rscale>
<asrwt>0</asrwt>
<pdfrwt beam="2">  1        1 0.45698765E-02 0.91165474E+02</pdfrwt>
<pdfrwt beam="1">  1       -1 0.10761421E-01 0.91165474E+02</pdfrwt>
<totfact> 0.86576985E+04</totfact>
</mgrwt>
</event>
<event>
 5    1  0.2718303E+000  0.9072140E+02  0.7818608E-02  0.1301114E+00
          1   -1    0    0  501    0  0.00000000000E+00  0.00000000000E+00  0.10098413719E+03  0.10098413730E+03  0.46700000000E-02 0. -1.
         -1   -1    0    0    0  501 -0.00000000000E+00 -0.00000000000E+00 -0.20375409594E+02  0.20375410129E+02  0.46700000000E-02 0.  1.
         23    2    1    2    0    0  0.00000000000E+00  0.00000000000E+00  0.80608727598E+02  0.12135954743E+03  0.90721402035E+02 0.  0.
        -11    1    3    3    0    0 -0.30494897828E+02  0.32765686366E+02  0.30468351000E+02  0.54146554918E+02  0.51100000000E-03 0.  1.
         11    1    3    3    0    0  0.30494897828E+02 -0.32765686366E+02  0.50140376598E+02  0.67212992511E+02  0.51100000000E-03 0. -1.
<mgrwt>
<rscale>  0 0.90721402E+02</rscale>
<asrwt>0</asrwt>
<pdfrwt beam="1">  1        1 0.15536021E-01 0.90721402E+02</pdfrwt>
<pdfrwt beam="2">  1       -1 0.31346784E-02 0.90721402E+02</pdfrwt>
<totfact> 0.10605875E+05</totfact>
</mgrwt>
</event>
<event>
 5    1  0.2718303E+000  0.9008611E+02  0.7818608E-02  0.1302643E+00
         -1   -1    0    0    0  501 -0.00000000000E+00  0.00000000000E+00  0.75051673845E+01  0.75051688375E+01  0.46700000000E-02 0.  1.
          1   -1    0    0  501    0  0.00000000000E+00 -0.00000000000E+00 -0.27033064637E+03  0.27033064642E+03  0.46700000000E-02 0. -1.
         23    2    1    2    0    0  0.00000000000E+00  0.00000000000E+00 -0.26282547899E+03  0.27783581525E+03  0.90086113417E+02 0.  0.
        -11    1    3    3    0    0  0.32724209280E+02 -0.29288344223E+02 -0.16228408233E+03  0.16812139768E+03  0.51100000000E-03 0. -1.
         11    1    3    3    0    0 -0.32724209280E+02  0.29288344223E+02 -0.10054139666E+03  0.10971441757E+03  0.51100000000E-03 0.  1.
<mgrwt>
<rscale>  0 0.90086113E+02</rscale>
<asrwt>0</asrwt>
<pdfrwt beam="2">  1        1 0.41589323E-01 0.90086113E+02</pdfrwt>
<pdfrwt beam="1">  1       -1 0.11546415E-02 0.90086113E+02</pdfrwt>
<totfact> 0.12966560E+05</totfact>
</mgrwt>
</event>
<event>
 5    1  0.2718303E+000  0.9265597E+02  0.7818608E-02  0.1296544E+00
          1   -1    0    0  501    0  0.00000000000E+00  0.00000000000E+00  0.18676308080E+03  0.18676308086E+03  0.46700000000E-02 0. -1.
         -1   -1    0    0    0  501 -0.00000000000E+00 -0.00000000000E+00 -0.11492003347E+02  0.11492004295E+02  0.46700000000E-02 0.  1.
         23    2    1    2    0    0  0.00000000000E+00  0.00000000000E+00  0.17527107745E+03  0.19825508515E+03  0.92655966875E+02 0.  0.
        -11    1    3    3    0    0 -0.15331796995E+02  0.26331628712E+02  0.12964837619E+02  0.33113527213E+02  0.51100000000E-03 0.  1.
         11    1    3    3    0    0  0.15331796995E+02 -0.26331628712E+02  0.16230623983E+03  0.16514155794E+03  0.51100000000E-03 0. -1.
<mgrwt>
<rscale>  0 0.92655967E+02</rscale>
<asrwt>0</asrwt>
<pdfrwt beam="1">  1        1 0.28732779E-01 0.92655967E+02</pdfrwt>
<pdfrwt beam="2">  1       -1 0.17680008E-02 0.92655967E+02</pdfrwt>
<totfact> 0.11190003E+05</totfact>
</mgrwt>
</event>
<event>
 5    1  0.2718303E+000  0.9186809E+02  0.7818608E-02  0.1298390E+00
         -1   -1    0    0    0  501 -0.00000000000E+00  0.00000000000E+00  0.12779013231E+03  0.12779013239E+03  0.46700000000E-02 0.  1.
          1   -1    0    0  501    0  0.00000000000E+00 -0.00000000000E+00 -0.16510948494E+02  0.16510949155E+02  0.46700000000E-02 0. -1.
         23    2    1    2    0    0  0.00000000000E+00  0.00000000000E+00  0.11127918381E+03  0.14430108155E+03  0.91868086874E+02 0.  0.
        -11    1    3    3    0    0 -0.39438167470E+02 -0.17910648371E+02  0.79655822537E+02  0.90670890824E+02  0.51100000000E-03 0.  1.
         11    1    3    3    0    0  0.39438167470E+02  0.17910648371E+02  0.31623361278E+02  0.53630190726E+02  0.51100000000E-03 0. -1.
<mgrwt>
<rscale>  0 0.91868087E+02</rscale>
<asrwt>0</asrwt>
<pdfrwt beam="2">  1        1 0.25401460E-02 0.91868087E+02</pdfrwt>
<pdfrwt beam="1">  1       -1 0.19660020E-01 0.91868087E+02</pdfrwt>
<totfact> 0.76005653E+04</totfact>
</mgrwt>
</event>
<event>
 5    1  0.2718303E+000  0.9649400E+02  0.7818608E-02  0.1287846E+00
          1   -1    0    0  501    0  0.00000000000E+00  0.00000000000E+00  0.54495551343E+02  0.54495551544E+02  0.46700000000E-02 0. -1.
         -1   -1    0    0    0  501 -0.00000000000E+00 -0.00000000000E+00 -0.42714921158E+02  0.42714921413E+02  0.46700000000E-02 0.  1.
         23    2    1    2    0    0  0.00000000000E+00  0.00000000000E+00  0.11780630186E+02  0.97210472956E+02  0.96494003984E+02 0.  0.
        -11    1    3    3    0    0 -0.20620486242E+02  0.16276039361E+02 -0.34878163545E+02  0.43664633316E+02  0.51100000000E-03 0.  1.
         11    1    3    3    0    0  0.20620486242E+02 -0.16276039361E+02  0.46658793730E+02  0.53545839640E+02  0.51100000000E-03 0. -1.
<mgrwt>
<rscale>  0 0.96494004E+02</rscale>
<asrwt>0</asrwt>
<pdfrwt beam="1">  1        1 0.83839310E-02 0.96494004E+02</pdfrwt>
<pdfrwt beam="2">  1       -1 0.65715264E-02 0.96494004E+02</pdfrwt>
<totfact> 0.81047220E+04</totfact>
</mgrwt>
</event>
<event>
 5    1  0.2718303E+000  0.9031526E+02  0.7818608E-02  0.1302090E+00
          1   -1    0    0  501    0  0.00000000000E+00  0.00000000000E+00  0.61764645365E+02  0.61764645541E+02  0.46700000000E-02 0. -1.
         -1   -1    0    0    0  501 -0.00000000000E+00 -0.00000000000E+00 -0.33015840629E+02  0.33015840959E+02  0.46700000000E-02 0.  1.
         23    2    1    2    0    0  0.00000000000E+00  0.00000000000E+00  0.28748804736E+02  0.94780486500E+02  0.90315263646E+02 0.  0.
        -11    1    3    3    0    0  0.36884163771E+02 -0.12264101282E+02 -0.97481670514E+01  0.40073388657E+02  0.51100000000E-03 0.  1.
         11    1    3    3    0    0 -0.36884163771E+02  0.12264101282E+02  0.38496971787E+02  0.54707097843E+02  0.51100000000E-03 0. -1.
<mgrwt>
<rscale>  0 0.90315264E+02</rscale>
<asrwt>0</asrwt>
<pdfrwt beam="1">  1        1 0.95022532E-02 0.90315264E+02</pdfrwt>
<pdfrwt beam="2">  1       -1 0.50793601E-02 0.90315264E+02</pdfrwt>
<totfact> 0.99372076E+04</totfact>
</mgrwt>
</event>
<event>
 5    1  0.2718303E+000  0.8478812E+02  0.7818608E-02  0.1315988E+00
          1   -1    0    0  501    0  0.00000000000E+00  0.00000000000E+00  0.46246720272E+02  0.46246720507E+02  0.46700000000E-02 0. -1.
         -1   -1    0    0    0  501 -0.00000000000E+00 -0.00000000000E+00 -0.38862351217E+02  0.38862351498E+02  0.46700000000E-02 0.  1.
         23    2    1    2    0    0  0.00000000000E+00  0.00000000000E+00  0.73843690546E+01  0.85109072005E+02  0.84788119635E+02 0.  0.
        -11    1    3    3    0    0 -0.22530651772E+02  0.28844632211E+02 -0.17780687586E+02  0.40691472423E+02  0.51100000000E-03 0.  1.
         11    1    3    3    0    0  0.22530651772E+02 -0.28844632211E+02  0.25165056640E+02  0.44417599582E+02  0.51100000000E-03 0. -1.
<mgrwt>
<rscale>  0 0.84788120E+02</rscale>
<asrwt>0</asrwt>
<pdfrwt beam="1">  1        1 0.71148801E-02 0.84788120E+02</pdfrwt>
<pdfrwt beam="2">  1       -1 0.59788233E-02 0.84788120E+02</pdfrwt>
<totfact> 0.11346385E+05</totfact>
</mgrwt>
</event>
<event>
 5    1  0.2718303E+000  0.9181234E+02  0.7818608E-02  0.1298521E+00
         -1   -1    0    0    0  501 -0.00000000000E+00  0.00000000000E+00  0.18061329783E+02  0.18061330386E+02  0.46700000000E-02 0.  1.
          1   -1    0    0  501    0  0.00000000000E+00 -0.00000000000E+00 -0.11667892405E+03  0.11667892414E+03  0.46700000000E-02 0. -1.
         23    2    1    2    0    0  0.00000000000E+00  0.00000000000E+00 -0.98617594263E+02  0.13474025453E+03  0.91812342805E+02 0.  0.
        -11    1    3    3    0    0 -0.10989906706E+02 -0.19273625602E+02  0.96704849440E+01  0.24202664576E+02  0.51100000000E-03 0.  1.
         11    1    3    3    0    0  0.10989906706E+02  0.19273625602E+02 -0.10828807921E+03  0.11053758995E+03  0.51100000000E-03 0. -1.
<mgrwt>
<rscale>  0 0.91812343E+02</rscale>
<asrwt>0</asrwt>
<pdfrwt beam="2">  1        1 0.17950603E-01 0.91812343E+02</pdfrwt>
<pdfrwt beam="1">  1       -1 0.27786662E-02 0.91812343E+02</pdfrwt>
<totfact> 0.10521159E+05</totfact>
</mgrwt>
</event>
<event>
 4    1  0.2718303E+000  0.5063602E+02  0.7818608E-02  0.1441941E+00
         -1   -1    0    0    0  501 -0.00000000000E+00  0.00000000000E+00  0.39079064451E+02  0.39079064730E+02  0.46700000000E-02 0. -1.
          1   -1    0    0  501    0  0.00000000000E+00 -0.00000000000E+00 -0.16402688403E+02  0.16402689068E+02  0.46700000000E-02 0.  1.
        -11    1    1    2    0    0 -0.18210077156E+00 -0.24569309869E+02  0.18031597647E+02  0.30476592035E+02  0.51100000000E-03 0.  1.
         11    1    1    2    0    0  0.18210077156E+00  0.24569309869E+02  0.46447784011E+01  0.25005161763E+02  0.51100000000E-03 0. -1.
<mgrwt>
<rscale>  0 0.50636024E+02</rscale>
<asrwt>0</asrwt>
<pdfrwt beam="2">  1        1 0.25234906E-02 0.50636024E+02</pdfrwt>
<pdfrwt beam="1">  1       -1 0.60121638E-02 0.50636024E+02</pdfrwt>
<totfact> 0.40663022E+05</totfact>
</mgrwt>
</event>
<event>
 5    1  0.2718303E+000  0.9205677E+02  0.7818608E-02  0.1297946E+00
          1   -1    0    0  501    0  0.00000000000E+00  0.00000000000E+00  0.37726407325E+02  0.37726407614E+02  0.46700000000E-02 0. -1.
         -1   -1    0    0    0  501 -0.00000000000E+00 -0.00000000000E+00 -0.56157275483E+02  0.56157275677E+02  0.46700000000E-02 0.  1.
         23    2    1    2    0    0  0.00000000000E+00  0.00000000000E+00 -0.18430868158E+02  0.93883683291E+02  0.92056771001E+02 0.  0.
        -11    1    3    3    0    0 -0.24086611697E+02 -0.23416349223E+02  0.22875232404E+02  0.40641930709E+02  0.51100000000E-03 0. -1.
         11    1    3    3    0    0  0.24086611697E+02  0.23416349223E+02 -0.41306100562E+02  0.53241752581E+02  0.51100000000E-03 0.  1.
<mgrwt>
<rscale>  0 0.92056771E+02</rscale>
<asrwt>0</asrwt>
<pdfrwt beam="1">  1        1 0.58040628E-02 0.92056771E+02</pdfrwt>
<pdfrwt beam="2">  1       -1 0.86395808E-02 0.92056771E+02</pdfrwt>
<totfact> 0.87441079E+04</totfact>
</mgrwt>
</event>
<event>
 4    1  0.2718303E+000  0.1279157E+03  0.7818608E-02  0.1230582E+00
          1   -1    0    0  501    0  0.00000000000E+00  0.00000000000E+00  0.16511709383E+03  0.16511709389E+03  0.46700000000E-02 0. -1.
         -1   -1    0    0    0  501 -0.00000000000E+00 -0.00000000000E+00 -0.24773970223E+02  0.24773970663E+02  0.46700000000E-02 0.  1.
        -11    1    1    2    0    0 -0.38983897747E+02 -0.90324764988E+01  0.14423728058E+03  0.14968541353E+03  0.51100000000E-03 0. -1.
         11    1    1    2    0    0  0.38983897747E+02  0.90324764988E+01 -0.38941569772E+01  0.40205651022E+02  0.51100000000E-03 0.  1.
<mgrwt>
<rscale>  0 0.12791569E+03</rscale>
<asrwt>0</asrwt>
<pdfrwt beam="1">  1        1 0.25402630E-01 0.12791569E+03</pdfrwt>
<pdfrwt beam="2">  1       -1 0.38113801E-02 0.12791569E+03</pdfrwt>
<totfact> 0.45011752E+04</totfact>
</mgrwt>
</event>
<event>
 5    1  0.2718303E+000  0.8626629E+02  0.7818608E-02  0.1312154E+00
         -1   -1    0    0    0  501 -0.00000000000E+00  0.00000000000E+00  0.38113894496E+02  0.38113894782E+02  0.46700000000E-02 0.  1.
          1   -1    0    0  501    0  0.00000000000E+00 -0.00000000000E+00 -0.48813388288E+02  0.48813388512E+02  0.46700000000E-02 0. -1.
         23    2    1    2    0    0  0.00000000000E+00  0.00000000000E+00 -0.10699493792E+02  0.86927283294E+02  0.86266293611E+02 0.  0.
        -11    1    3    3    0    0  0.38846744184E+01 -0.18634558540E+02 -0.44352013497E+02  0.48264257674E+02  0.51100000000E-03 0. -1.
         11    1    3    3    0    0 -0.38846744184E+01  0.18634558540E+02  0.33652519705E+02  0.38663025620E+02  0.51100000000E-03 0.  1.
<mgrwt>
<rscale>  0 0.86266294E+02</rscale>
<asrwt>0</asrwt>
<pdfrwt beam="2">  1        1 0.75097521E-02 0.86266294E+02</pdfrwt>
<pdfrwt beam="1">  1       -1 0.58636761E-02 0.86266294E+02</pdfrwt>
<totfact> 0.10899177E+05</totfact>
</mgrwt>
</event>
<event>
 5    1  0.2718303E+000  0.8673344E+02  0.7818608E-02  0.1310961E+00
         -1   -1    0    0    0  501 -0.00000000000E+00  0.00000000000E+00  0.11111353338E+03  0.11111353347E+03  0.46700000000E-02 0.  1.
          1   -1    0    0  501    0  0.00000000000E+00 -0.00000000000E+00 -0.16925683137E+02  0.16925683781E+02  0.46700000000E-02 0. -1.
         23    2    1    2    0    0  0.00000000000E+00  0.00000000000E+00  0.94187850239E+02  0.12803921726E+03  0.86733442355E+02 0.  0.
        -11    1    3    3    0    0 -0.20189554026E+02  0.34519101403E+02  0.22326271405E+02  0.45800096600E+02  0.51100000000E-03 0. -1.
         11    1    3    3    0    0  0.20189554026E+02 -0.34519101403E+02  0.71861578834E+02  0.82239120656E+02  0.51100000000E-03 0.  1.
<mgrwt>
<rscale>  0 0.86733442E+02</rscale>
<asrwt>0</asrwt>
<pdfrwt beam="2">  1        1 0.26039514E-02 0.86733442E+02</pdfrwt>
<pdfrwt beam="1">  1       -1 0.17094389E-01 0.86733442E+02</pdfrwt>
<totfact> 0.90705524E+04</totfact>
</mgrwt>
</event>
<event>
 5    1  0.2718303E+000  0.9156566E+02  0.7818608E-02  0.1299104E+00
          1   -1    0    0  501    0  0.00000000000E+00  0.00000000000E+00  0.13092270728E+03  0.13092270736E+03  0.46700000000E-02 0. -1.
         -1   -1    0    0    0  501 -0.00000000000E+00 -0.00000000000E+00 -0.16009962785E+02  0.16009963466E+02  0.46700000000E-02 0.  1.
         23    2    1    2    0    0  0.00000000000E+00  0.00000000000E+00  0.11491274450E+03  0.14693267083E+03  0.91565664470E+02 0.  0.
        -11    1    3    3    0    0  0.11392692183E+02 -0.32916699025E+02  0.10513330723E+03  0.11075339633E+03  0.51100000000E-03 0. -1.
         11    1    3    3    0    0 -0.11392692183E+02  0.32916699025E+02  0.97794372694E+01  0.36179274501E+02  0.51100000000E-03 0.  1.
<mgrwt>
<rscale>  0 0.91565664E+02</rscale>
<asrwt>0</asrwt>
<pdfrwt beam="1">  1        1 0.20141954E-01 0.91565664E+02</pdfrwt>
<pdfrwt beam="2">  1       -1 0.24630714E-02 0.91565664E+02</pdfrwt>
<totfact> 0.10815064E+05</totfact>
</mgrwt>
</event>
<event>
 5    1  0.2718303E+000  0.7130660E+02  0.7818608E-02  0.1355705E+00
          1   -1    0    0  501    0  0.00000000000E+00  0.00000000000E+00  0.11701783644E+03  0.11701783653E+03  0.46700000000E-02 0. -1.
         -1   -1    0    0    0  501 -0.00000000000E+00 -0.00000000000E+00 -0.10862940917E+02  0.10862941921E+02  0.46700000000E-02 0.  1.
         23    2    1    2    0    0  0.00000000000E+00  0.00000000000E+00  0.10615489552E+03  0.12788077845E+03  0.71306603162E+02 0.  0.
        -11    1    3    3    0    0  0.19869908106E+02  0.18992916918E+01  0.96794886824E-01  0.19960709571E+02  0.51100000000E-03 0.  1.
         11    1    3    3    0    0 -0.19869908106E+02 -0.18992916918E+01  0.10605810063E+03  0.10792006888E+03  0.51100000000E-03 0. -1.
<mgrwt>
<rscale>  0 0.71306603E+02</rscale>
<asrwt>0</asrwt>
<pdfrwt beam="1">  1        1 0.18002744E-01 0.71306603E+02</pdfrwt>
<pdfrwt beam="2">  1       -1 0.16712218E-02 0.71306603E+02</pdfrwt>
<totfact> 0.20687512E+05</totfact>
</mgrwt>
</event>
<event>
 5    1  0.2718303E+000  0.9228284E+02  0.7818608E-02  0.1297416E+00
         -1   -1    0    0    0  501 -0.00000000000E+00  0.00000000000E+00  0.10243908123E+02  0.10243909188E+02  0.46700000000E-02 0.  1.
          1   -1    0    0  501    0  0.00000000000E+00 -0.00000000000E+00 -0.20783380329E+03  0.20783380334E+03  0.46700000000E-02 0. -1.
         23    2    1    2    0    0  0.00000000000E+00  0.00000000000E+00 -0.19758989517E+03  0.21807771253E+03  0.92282837139E+02 0.  0.
        -11    1    3    3    0    0 -0.31915324659E+02  0.64977734045E+01 -0.17603116608E+03  0.17901893878E+03  0.51100000000E-03 0. -1.
         11    1    3    3    0    0  0.31915324659E+02 -0.64977734045E+01 -0.21558729085E+02  0.39058773756E+02  0.51100000000E-03 0.  1.
<mgrwt>
<rscale>  0 0.92282837E+02</rscale>
<asrwt>0</asrwt>
<pdfrwt beam="2">  1        1 0.31974428E-01 0.92282837E+02</pdfrwt>
<pdfrwt beam="1">  1       -1 0.15759861E-02 0.92282837E+02</pdfrwt>
<totfact> 0.11549468E+05</totfact>
</mgrwt>
</event>
<event>
 5    1  0.2718303E+000  0.9101822E+02  0.7818608E-02  0.1300405E+00
          1   -1    0    0  501    0  0.00000000000E+00  0.00000000000E+00  0.44146730276E+02  0.44146730523E+02  0.46700000000E-02 0. -1.
         -1   -1    0    0    0  501 -0.00000000000E+00 -0.00000000000E+00 -0.46913528214E+02  0.46913528446E+02  0.46700000000E-02 0.  1.
         23    2    1    2    0    0  0.00000000000E+00  0.00000000000E+00 -0.27667979374E+01  0.91060258969E+02  0.91018215719E+02 0.  0.
        -11    1    3    3    0    0  0.34410030527E+02  0.19613216475E+01 -0.31115503232E+02  0.46433517260E+02  0.51100000000E-03 0. -1.
         11    1    3    3    0    0 -0.34410030527E+02 -0.19613216475E+01  0.28348705294E+02  0.44626741710E+02  0.51100000000E-03 0.  1.
<mgrwt>
<rscale>  0 0.91018216E+02</rscale>
<asrwt>0</asrwt>
<pdfrwt beam="1">  1        1 0.67918048E-02 0.91018216E+02</pdfrwt>
<pdfrwt beam="2">  1       -1 0.72174658E-02 0.91018216E+02</pdfrwt>
<totfact> 0.92478096E+04</totfact>
</mgrwt>
</event>
<event>
 5    1  0.2718303E+000  0.9160015E+02  0.7818608E-02  0.1299022E+00
          1   -1    0    0  501    0  0.00000000000E+00  0.00000000000E+00  0.10286986646E+02  0.10286987706E+02  0.46700000000E-02 0. -1.
         -1   -1    0    0    0  501 -0.00000000000E+00 -0.00000000000E+00 -0.20391264967E+03  0.20391264972E+03  0.46700000000E-02 0.  1.
         23    2    1    2    0    0  0.00000000000E+00  0.00000000000E+00 -0.19362566303E+03  0.21419963743E+03  0.91600148980E+02 0.  0.
        -11    1    3    3    0    0 -0.37126450438E+02  0.13244044909E+02 -0.42278547670E+02  0.57803578099E+02  0.51100000000E-03 0.  1.
         11    1    3    3    0    0  0.37126450438E+02 -0.13244044909E+02 -0.15134711536E+03  0.15639605933E+03  0.51100000000E-03 0. -1.
<mgrwt>
<rscale>  0 0.91600149E+02</rscale>
<asrwt>0</asrwt>
<pdfrwt beam="1">  1        1 0.15826136E-02 0.91600149E+02</pdfrwt>
<pdfrwt beam="2">  1       -1 0.31371174E-01 0.91600149E+02</pdfrwt>
<totfact> 0.68208991E+04</totfact>
</mgrwt>
</event>
<event>
 5    1  0.2718303E+000  0.9141789E+02  0.7818608E-02  0.1299454E+00
          1   -1    0    0  501    0  0.00000000000E+00  0.00000000000E+00  0.14772164818E+02  0.14772165556E+02  0.46700000000E-02 0. -1.
         -1   -1    0    0    0  501 -0.00000000000E+00 -0.00000000000E+00 -0.14143545018E+03  0.14143545026E+03  0.46700000000E-02 0.  1.
         23    2    1    2    0    0  0.00000000000E+00  0.00000000000E+00 -0.12666328537E+03  0.15620761582E+03  0.91417894199E+02 0.  0.
        -11    1    3    3    0    0 -0.67788997818E+01  0.44469944130E+02 -0.49473253692E+02  0.66866525589E+02  0.51100000000E-03 0.  1.
         11    1    3    3    0    0  0.67788997818E+01 -0.44469944130E+02 -0.77190031675E+02  0.89341090229E+02  0.51100000000E-03 0. -1.
<mgrwt>
<rscale>  0 0.91417894E+02</rscale>
<asrwt>0</asrwt>
<pdfrwt beam="1">  1        1 0.22726409E-02 0.91417894E+02</pdfrwt>
<pdfrwt beam="2">  1       -1 0.21759299E-01 0.91417894E+02</pdfrwt>
<totfact> 0.75288193E+04</totfact>
</mgrwt>
</event>
<event>
 5    1  0.2718303E+000  0.9120009E+02  0.7818608E-02  0.1299971E+00
         -1   -1    0    0    0  501 -0.00000000000E+00  0.00000000000E+00  0.15493624845E+02  0.15493625549E+02  0.46700000000E-02 0.  1.
          1   -1    0    0  501    0  0.00000000000E+00 -0.00000000000E+00 -0.13420770462E+03  0.13420770470E+03  0.46700000000E-02 0. -1.
         23    2    1    2    0    0  0.00000000000E+00  0.00000000000E+00 -0.11871407978E+03  0.14970133025E+03  0.91200085208E+02 0.  0.
        -11    1    3    3    0    0  0.33403996099E+02 -0.23587414644E+02 -0.26234873982E+02  0.48584582927E+02  0.51100000000E-03 0.  1.
         11    1    3    3    0    0 -0.33403996099E+02  0.23587414644E+02 -0.92479205796E+02  0.10111674733E+03  0.51100000000E-03 0. -1.
<mgrwt>
<rscale>  0 0.91200085E+02</rscale>
<asrwt>0</asrwt>
<pdfrwt beam="2">  1        1 0.20647338E-01 0.91200085E+02</pdfrwt>
<pdfrwt beam="1">  1       -1 0.23836347E-02 0.91200085E+02</pdfrwt>
<totfact> 0.10981458E+05</totfact>
</mgrwt>
</event>
<event>
 5    1  0.2718303E+000  0.8912669E+02  0.7818608E-02  0.1304980E+00
          1   -1    0    0  501    0  0.00000000000E+00  0.00000000000E+00  0.21448814649E+02  0.21448815157E+02  0.46700000000E-02 0. -1.
         -1   -1    0    0    0  501 -0.00000000000E+00 -0.00000000000E+00 -0.92587474472E+02  0.92587474589E+02  0.46700000000E-02 0.  1.
         23    2    1    2    0    0  0.00000000000E+00  0.00000000000E+00 -0.71138659823E+02  0.11403628975E+03  0.89126687685E+02 0.  0.
        -11    1    3    3    0    0 -0.12655927266E+02 -0.24438159879E+02 -0.80415162383E+02  0.84994085057E+02  0.51100000000E-03 0.  1.
         11    1    3    3    0    0  0.12655927266E+02  0.24438159879E+02  0.92765025605E+01  0.29042204690E+02  0.51100000000E-03 0. -1.
<mgrwt>
<rscale>  0 0.89126688E+02</rscale>
<asrwt>0</asrwt>
<pdfrwt beam="1">  1        1 0.32998177E-02 0.89126688E+02</pdfrwt>
<pdfrwt beam="2">  1       -1 0.14244227E-01 0.89126688E+02</pdfrwt>
<totfact> 0.87484899E+04</totfact>
</mgrwt>
</event>
<event>
 5    1  0.2718303E+000  0.8737056E+02  0.7818608E-02  0.1309347E+00
          1   -1    0    0  501    0  0.00000000000E+00  0.00000000000E+00  0.15026755569E+03  0.15026755576E+03  0.46700000000E-02 0. -1.
         -1   -1    0    0    0  501 -0.00000000000E+00 -0.00000000000E+00 -0.12700038744E+02  0.12700039603E+02  0.46700000000E-02 0.  1.
         23    2    1    2    0    0  0.00000000000E+00  0.00000000000E+00  0.13756751695E+03  0.16296759537E+03  0.87370563811E+02 0.  0.
        -11    1    3    3    0    0 -0.21759723789E+02  0.23072521952E+02  0.12482119396E+03  0.12878725601E+03  0.51100000000E-03 0. -1.
         11    1    3    3    0    0  0.21759723789E+02 -0.23072521952E+02  0.12746322986E+02  0.34180339356E+02  0.51100000000E-03 0.  1.
<mgrwt>
<rscale>  0 0.87370564E+02</rscale>
<asrwt>0</asrwt>
<pdfrwt beam="1">  1        1 0.23118086E-01 0.87370564E+02</pdfrwt>
<pdfrwt beam="2">  1       -1 0.19538522E-02 0.87370564E+02</pdfrwt>
<totfact> 0.12579734E+05</totfact>
</mgrwt>
</event>
<event>
 5    1  0.2718303E+000  0.9032395E+02  0.7818608E-02  0.1302069E+00
          1   -1    0    0  501    0  0.00000000000E+00  0.00000000000E+00  0.15857008010E+03  0.15857008017E+03  0.46700000000E-02 0. -1.
         -1   -1    0    0    0  501 -0.00000000000E+00 -0.00000000000E+00 -0.12862477483E+02  0.12862478331E+02  0.46700000000E-02 0.  1.
         23    2    1    2    0    0  0.00000000000E+00  0.00000000000E+00  0.14570760262E+03  0.17143255850E+03  0.90323953929E+02 0.  0.
        -11    1    3    3    0    0  0.38534073602E+02  0.19449802738E+01  0.11740352714E+03  0.12358092879E+03  0.51100000000E-03 0. -1.
         11    1    3    3    0    0 -0.38534073602E+02 -0.19449802738E+01  0.28304075478E+02  0.47851629706E+02  0.51100000000E-03 0.  1.
<mgrwt>
<rscale>  0 0.90323954E+02</rscale>
<asrwt>0</asrwt>
<pdfrwt beam="1">  1        1 0.24395397E-01 0.90323954E+02</pdfrwt>
<pdfrwt beam="2">  1       -1 0.19788428E-02 0.90323954E+02</pdfrwt>
<totfact> 0.11619271E+05</totfact>
</mgrwt>
</event>
<event>
 5    1  0.2718303E+000  0.9060595E+02  0.7818608E-02  0.1301391E+00
          1   -1    0    0  501    0  0.00000000000E+00  0.00000000000E+00  0.65714010356E+01  0.65714026950E+01  0.46700000000E-02 0. -1.
         -1   -1    0    0    0  501 -0.00000000000E+00 -0.00000000000E+00 -0.31231682538E+03  0.31231682541E+03  0.46700000000E-02 0.  1.
         23    2    1    2    0    0  0.00000000000E+00  0.00000000000E+00 -0.30574542434E+03  0.31888822811E+03  0.90605946381E+02 0.  0.
        -11    1    3    3    0    0  0.28291003718E+02  0.34190361969E+02 -0.18493648697E+03  0.19018639792E+03  0.51100000000E-03 0.  1.
         11    1    3    3    0    0 -0.28291003718E+02 -0.34190361969E+02 -0.12080893737E+03  0.12870183018E+03  0.51100000000E-03 0. -1.
<mgrwt>
<rscale>  0 0.90605946E+02</rscale>
<asrwt>0</asrwt>
<pdfrwt beam="1">  1        1 0.10109851E-02 0.90605946E+02</pdfrwt>
<pdfrwt beam="2">  1       -1 0.48048731E-01 0.90605946E+02</pdfrwt>
<totfact> 0.60605495E+04</totfact>
</mgrwt>
</event>
<event>
 5    1  0.2718303E+000  0.9178675E+02  0.7818608E-02  0.1298582E+00
          1   -1    0    0  501    0  0.00000000000E+00  0.00000000000E+00  0.48718504382E+03  0.48718504384E+03  0.46700000000E-02 0. -1.
         -1   -1    0    0    0  501 -0.00000000000E+00 -0.00000000000E+00 -0.43232056335E+01  0.43232081558E+01  0.46700000000E-02 0.  1.
         23    2    1    2    0    0  0.00000000000E+00  0.00000000000E+00  0.48286183819E+03  0.49150825200E+03  0.91786747439E+02 0.  0.
        -11    1    3    3    0    0 -0.38977199982E+02 -0.23503475489E+02  0.27291399154E+03  0.27668336101E+03  0.51100000000E-03 0.  1.
         11    1    3    3    0    0  0.38977199982E+02  0.23503475489E+02  0.20994784664E+03  0.21482489099E+03  0.51100000000E-03 0. -1.
<mgrwt>
<rscale>  0 0.91786747E+02</rscale>
<asrwt>0</asrwt>
<pdfrwt beam="1">  1        1 0.74951545E-01 0.91786747E+02</pdfrwt>
<pdfrwt beam="2">  1       -1 0.66510876E-03 0.91786747E+02</pdfrwt>
<totfact> 0.13639346E+05</totfact>
</mgrwt>
</event>
<event>
 5    1  0.2718303E+000  0.9336288E+02  0.7818608E-02  0.1294906E+00
          1   -1    0    0  501    0  0.00000000000E+00  0.00000000000E+00  0.27815349338E+03  0.27815349341E+03  0.46700000000E-02 0. -1.
         -1   -1    0    0    0  501 -0.00000000000E+00 -0.00000000000E+00 -0.78343666670E+01  0.78343680589E+01  0.46700000000E-02 0.  1.
         23    2    1    2    0    0  0.00000000000E+00  0.00000000000E+00  0.27031912671E+03  0.28598786147E+03  0.93362876165E+02 0.  0.
        -11    1    3    3    0    0  0.46125014751E+02  0.48845290841E+01  0.15130492265E+03  0.15825471629E+03  0.51100000000E-03 0. -1.
         11    1    3    3    0    0 -0.46125014751E+02 -0.48845290841E+01  0.11901420406E+03  0.12773314518E+03  0.51100000000E-03 0.  1.
<mgrwt>
<rscale>  0 0.93362876E+02</rscale>
<asrwt>0</asrwt>
<pdfrwt beam="1">  1        1 0.42792843E-01 0.93362876E+02</pdfrwt>
<pdfrwt beam="2">  1       -1 0.12052874E-02 0.93362876E+02</pdfrwt>
<totfact> 0.11852414E+05</totfact>
</mgrwt>
</event>
<event>
 5    1  0.2718303E+000  0.8803364E+02  0.7818608E-02  0.1307685E+00
         -1   -1    0    0    0  501 -0.00000000000E+00  0.00000000000E+00  0.22203527699E+02  0.22203528190E+02  0.46700000000E-02 0.  1.
          1   -1    0    0  501    0  0.00000000000E+00 -0.00000000000E+00 -0.87260024966E+02  0.87260025091E+02  0.46700000000E-02 0. -1.
         23    2    1    2    0    0  0.00000000000E+00  0.00000000000E+00 -0.65056497268E+02  0.10946355328E+03  0.88033639367E+02 0.  0.
        -11    1    3    3    0    0 -0.22504839733E+01  0.26918343231E+02 -0.75741976255E+02  0.80414605935E+02  0.51100000000E-03 0. -1.
         11    1    3    3    0    0  0.22504839733E+01 -0.26918343231E+02  0.10685478988E+02  0.29048947346E+02  0.51100000000E-03 0.  1.
<mgrwt>
<rscale>  0 0.88033639E+02</rscale>
<asrwt>0</asrwt>
<pdfrwt beam="2">  1        1 0.13424619E-01 0.88033639E+02</pdfrwt>
<pdfrwt beam="1">  1       -1 0.34159274E-02 0.88033639E+02</pdfrwt>
<totfact> 0.11240987E+05</totfact>
</mgrwt>
</event>
<event>
 5    1  0.2718303E+000  0.9585655E+02  0.7818608E-02  0.1289258E+00
          1   -1    0    0  501    0  0.00000000000E+00  0.00000000000E+00  0.24043429778E+02  0.24043430232E+02  0.46700000000E-02 0. -1.
         -1   -1    0    0    0  501 -0.00000000000E+00 -0.00000000000E+00 -0.95540428812E+02  0.95540428926E+02  0.46700000000E-02 0.  1.
         23    2    1    2    0    0  0.00000000000E+00  0.00000000000E+00 -0.71496999033E+02  0.11958385916E+03  0.95856551682E+02 0.  0.
        -11    1    3    3    0    0  0.24745794934E+02  0.26834895282E+02  0.29983565591E+01  0.36625894038E+02  0.51100000000E-03 0. -1.
         11    1    3    3    0    0 -0.24745794934E+02 -0.26834895282E+02 -0.74495355592E+02  0.82957965120E+02  0.51100000000E-03 0.  1.
<mgrwt>
<rscale>  0 0.95856552E+02</rscale>
<asrwt>0</asrwt>
<pdfrwt beam="1">  1        1 0.36989893E-02 0.95856552E+02</pdfrwt>
<pdfrwt beam="2">  1       -1 0.14698527E-01 0.95856552E+02</pdfrwt>
<totfact> 0.72129264E+04</totfact>
</mgrwt>
</event>
<event>
 5    1  0.2718303E+000  0.8946624E+02  0.7818608E-02  0.1304149E+00
          1   -1    0    0  501    0  0.00000000000E+00  0.00000000000E+00  0.45260980353E+02  0.45260980594E+02  0.46700000000E-02 0. -1.
         -1   -1    0    0    0  501 -0.00000000000E+00 -0.00000000000E+00 -0.44211415202E+02  0.44211415449E+02  0.46700000000E-02 0.  1.
         23    2    1    2    0    0  0.00000000000E+00  0.00000000000E+00  0.10495651510E+01  0.89472396043E+02  0.89466239815E+02 0.  0.
        -11    1    3    3    0    0 -0.28219891987E+02 -0.25377067131E+02  0.24205393686E+02  0.45013985868E+02  0.51100000000E-03 0. -1.
         11    1    3    3    0    0  0.28219891987E+02  0.25377067131E+02 -0.23155828535E+02  0.44458410176E+02  0.51100000000E-03 0.  1.
<mgrwt>
<rscale>  0 0.89466240E+02</rscale>
<asrwt>0</asrwt>
<pdfrwt beam="1">  1        1 0.69632278E-02 0.89466240E+02</pdfrwt>
<pdfrwt beam="2">  1       -1 0.68017562E-02 0.89466240E+02</pdfrwt>
<totfact> 0.97405060E+04</totfact>
</mgrwt>
</event>
<event>
 5    1  0.2718303E+000  0.9095443E+02  0.7818608E-02  0.1300557E+00
          1   -1    0    0  501    0  0.00000000000E+00  0.00000000000E+00  0.22254909684E+02  0.22254910173E+02  0.46700000000E-02 0. -1.
         -1   -1    0    0    0  501 -0.00000000000E+00 -0.00000000000E+00 -0.92931278742E+02  0.92931278859E+02  0.46700000000E-02 0.  1.
         23    2    1    2    0    0  0.00000000000E+00  0.00000000000E+00 -0.70676369059E+02  0.11518618903E+03  0.90954433650E+02 0.  0.
        -11    1    3    3    0    0 -0.18409791887E+02 -0.36889502761E+02 -0.11030199555E+02  0.42678110944E+02  0.51100000000E-03 0. -1.
         11    1    3    3    0    0  0.18409791887E+02  0.36889502761E+02 -0.59646169504E+02  0.72508078088E+02  0.51100000000E-03 0.  1.
<mgrwt>
<rscale>  0 0.90954434E+02</rscale>
<asrwt>0</asrwt>
<pdfrwt beam="1">  1        1 0.34238324E-02 0.90954434E+02</pdfrwt>
<pdfrwt beam="2">  1       -1 0.14297120E-01 0.90954434E+02</pdfrwt>
<totfact> 0.82988185E+04</totfact>
</mgrwt>
</event>
<event>
 5    1  0.2718303E+000  0.9273110E+02  0.7818608E-02  0.1296370E+00
         -1   -1    0    0    0  501 -0.00000000000E+00  0.00000000000E+00  0.61324945268E+01  0.61324963049E+01  0.46700000000E-02 0.  1.
          1   -1    0    0  501    0  0.00000000000E+00 -0.00000000000E+00 -0.35055294470E+03  0.35055294474E+03  0.46700000000E-02 0. -1.
         23    2    1    2    0    0  0.00000000000E+00  0.00000000000E+00 -0.34442045018E+03  0.35668544104E+03  0.92731102386E+02 0.  0.
        -11    1    3    3    0    0 -0.32791935384E+02  0.32776380207E+02 -0.17066104921E+03  0.17684681463E+03  0.51100000000E-03 0.  1.
         11    1    3    3    0    0  0.32791935384E+02 -0.32776380207E+02 -0.17375940096E+03  0.17983862641E+03  0.51100000000E-03 0. -1.
<mgrwt>
<rscale>  0 0.92731102E+02</rscale>
<asrwt>0</asrwt>
<pdfrwt beam="2">  1        1 0.53931206E-01 0.92731102E+02</pdfrwt>
<pdfrwt beam="1">  1       -1 0.94346111E-03 0.92731102E+02</pdfrwt>
<totfact> 0.12606578E+05</totfact>
</mgrwt>
</event>
<event>
 5    1  0.2718303E+000  0.9118295E+02  0.7818608E-02  0.1300012E+00
          1   -1    0    0  501    0  0.00000000000E+00  0.00000000000E+00  0.25554627368E+02  0.25554627795E+02  0.46700000000E-02 0. -1.
         -1   -1    0    0    0  501 -0.00000000000E+00 -0.00000000000E+00 -0.81338794455E+02  0.81338794589E+02  0.46700000000E-02 0.  1.
         23    2    1    2    0    0  0.00000000000E+00  0.00000000000E+00 -0.55784167086E+02  0.10689342238E+03  0.91182950443E+02 0.  0.
        -11    1    3    3    0    0 -0.12179197697E+02 -0.13263985969E+02 -0.76993193189E+02  0.79070967984E+02  0.51100000000E-03 0.  1.
         11    1    3    3    0    0  0.12179197697E+02  0.13263985969E+02  0.21209026102E+02  0.27822454399E+02  0.51100000000E-03 0. -1.
<mgrwt>
<rscale>  0 0.91182950E+02</rscale>
<asrwt>0</asrwt>
<pdfrwt beam="1">  1        1 0.39314812E-02 0.91182950E+02</pdfrwt>
<pdfrwt beam="2">  1       -1 0.12513661E-01 0.91182950E+02</pdfrwt>
<totfact> 0.84398181E+04</totfact>
</mgrwt>
</event>
<event>
 5    1  0.2718303E+000  0.9033493E+02  0.7818608E-02  0.1302043E+00
          1   -1    0    0  501    0  0.00000000000E+00  0.00000000000E+00  0.43550145950E+02  0.43550146200E+02  0.46700000000E-02 0. -1.
         -1   -1    0    0    0  501 -0.00000000000E+00 -0.00000000000E+00 -0.46844846375E+02  0.46844846608E+02  0.46700000000E-02 0.  1.
         23    2    1    2    0    0  0.00000000000E+00  0.00000000000E+00 -0.32947004251E+01  0.90394992808E+02  0.90334930530E+02 0.  0.
        -11    1    3    3    0    0 -0.25572954799E+02 -0.99929078910E+01 -0.37535742448E+02  0.46505550063E+02  0.51100000000E-03 0.  1.
         11    1    3    3    0    0  0.25572954799E+02  0.99929078910E+01  0.34241042023E+02  0.43889442744E+02  0.51100000000E-03 0. -1.
<mgrwt>
<rscale>  0 0.90334931E+02</rscale>
<asrwt>0</asrwt>
<pdfrwt beam="1">  1        1 0.67000225E-02 0.90334931E+02</pdfrwt>
<pdfrwt beam="2">  1       -1 0.72068995E-02 0.90334931E+02</pdfrwt>
<totfact> 0.94262232E+04</totfact>
</mgrwt>
</event>
<event>
 5    1  0.2718303E+000  0.5465836E+02  0.7818608E-02  0.1421721E+00
          1   -1    0    0  501    0  0.00000000000E+00  0.00000000000E+00  0.54367058431E+01  0.54367078488E+01  0.46700000000E-02 0. -1.
         -1   -1    0    0    0  501 -0.00000000000E+00 -0.00000000000E+00 -0.13737804570E+03  0.13737804578E+03  0.46700000000E-02 0.  1.
         23    2    1    2    0    0  0.00000000000E+00  0.00000000000E+00 -0.13194133986E+03  0.14281475363E+03  0.54658363410E+02 0.  0.
        -11    1    3    3    0    0  0.26331921267E+02  0.28112041744E+01 -0.48324424155E+02  0.55104654220E+02  0.51100000000E-03 0. -1.
         11    1    3    3    0    0 -0.26331921267E+02 -0.28112041744E+01 -0.83616915703E+02  0.87710099410E+02  0.51100000000E-03 0.  1.
<mgrwt>
<rscale>  0 0.54658363E+02</rscale>
<asrwt>0</asrwt>
<pdfrwt beam="1">  1        1 0.83641654E-03 0.54658363E+02</pdfrwt>
<pdfrwt beam="2">  1       -1 0.21135082E-01 0.54658363E+02</pdfrwt>
<totfact> 0.28114264E+05</totfact>
</mgrwt>
</event>
<event>
 5    1  0.2718303E+000  0.9039527E+02  0.7818608E-02  0.1301897E+00
          1   -1    0    0  501    0  0.00000000000E+00  0.00000000000E+00  0.12282404365E+03  0.12282404374E+03  0.46700000000E-02 0. -1.
         -1   -1    0    0    0  501 -0.00000000000E+00 -0.00000000000E+00 -0.16632137125E+02  0.16632137781E+02  0.46700000000E-02 0.  1.
         23    2    1    2    0    0  0.00000000000E+00  0.00000000000E+00  0.10619190653E+03  0.13945618152E+03  0.90395273951E+02 0.  0.
        -11    1    3    3    0    0  0.70758042013E+01 -0.40711800626E+02  0.24846214412E+02  0.48216719986E+02  0.51100000000E-03 0.  1.
         11    1    3    3    0    0 -0.70758042013E+01  0.40711800626E+02  0.81345692115E+02  0.91239461535E+02  0.51100000000E-03 0. -1.
<mgrwt>
<rscale>  0 0.90395274E+02</rscale>
<asrwt>0</asrwt>
<pdfrwt beam="1">  1        1 0.18896006E-01 0.90395274E+02</pdfrwt>
<pdfrwt beam="2">  1       -1 0.25587905E-02 0.90395274E+02</pdfrwt>
<totfact> 0.11072796E+05</totfact>
</mgrwt>
</event>
<event>
 5    1  0.2718303E+000  0.8201993E+02  0.7818608E-02  0.1323415E+00
         -1   -1    0    0    0  501 -0.00000000000E+00  0.00000000000E+00  0.12246467432E+03  0.12246467441E+03  0.46700000000E-02 0.  1.
          1   -1    0    0  501    0  0.00000000000E+00 -0.00000000000E+00 -0.13733079555E+02  0.13733080349E+02  0.46700000000E-02 0. -1.
         23    2    1    2    0    0  0.00000000000E+00  0.00000000000E+00  0.10873159477E+03  0.13619775476E+03  0.82019928682E+02 0.  0.
        -11    1    3    3    0    0  0.34100440017E+02  0.12896019503E+02  0.85550005874E+02  0.92994359149E+02  0.51100000000E-03 0.  1.
         11    1    3    3    0    0 -0.34100440017E+02 -0.12896019503E+02  0.23181588892E+02  0.43203395609E+02  0.51100000000E-03 0. -1.
<mgrwt>
<rscale>  0 0.82019929E+02</rscale>
<asrwt>0</asrwt>
<pdfrwt beam="2">  1        1 0.21127815E-02 0.82019929E+02</pdfrwt>
<pdfrwt beam="1">  1       -1 0.18840720E-01 0.82019929E+02</pdfrwt>
<totfact> 0.10274080E+05</totfact>
</mgrwt>
</event>
<event>
 5    1  0.2718303E+000  0.9245732E+02  0.7818608E-02  0.1297008E+00
         -1   -1    0    0    0  501 -0.00000000000E+00  0.00000000000E+00  0.68414097312E+02  0.68414097472E+02  0.46700000000E-02 0.  1.
          1   -1    0    0  501    0  0.00000000000E+00 -0.00000000000E+00 -0.31237554659E+02  0.31237555008E+02  0.46700000000E-02 0. -1.
         23    2    1    2    0    0  0.00000000000E+00  0.00000000000E+00  0.37176542654E+02  0.99651652480E+02  0.92457322686E+02 0.  0.
        -11    1    3    3    0    0  0.29435721854E+02  0.50287194351E+00 -0.19827457771E+02  0.35494262680E+02  0.51100000000E-03 0. -1.
         11    1    3    3    0    0 -0.29435721854E+02 -0.50287194351E+00  0.57004000425E+02  0.64157389800E+02  0.51100000000E-03 0.  1.
<mgrwt>
<rscale>  0 0.92457323E+02</rscale>
<asrwt>0</asrwt>
<pdfrwt beam="2">  1        1 0.48057777E-02 0.92457323E+02</pdfrwt>
<pdfrwt beam="1">  1       -1 0.10525246E-01 0.92457323E+02</pdfrwt>
<totfact> 0.83824618E+04</totfact>
</mgrwt>
</event>
<event>
 5    1  0.2718303E+000  0.9203047E+02  0.7818608E-02  0.1298008E+00
         -1   -1    0    0    0  501 -0.00000000000E+00  0.00000000000E+00  0.30924617825E+02  0.30924618177E+02  0.46700000000E-02 0.  1.
          1   -1    0    0  501    0  0.00000000000E+00 -0.00000000000E+00 -0.68469781033E+02  0.68469781192E+02  0.46700000000E-02 0. -1.
         23    2    1    2    0    0  0.00000000000E+00  0.00000000000E+00 -0.37545163208E+02  0.99394399370E+02  0.92030469659E+02 0.  0.
        -11    1    3    3    0    0 -0.50465359728E+01 -0.26557704774E+02  0.21444394846E+02  0.34505670241E+02  0.51100000000E-03 0.  1.
         11    1    3    3    0    0  0.50465359728E+01  0.26557704774E+02 -0.58989558054E+02  0.64888729129E+02  0.51100000000E-03 0. -1.
<mgrwt>
<rscale>  0 0.92030470E+02</rscale>
<asrwt>0</asrwt>
<pdfrwt beam="2">  1        1 0.10533812E-01 0.92030470E+02</pdfrwt>
<pdfrwt beam="1">  1       -1 0.47576336E-02 0.92030470E+02</pdfrwt>
<totfact> 0.95830547E+04</totfact>
</mgrwt>
</event>
<event>
 5    1  0.2718303E+000  0.8856892E+02  0.7818608E-02  0.1306355E+00
          1   -1    0    0  501    0  0.00000000000E+00  0.00000000000E+00  0.29691748417E+03  0.29691748421E+03  0.46700000000E-02 0. -1.
         -1   -1    0    0    0  501 -0.00000000000E+00 -0.00000000000E+00 -0.66049088924E+01  0.66049105434E+01  0.46700000000E-02 0.  1.
         23    2    1    2    0    0  0.00000000000E+00  0.00000000000E+00  0.29031257528E+03  0.30352239475E+03  0.88568915262E+02 0.  0.
        -11    1    3    3    0    0 -0.43163736479E+02  0.78820010339E+00  0.17897466228E+03  0.18410773788E+03  0.51100000000E-03 0.  1.
         11    1    3    3    0    0  0.43163736479E+02 -0.78820010339E+00  0.11133791300E+03  0.11941465688E+03  0.51100000000E-03 0. -1.
<mgrwt>
<rscale>  0 0.88568915E+02</rscale>
<asrwt>0</asrwt>
<pdfrwt beam="1">  1        1 0.45679618E-01 0.88568915E+02</pdfrwt>
<pdfrwt beam="2">  1       -1 0.10161399E-02 0.88568915E+02</pdfrwt>
<totfact> 0.13812908E+05</totfact>
</mgrwt>
</event>
<event>
 5    1  0.2718303E+000  0.9256511E+02  0.7818608E-02  0.1296756E+00
          1   -1    0    0  501    0  0.00000000000E+00  0.00000000000E+00  0.60760085128E+02  0.60760085308E+02  0.46700000000E-02 0. -1.
         -1   -1    0    0    0  501 -0.00000000000E+00 -0.00000000000E+00 -0.35254641404E+02  0.35254641713E+02  0.46700000000E-02 0.  1.
         23    2    1    2    0    0  0.00000000000E+00  0.00000000000E+00  0.25505443724E+02  0.96014727021E+02  0.92565113004E+02 0.  0.
        -11    1    3    3    0    0  0.48230784898E+01  0.23716065411E+02 -0.28168228590E+02  0.37137083177E+02  0.51100000000E-03 0.  1.
         11    1    3    3    0    0 -0.48230784898E+01 -0.23716065411E+02  0.53673672315E+02  0.58877643844E+02  0.51100000000E-03 0. -1.
<mgrwt>
<rscale>  0 0.92565113E+02</rscale>
<asrwt>0</asrwt>
<pdfrwt beam="1">  1        1 0.93477053E-02 0.92565113E+02</pdfrwt>
<pdfrwt beam="2">  1       -1 0.54237911E-02 0.92565113E+02</pdfrwt>
<totfact> 0.92585380E+04</totfact>
</mgrwt>
</event>
<event>
 5    1  0.2718303E+000  0.9331382E+02  0.7818608E-02  0.1295020E+00
         -1   -1    0    0    0  501 -0.00000000000E+00  0.00000000000E+00  0.11475134197E+02  0.11475135148E+02  0.46700000000E-02 0.  1.
          1   -1    0    0  501    0  0.00000000000E+00 -0.00000000000E+00 -0.18970299138E+03  0.18970299144E+03  0.46700000000E-02 0. -1.
         23    2    1    2    0    0  0.00000000000E+00  0.00000000000E+00 -0.17822785719E+03  0.20117812659E+03  0.93313822880E+02 0.  0.
        -11    1    3    3    0    0 -0.25867605288E+02  0.36662716279E+02 -0.11668790316E+03  0.12501741683E+03  0.51100000000E-03 0. -1.
         11    1    3    3    0    0  0.25867605288E+02 -0.36662716279E+02 -0.61539954031E+02  0.76160709757E+02  0.51100000000E-03 0.  1.
<mgrwt>
<rscale>  0 0.93313823E+02</rscale>
<asrwt>0</asrwt>
<pdfrwt beam="2">  1        1 0.29185073E-01 0.93313823E+02</pdfrwt>
<pdfrwt beam="1">  1       -1 0.17654055E-02 0.93313823E+02</pdfrwt>
<totfact> 0.11012092E+05</totfact>
</mgrwt>
</event>
<event>
 5    1  0.2718303E+000  0.9310901E+02  0.7818608E-02  0.1295493E+00
         -1   -1    0    0    0  501 -0.00000000000E+00  0.00000000000E+00  0.11183228982E+03  0.11183228992E+03  0.46700000000E-02 0.  1.
          1   -1    0    0  501    0  0.00000000000E+00 -0.00000000000E+00 -0.19380109197E+02  0.19380109760E+02  0.46700000000E-02 0. -1.
         23    2    1    2    0    0  0.00000000000E+00  0.00000000000E+00  0.92452180625E+02  0.13121239968E+03  0.93109012062E+02 0.  0.
        -11    1    3    3    0    0  0.13205301255E+02  0.18260051234E+02  0.10363422474E+03  0.10605593802E+03  0.51100000000E-03 0.  1.
         11    1    3    3    0    0 -0.13205301255E+02 -0.18260051234E+02 -0.11182044113E+02  0.25156461657E+02  0.51100000000E-03 0. -1.
<mgrwt>
<rscale>  0 0.93109012E+02</rscale>
<asrwt>0</asrwt>
<pdfrwt beam="2">  1        1 0.29815553E-02 0.93109012E+02</pdfrwt>
<pdfrwt beam="1">  1       -1 0.17204968E-01 0.93109012E+02</pdfrwt>
<totfact> 0.75446429E+04</totfact>
</mgrwt>
</event>
<event>
 5    1  0.2718303E+000  0.9085149E+02  0.7818608E-02  0.1300803E+00
         -1   -1    0    0    0  501 -0.00000000000E+00  0.00000000000E+00  0.14866163666E+02  0.14866164399E+02  0.46700000000E-02 0.  1.
          1   -1    0    0  501    0  0.00000000000E+00 -0.00000000000E+00 -0.13880503022E+03  0.13880503030E+03  0.46700000000E-02 0. -1.
         23    2    1    2    0    0  0.00000000000E+00  0.00000000000E+00 -0.12393886656E+03  0.15367119470E+03  0.90851491111E+02 0.  0.
        -11    1    3    3    0    0  0.15658531237E+02 -0.41584121774E+02 -0.77932822312E+02  0.89710387235E+02  0.51100000000E-03 0. -1.
         11    1    3    3    0    0 -0.15658531237E+02  0.41584121774E+02 -0.46006044244E+02  0.63960807463E+02  0.51100000000E-03 0.  1.
<mgrwt>
<rscale>  0 0.90851491E+02</rscale>
<asrwt>0</asrwt>
<pdfrwt beam="2">  1        1 0.21354619E-01 0.90851491E+02</pdfrwt>
<pdfrwt beam="1">  1       -1 0.22871023E-02 0.90851491E+02</pdfrwt>
<totfact> 0.11163141E+05</totfact>
</mgrwt>
</event>
<event>
 5    1  0.2718303E+000  0.9047760E+02  0.7818608E-02  0.1301699E+00
         -1   -1    0    0    0  501 -0.00000000000E+00  0.00000000000E+00  0.19873428199E+02  0.19873428747E+02  0.46700000000E-02 0.  1.
          1   -1    0    0  501    0  0.00000000000E+00 -0.00000000000E+00 -0.10297916148E+03  0.10297916158E+03  0.46700000000E-02 0. -1.
         23    2    1    2    0    0  0.00000000000E+00  0.00000000000E+00 -0.83105733279E+02  0.12285259033E+03  0.90477599698E+02 0.  0.
        -11    1    3    3    0    0 -0.17851898140E+02  0.24721067588E+02  0.38221570592E+01  0.30731585295E+02  0.51100000000E-03 0.  1.
         11    1    3    3    0    0  0.17851898140E+02 -0.24721067588E+02 -0.86927890338E+02  0.92121005036E+02  0.51100000000E-03 0. -1.
<mgrwt>
<rscale>  0 0.90477600E+02</rscale>
<asrwt>0</asrwt>
<pdfrwt beam="2">  1        1 0.15842948E-01 0.90477600E+02</pdfrwt>
<pdfrwt beam="1">  1       -1 0.30574506E-02 0.90477600E+02</pdfrwt>
<totfact> 0.10718651E+05</totfact>
</mgrwt>
</event>
<event>
 5    1  0.2718303E+000  0.9097964E+02  0.7818608E-02  0.1300497E+00
         -1   -1    0    0    0  501 -0.00000000000E+00  0.00000000000E+00  0.12309998581E+03  0.12309998590E+03  0.46700000000E-02 0.  1.
          1   -1    0    0  501    0  0.00000000000E+00 -0.00000000000E+00 -0.16810103124E+02  0.16810103773E+02  0.46700000000E-02 0. -1.
         23    2    1    2    0    0  0.00000000000E+00  0.00000000000E+00  0.10628988268E+03  0.13991008967E+03  0.90979635250E+02 0.  0.
        -11    1    3    3    0    0 -0.36013762680E+02 -0.82800239187E+01  0.12348589177E+02  0.38962001404E+02  0.51100000000E-03 0. -1.
         11    1    3    3    0    0  0.36013762680E+02  0.82800239187E+01  0.93941293506E+02  0.10094808826E+03  0.51100000000E-03 0.  1.
<mgrwt>
<rscale>  0 0.90979635E+02</rscale>
<asrwt>0</asrwt>
<pdfrwt beam="2">  1        1 0.25861697E-02 0.90979635E+02</pdfrwt>
<pdfrwt beam="1">  1       -1 0.18938460E-01 0.90979635E+02</pdfrwt>
<totfact> 0.78557875E+04</totfact>
</mgrwt>
</event>
<event>
 5    1  0.2718303E+000  0.8495529E+02  0.7818608E-02  0.1315550E+00
          1   -1    0    0  501    0  0.00000000000E+00  0.00000000000E+00  0.12050852222E+03  0.12050852231E+03  0.46700000000E-02 0. -1.
         -1   -1    0    0    0  501 -0.00000000000E+00 -0.00000000000E+00 -0.14972800896E+02  0.14972801625E+02  0.46700000000E-02 0.  1.
         23    2    1    2    0    0  0.00000000000E+00  0.00000000000E+00  0.10553572133E+03  0.13548132394E+03  0.84955286240E+02 0.  0.
        -11    1    3    3    0    0  0.34056553615E+02 -0.12594574203E+00  0.93252995105E+02  0.99277317665E+02  0.51100000000E-03 0. -1.
         11    1    3    3    0    0 -0.34056553615E+02  0.12594574203E+00  0.12282726221E+02  0.36204006272E+02  0.51100000000E-03 0.  1.
<mgrwt>
<rscale>  0 0.84955286E+02</rscale>
<asrwt>0</asrwt>
<pdfrwt beam="1">  1        1 0.18539773E-01 0.84955286E+02</pdfrwt>
<pdfrwt beam="2">  1       -1 0.23035079E-02 0.84955286E+02</pdfrwt>
<totfact> 0.13047005E+05</totfact>
</mgrwt>
</event>
<event>
 5    1  0.2718303E+000  0.9682846E+02  0.7818608E-02  0.1287110E+00
          1   -1    0    0  501    0  0.00000000000E+00  0.00000000000E+00  0.17779493534E+02  0.17779494148E+02  0.46700000000E-02 0. -1.
         -1   -1    0    0    0  501 -0.00000000000E+00 -0.00000000000E+00 -0.13183375883E+03  0.13183375891E+03  0.46700000000E-02 0.  1.
         23    2    1    2    0    0  0.00000000000E+00  0.00000000000E+00 -0.11405426530E+03  0.14961325306E+03  0.96828456867E+02 0.  0.
        -11    1    3    3    0    0 -0.11828381991E+02  0.31025931220E+02 -0.25861244435E+01  0.33304760448E+02  0.51100000000E-03 0. -1.
         11    1    3    3    0    0  0.11828381991E+02 -0.31025931220E+02 -0.11146814085E+03  0.11630849261E+03  0.51100000000E-03 0.  1.
<mgrwt>
<rscale>  0 0.96828457E+02</rscale>
<asrwt>0</asrwt>
<pdfrwt beam="1">  1        1 0.27353068E-02 0.96828457E+02</pdfrwt>
<pdfrwt beam="2">  1       -1 0.20282116E-01 0.96828457E+02</pdfrwt>
<totfact> 0.65866897E+04</totfact>
</mgrwt>
</event>
<event>
 5    1  0.2718303E+000  0.9001743E+02  0.7818608E-02  0.1302809E+00
         -1   -1    0    0    0  501 -0.00000000000E+00  0.00000000000E+00  0.97801120811E+02  0.97801120923E+02  0.46700000000E-02 0.  1.
          1   -1    0    0  501    0  0.00000000000E+00 -0.00000000000E+00 -0.20713303440E+02  0.20713303966E+02  0.46700000000E-02 0. -1.
         23    2    1    2    0    0  0.00000000000E+00  0.00000000000E+00  0.77087817371E+02  0.11851442489E+03  0.90017427866E+02 0.  0.
        -11    1    3    3    0    0 -0.40572120098E+02 -0.19485481443E+02  0.38466989421E+02  0.59207180237E+02  0.51100000000E-03 0. -1.
         11    1    3    3    0    0  0.40572120098E+02  0.19485481443E+02  0.38620827950E+02  0.59307244651E+02  0.51100000000E-03 0.  1.
<mgrwt>
<rscale>  0 0.90017428E+02</rscale>
<asrwt>0</asrwt>
<pdfrwt beam="2">  1        1 0.31866622E-02 0.90017428E+02</pdfrwt>
<pdfrwt beam="1">  1       -1 0.15046326E-01 0.90017428E+02</pdfrwt>
<totfact> 0.84439287E+04</totfact>
</mgrwt>
</event>
<event>
 5    1  0.2718303E+000  0.9038876E+02  0.7818608E-02  0.1301913E+00
          1   -1    0    0  501    0  0.00000000000E+00  0.00000000000E+00  0.47907273980E+02  0.47907274208E+02  0.46700000000E-02 0. -1.
         -1   -1    0    0    0  501 -0.00000000000E+00 -0.00000000000E+00 -0.42635115768E+02  0.42635116024E+02  0.46700000000E-02 0.  1.
         23    2    1    2    0    0  0.00000000000E+00  0.00000000000E+00  0.52721582118E+01  0.90542390232E+02  0.90388764660E+02 0.  0.
        -11    1    3    3    0    0  0.38668442432E+02 -0.83954339758E+01  0.24508951991E+02  0.46544822266E+02  0.51100000000E-03 0. -1.
         11    1    3    3    0    0 -0.38668442432E+02  0.83954339758E+01 -0.19236793779E+02  0.43997567966E+02  0.51100000000E-03 0.  1.
<mgrwt>
<rscale>  0 0.90388765E+02</rscale>
<asrwt>0</asrwt>
<pdfrwt beam="1">  1        1 0.73703499E-02 0.90388765E+02</pdfrwt>
<pdfrwt beam="2">  1       -1 0.65592486E-02 0.90388765E+02</pdfrwt>
<totfact> 0.95453669E+04</totfact>
</mgrwt>
</event>
<event>
 5    1  0.2718303E+000  0.9072459E+02  0.7818608E-02  0.1301106E+00
         -1   -1    0    0    0  501 -0.00000000000E+00  0.00000000000E+00  0.15912670486E+02  0.15912671171E+02  0.46700000000E-02 0.  1.
          1   -1    0    0  501    0  0.00000000000E+00 -0.00000000000E+00 -0.12931442664E+03  0.12931442672E+03  0.46700000000E-02 0. -1.
         23    2    1    2    0    0  0.00000000000E+00  0.00000000000E+00 -0.11340175615E+03  0.14522709790E+03  0.90724592389E+02 0.  0.
        -11    1    3    3    0    0  0.11447159056E+02  0.37250672838E+02 -0.19534315155E+02  0.43591737132E+02  0.51100000000E-03 0.  1.
         11    1    3    3    0    0 -0.11447159056E+02 -0.37250672838E+02 -0.93867441000E+02  0.10163536076E+03  0.51100000000E-03 0. -1.
<mgrwt>
<rscale>  0 0.90724592E+02</rscale>
<asrwt>0</asrwt>
<pdfrwt beam="2">  1        1 0.19894527E-01 0.90724592E+02</pdfrwt>
<pdfrwt beam="1">  1       -1 0.24481033E-02 0.90724592E+02</pdfrwt>
<totfact> 0.11064294E+05</totfact>
</mgrwt>
</event>
<event>
 5    1  0.2718303E+000  0.9094510E+02  0.7818608E-02  0.1300579E+00
         -1   -1    0    0    0  501 -0.00000000000E+00  0.00000000000E+00  0.11033640124E+02  0.11033641112E+02  0.46700000000E-02 0. -1.
          1   -1    0    0  501    0  0.00000000000E+00 -0.00000000000E+00 -0.18740438425E+03  0.18740438431E+03  0.46700000000E-02 0.  1.
         23    2    1    2    0    0  0.00000000000E+00  0.00000000000E+00 -0.17637074413E+03  0.19843802542E+03  0.90945096346E+02 0.  0.
        -11    1    3    3    0    0 -0.37232952674E+01 -0.42481861126E+02 -0.53742192747E+02  0.68606083797E+02  0.51100000000E-03 0. -1.
         11    1    3    3    0    0  0.37232952674E+01  0.42481861126E+02 -0.12262855138E+03  0.12983194162E+03  0.51100000000E-03 0.  1.
<mgrwt>
<rscale>  0 0.90945096E+02</rscale>
<asrwt>0</asrwt>
<pdfrwt beam="2">  1        1 0.28831442E-01 0.90945096E+02</pdfrwt>
<pdfrwt beam="1">  1       -1 0.16974833E-02 0.90945096E+02</pdfrwt>
<totfact> 0.11772886E+05</totfact>
</mgrwt>
</event>
<event>
 5    1  0.2718303E+000  0.9278359E+02  0.7818608E-02  0.1296247E+00
          1   -1    0    0  501    0  0.00000000000E+00  0.00000000000E+00  0.21977590992E+03  0.21977590997E+03  0.46700000000E-02 0. -1.
         -1   -1    0    0    0  501 -0.00000000000E+00 -0.00000000000E+00 -0.97926956510E+01  0.97926967646E+01  0.46700000000E-02 0.  1.
         23    2    1    2    0    0  0.00000000000E+00  0.00000000000E+00  0.20998321427E+03  0.22956860673E+03  0.92783591885E+02 0.  0.
        -11    1    3    3    0    0 -0.40257395520E+02  0.23048648866E+02  0.10363500760E+03  0.11354344063E+03  0.51100000000E-03 0.  1.
         11    1    3    3    0    0  0.40257395520E+02 -0.23048648866E+02  0.10634820666E+03  0.11602516610E+03  0.51100000000E-03 0. -1.
<mgrwt>
<rscale>  0 0.92783592E+02</rscale>
<asrwt>0</asrwt>
<pdfrwt beam="1">  1        1 0.33811682E-01 0.92783592E+02</pdfrwt>
<pdfrwt beam="2">  1       -1 0.15065685E-02 0.92783592E+02</pdfrwt>
<totfact> 0.11507958E+05</totfact>
</mgrwt>
</event>
<event>
 5    1  0.2718303E+000  0.8834000E+02  0.7818608E-02  0.1306922E+00
         -1   -1    0    0    0  501 -0.00000000000E+00  0.00000000000E+00  0.73383053503E+01  0.73383068362E+01  0.46700000000E-02 0.  1.
          1   -1    0    0  501    0  0.00000000000E+00 -0.00000000000E+00 -0.26586363862E+03  0.26586363866E+03  0.46700000000E-02 0. -1.
         23    2    1    2    0    0  0.00000000000E+00  0.00000000000E+00 -0.25852533327E+03  0.27320194550E+03  0.88339997064E+02 0.  0.
        -11    1    3    3    0    0  0.30838240624E+02 -0.26221892990E+02 -0.74600768390E+02  0.84875552436E+02  0.51100000000E-03 0.  1.
         11    1    3    3    0    0 -0.30838240624E+02  0.26221892990E+02 -0.18392456488E+03  0.18832639306E+03  0.51100000000E-03 0. -1.
<mgrwt>
<rscale>  0 0.88339997E+02</rscale>
<asrwt>0</asrwt>
<pdfrwt beam="2">  1        1 0.40902091E-01 0.88339997E+02</pdfrwt>
<pdfrwt beam="1">  1       -1 0.11289704E-02 0.88339997E+02</pdfrwt>
<totfact> 0.13615641E+05</totfact>
</mgrwt>
</event>
<event>
 5    1  0.2718303E+000  0.8921133E+02  0.7818608E-02  0.1304773E+00
         -1   -1    0    0    0  501 -0.00000000000E+00  0.00000000000E+00  0.10883767492E+03  0.10883767502E+03  0.46700000000E-02 0.  1.
          1   -1    0    0  501    0  0.00000000000E+00 -0.00000000000E+00 -0.18281032769E+02  0.18281033366E+02  0.46700000000E-02 0. -1.
         23    2    1    2    0    0  0.00000000000E+00  0.00000000000E+00  0.90556642149E+02  0.12711870838E+03  0.89211325424E+02 0.  0.
        -11    1    3    3    0    0 -0.14417046036E+02  0.18154378146E+02  0.99579286756E+02  0.10224219781E+03  0.51100000000E-03 0.  1.
         11    1    3    3    0    0  0.14417046036E+02 -0.18154378146E+02 -0.90226446071E+01  0.24876510572E+02  0.51100000000E-03 0. -1.
<mgrwt>
<rscale>  0 0.89211325E+02</rscale>
<asrwt>0</asrwt>
<pdfrwt beam="2">  1        1 0.28124666E-02 0.89211325E+02</pdfrwt>
<pdfrwt beam="1">  1       -1 0.16744258E-01 0.89211325E+02</pdfrwt>
<totfact> 0.84697666E+04</totfact>
</mgrwt>
</event>
<event>
 5    1  0.2718303E+000  0.8994118E+02  0.7818608E-02  0.1302994E+00
         -1   -1    0    0    0  501 -0.00000000000E+00  0.00000000000E+00  0.16728654710E+02  0.16728655362E+02  0.46700000000E-02 0.  1.
          1   -1    0    0  501    0  0.00000000000E+00 -0.00000000000E+00 -0.12089161122E+03  0.12089161131E+03  0.46700000000E-02 0. -1.
         23    2    1    2    0    0  0.00000000000E+00  0.00000000000E+00 -0.10416295651E+03  0.13762026667E+03  0.89941182390E+02 0.  0.
        -11    1    3    3    0    0  0.20803759159E+02  0.33599399658E+02 -0.19241437102E+02  0.43953941285E+02  0.51100000000E-03 0.  1.
         11    1    3    3    0    0 -0.20803759159E+02 -0.33599399658E+02 -0.84921519407E+02  0.93666325385E+02  0.51100000000E-03 0. -1.
<mgrwt>
<rscale>  0 0.89941182E+02</rscale>
<asrwt>0</asrwt>
<pdfrwt beam="2">  1        1 0.18598709E-01 0.89941182E+02</pdfrwt>
<pdfrwt beam="1">  1       -1 0.25736393E-02 0.89941182E+02</pdfrwt>
<totfact> 0.11193738E+05</totfact>
</mgrwt>
</event>
<event>
 5    1  0.2718303E+000  0.9339387E+02  0.7818608E-02  0.1294835E+00
         -1   -1    0    0    0  501 -0.00000000000E+00  0.00000000000E+00  0.51985880661E+01  0.51985901637E+01  0.46700000000E-02 0.  1.
          1   -1    0    0  501    0  0.00000000000E+00 -0.00000000000E+00 -0.41946069748E+03  0.41946069750E+03  0.46700000000E-02 0. -1.
         23    2    1    2    0    0  0.00000000000E+00  0.00000000000E+00 -0.41426210941E+03  0.42465928767E+03  0.93393871898E+02 0.  0.
        -11    1    3    3    0    0  0.83177843721E+01 -0.44052793910E+02 -0.14771174858E+03  0.15436513485E+03  0.51100000000E-03 0.  1.
         11    1    3    3    0    0 -0.83177843721E+01  0.44052793910E+02 -0.26655036083E+03  0.27029415281E+03  0.51100000000E-03 0. -1.
<mgrwt>
<rscale>  0 0.93393872E+02</rscale>
<asrwt>0</asrwt>
<pdfrwt beam="2">  1        1 0.64532388E-01 0.93393872E+02</pdfrwt>
<pdfrwt beam="1">  1       -1 0.79978327E-03 0.93393872E+02</pdfrwt>
<totfact> 0.12751101E+05</totfact>
</mgrwt>
</event>
<event>
 5    1  0.2718303E+000  0.8168235E+02  0.7818608E-02  0.1324344E+00
         -1   -1    0    0    0  501 -0.00000000000E+00  0.00000000000E+00  0.23529819057E+03  0.23529819062E+03  0.46700000000E-02 0.  1.
          1   -1    0    0  501    0  0.00000000000E+00 -0.00000000000E+00 -0.70888823279E+01  0.70888838662E+01  0.46700000000E-02 0. -1.
         23    2    1    2    0    0  0.00000000000E+00  0.00000000000E+00  0.22820930825E+03  0.24238707449E+03  0.81682345142E+02 0.  0.
        -11    1    3    3    0    0  0.13552122579E+02  0.33874241120E+02  0.16856959404E+03  0.17247270008E+03  0.51100000000E-03 0.  1.
         11    1    3    3    0    0 -0.13552122579E+02 -0.33874241120E+02  0.59639714206E+02  0.69914374407E+02  0.51100000000E-03 0. -1.
<mgrwt>
<rscale>  0 0.81682345E+02</rscale>
<asrwt>0</asrwt>
<pdfrwt beam="2">  1        1 0.10905975E-02 0.81682345E+02</pdfrwt>
<pdfrwt beam="1">  1       -1 0.36199718E-01 0.81682345E+02</pdfrwt>
<totfact> 0.87938193E+04</totfact>
</mgrwt>
</event>
<event>
 5    1  0.2718303E+000  0.8951312E+02  0.7818608E-02  0.1304035E+00
          1   -1    0    0  501    0  0.00000000000E+00  0.00000000000E+00  0.56164843852E+02  0.56164844046E+02  0.46700000000E-02 0. -1.
         -1   -1    0    0    0  501 -0.00000000000E+00 -0.00000000000E+00 -0.35665541505E+02  0.35665541810E+02  0.46700000000E-02 0.  1.
         23    2    1    2    0    0  0.00000000000E+00  0.00000000000E+00  0.20499302348E+02  0.91830385857E+02  0.89513118424E+02 0.  0.
        -11    1    3    3    0    0  0.33006530526E+02  0.56225353438E+01  0.40718778751E+02  0.52716818040E+02  0.51100000000E-03 0. -1.
         11    1    3    3    0    0 -0.33006530526E+02 -0.56225353438E+01 -0.20219476403E+02  0.39113567817E+02  0.51100000000E-03 0.  1.
<mgrwt>
<rscale>  0 0.89513118E+02</rscale>
<asrwt>0</asrwt>
<pdfrwt beam="1">  1        1 0.86407453E-02 0.89513118E+02</pdfrwt>
<pdfrwt beam="2">  1       -1 0.54870064E-02 0.89513118E+02</pdfrwt>
<totfact> 0.10041813E+05</totfact>
</mgrwt>
</event>
<event>
 5    1  0.2718303E+000  0.9039550E+02  0.7818608E-02  0.1301897E+00
         -1   -1    0    0    0  501 -0.00000000000E+00  0.00000000000E+00  0.69156449014E+02  0.69156449172E+02  0.46700000000E-02 0.  1.
          1   -1    0    0  501    0  0.00000000000E+00 -0.00000000000E+00 -0.29539352645E+02  0.29539353014E+02  0.46700000000E-02 0. -1.
         23    2    1    2    0    0  0.00000000000E+00  0.00000000000E+00  0.39617096369E+02  0.98695802186E+02  0.90395503452E+02 0.  0.
        -11    1    3    3    0    0 -0.28695053853E+02  0.34122283445E+02  0.27913105517E+02  0.52601119789E+02  0.51100000000E-03 0. -1.
         11    1    3    3    0    0  0.28695053853E+02 -0.34122283445E+02  0.11703990852E+02  0.46094682397E+02  0.51100000000E-03 0.  1.
<mgrwt>
<rscale>  0 0.90395503E+02</rscale>
<asrwt>0</asrwt>
<pdfrwt beam="2">  1        1 0.45445159E-02 0.90395503E+02</pdfrwt>
<pdfrwt beam="1">  1       -1 0.10639454E-01 0.90395503E+02</pdfrwt>
<totfact> 0.88630077E+04</totfact>
</mgrwt>
</event>
<event>
 5    1  0.2718303E+000  0.9319694E+02  0.7818608E-02  0.1295289E+00
          1   -1    0    0  501    0  0.00000000000E+00  0.00000000000E+00  0.43869909872E+03  0.43869909874E+03  0.46700000000E-02 0. -1.
         -1   -1    0    0    0  501 -0.00000000000E+00 -0.00000000000E+00 -0.49496723857E+01  0.49496745888E+01  0.46700000000E-02 0.  1.
         23    2    1    2    0    0  0.00000000000E+00  0.00000000000E+00  0.43374942633E+03  0.44364877333E+03  0.93196937906E+02 0.  0.
        -11    1    3    3    0    0 -0.21409283398E+02 -0.40615816285E+02  0.25478306251E+03  0.25888686890E+03  0.51100000000E-03 0. -1.
         11    1    3    3    0    0  0.21409283398E+02  0.40615816285E+02  0.17896636382E+03  0.18476190443E+03  0.51100000000E-03 0.  1.
<mgrwt>
<rscale>  0 0.93196938E+02</rscale>
<asrwt>0</asrwt>
<pdfrwt beam="1">  1        1 0.67492180E-01 0.93196938E+02</pdfrwt>
<pdfrwt beam="2">  1       -1 0.76148811E-03 0.93196938E+02</pdfrwt>
<totfact> 0.12910997E+05</totfact>
</mgrwt>
</event>
<event>
 5    1  0.2718303E+000  0.9129126E+02  0.7818608E-02  0.1299755E+00
          1   -1    0    0  501    0  0.00000000000E+00  0.00000000000E+00  0.59975973182E+02  0.59975973364E+02  0.46700000000E-02 0. -1.
         -1   -1    0    0    0  501 -0.00000000000E+00 -0.00000000000E+00 -0.34739304514E+02  0.34739304828E+02  0.46700000000E-02 0.  1.
         23    2    1    2    0    0  0.00000000000E+00  0.00000000000E+00  0.25236668667E+02  0.94715278192E+02  0.91291261781E+02 0.  0.
        -11    1    3    3    0    0  0.33142432388E+02 -0.20341035239E+02  0.37417671624E+02  0.53965365646E+02  0.51100000000E-03 0. -1.
         11    1    3    3    0    0 -0.33142432388E+02  0.20341035239E+02 -0.12181002957E+02  0.40749912546E+02  0.51100000000E-03 0.  1.
<mgrwt>
<rscale>  0 0.91291262E+02</rscale>
<asrwt>0</asrwt>
<pdfrwt beam="1">  1        1 0.92270728E-02 0.91291262E+02</pdfrwt>
<pdfrwt beam="2">  1       -1 0.53445085E-02 0.91291262E+02</pdfrwt>
<totfact> 0.96030394E+04</totfact>
</mgrwt>
</event>
<event>
 5    1  0.2718303E+000  0.9206752E+02  0.7818608E-02  0.1297921E+00
          1   -1    0    0  501    0  0.00000000000E+00  0.00000000000E+00  0.19925310852E+02  0.19925311399E+02  0.46700000000E-02 0. -1.
         -1   -1    0    0    0  501 -0.00000000000E+00 -0.00000000000E+00 -0.10635250858E+03  0.10635250868E+03  0.46700000000E-02 0.  1.
         23    2    1    2    0    0  0.00000000000E+00  0.00000000000E+00 -0.86427197723E+02  0.12627782008E+03  0.92067515103E+02 0.  0.
        -11    1    3    3    0    0  0.24970751289E+02  0.34129510495E+02 -0.18269532655E+02  0.46066666151E+02  0.51100000000E-03 0. -1.
         11    1    3    3    0    0 -0.24970751289E+02 -0.34129510495E+02 -0.68157665068E+02  0.80211153927E+02  0.51100000000E-03 0.  1.
<mgrwt>
<rscale>  0 0.92067515E+02</rscale>
<asrwt>0</asrwt>
<pdfrwt beam="1">  1        1 0.30654325E-02 0.92067515E+02</pdfrwt>
<pdfrwt beam="2">  1       -1 0.16361924E-01 0.92067515E+02</pdfrwt>
<totfact> 0.78436420E+04</totfact>
</mgrwt>
</event>
<event>
 5    1  0.2718303E+000  0.9166686E+02  0.7818608E-02  0.1298865E+00
          1   -1    0    0  501    0  0.00000000000E+00  0.00000000000E+00  0.64790283697E+02  0.64790283865E+02  0.46700000000E-02 0. -1.
         -1   -1    0    0    0  501 -0.00000000000E+00 -0.00000000000E+00 -0.32423119595E+02  0.32423119932E+02  0.46700000000E-02 0.  1.
         23    2    1    2    0    0  0.00000000000E+00  0.00000000000E+00  0.32367164101E+02  0.97213403797E+02  0.91666856419E+02 0.  0.
        -11    1    3    3    0    0  0.45531903797E+02  0.52317123498E+01  0.16631090826E+02  0.48755699767E+02  0.51100000000E-03 0.  1.
         11    1    3    3    0    0 -0.45531903797E+02 -0.52317123498E+01  0.15736073276E+02  0.48457704030E+02  0.51100000000E-03 0. -1.
<mgrwt>
<rscale>  0 0.91666856E+02</rscale>
<asrwt>0</asrwt>
<pdfrwt beam="1">  1        1 0.99677359E-02 0.91666856E+02</pdfrwt>
<pdfrwt beam="2">  1       -1 0.49881723E-02 0.91666856E+02</pdfrwt>
<totfact> 0.96066085E+04</totfact>
</mgrwt>
</event>
<event>
 5    1  0.2718303E+000  0.9132163E+02  0.7818608E-02  0.1299682E+00
          1   -1    0    0  501    0  0.00000000000E+00  0.00000000000E+00  0.65537630858E+02  0.65537631024E+02  0.46700000000E-02 0. -1.
         -1   -1    0    0    0  501 -0.00000000000E+00 -0.00000000000E+00 -0.31812407780E+02  0.31812408123E+02  0.46700000000E-02 0.  1.
         23    2    1    2    0    0  0.00000000000E+00  0.00000000000E+00  0.33725223077E+02  0.97350039147E+02  0.91321626411E+02 0.  0.
        -11    1    3    3    0    0 -0.16062546922E+00 -0.44091452397E+02  0.42121367625E+01  0.44292483238E+02  0.51100000000E-03 0.  1.
         11    1    3    3    0    0  0.16062546922E+00  0.44091452397E+02  0.29513086315E+02  0.53057555909E+02  0.51100000000E-03 0. -1.
<mgrwt>
<rscale>  0 0.91321626E+02</rscale>
<asrwt>0</asrwt>
<pdfrwt beam="1">  1        1 0.10082712E-01 0.91321626E+02</pdfrwt>
<pdfrwt beam="2">  1       -1 0.48942167E-02 0.91321626E+02</pdfrwt>
<totfact> 0.97245774E+04</totfact>
</mgrwt>
</event>
<event>
 5    1  0.2718303E+000  0.9072776E+02  0.7818608E-02  0.1301099E+00
          1   -1    0    0  501    0  0.00000000000E+00  0.00000000000E+00  0.34068206525E+02  0.34068206845E+02  0.46700000000E-02 0. -1.
         -1   -1    0    0    0  501 -0.00000000000E+00 -0.00000000000E+00 -0.60404751924E+02  0.60404752104E+02  0.46700000000E-02 0.  1.
         23    2    1    2    0    0  0.00000000000E+00  0.00000000000E+00 -0.26336545399E+02  0.94472958949E+02  0.90727759529E+02 0.  0.
        -11    1    3    3    0    0  0.27194292494E+02  0.15600391580E+02 -0.47308584913E+02  0.56753889457E+02  0.51100000000E-03 0.  1.
         11    1    3    3    0    0 -0.27194292494E+02 -0.15600391580E+02  0.20972039515E+02  0.37719069493E+02  0.51100000000E-03 0. -1.
<mgrwt>
<rscale>  0 0.90727760E+02</rscale>
<asrwt>0</asrwt>
<pdfrwt beam="1">  1        1 0.52412626E-02 0.90727760E+02</pdfrwt>
<pdfrwt beam="2">  1       -1 0.92930388E-02 0.90727760E+02</pdfrwt>
<totfact> 0.89703442E+04</totfact>
</mgrwt>
</event>
<event>
 5    1  0.2718303E+000  0.9576384E+02  0.7818608E-02  0.1289465E+00
          1   -1    0    0  501    0  0.00000000000E+00  0.00000000000E+00  0.59423584046E+02  0.59423584230E+02  0.46700000000E-02 0. -1.
         -1   -1    0    0    0  501 -0.00000000000E+00 -0.00000000000E+00 -0.38581957426E+02  0.38581957709E+02  0.46700000000E-02 0.  1.
         23    2    1    2    0    0  0.00000000000E+00  0.00000000000E+00  0.20841626620E+02  0.98005541938E+02  0.95763838950E+02 0.  0.
        -11    1    3    3    0    0  0.98915938282E+01 -0.20238002009E+02  0.53662195115E+02  0.58198380894E+02  0.51100000000E-03 0. -1.
         11    1    3    3    0    0 -0.98915938282E+01  0.20238002009E+02 -0.32820568495E+02  0.39807161044E+02  0.51100000000E-03 0.  1.
<mgrwt>
<rscale>  0 0.95763839E+02</rscale>
<asrwt>0</asrwt>
<pdfrwt beam="1">  1        1 0.91420899E-02 0.95763839E+02</pdfrwt>
<pdfrwt beam="2">  1       -1 0.59356858E-02 0.95763839E+02</pdfrwt>
<totfact> 0.83925090E+04</totfact>
</mgrwt>
</event>
<event>
 5    1  0.2718303E+000  0.8897179E+02  0.7818608E-02  0.1305361E+00
          1   -1    0    0  501    0  0.00000000000E+00  0.00000000000E+00  0.75612693587E+01  0.75612708008E+01  0.46700000000E-02 0. -1.
         -1   -1    0    0    0  501 -0.00000000000E+00 -0.00000000000E+00 -0.26172783147E+03  0.26172783151E+03  0.46700000000E-02 0.  1.
         23    2    1    2    0    0  0.00000000000E+00  0.00000000000E+00 -0.25416656211E+03  0.26928910231E+03  0.88971789510E+02 0.  0.
        -11    1    3    3    0    0 -0.34035355407E+02  0.25434422258E+02 -0.16697114972E+03  0.17229242610E+03  0.51100000000E-03 0. -1.
         11    1    3    3    0    0  0.34035355407E+02 -0.25434422258E+02 -0.87195412387E+02  0.96996676206E+02  0.51100000000E-03 0.  1.
<mgrwt>
<rscale>  0 0.88971790E+02</rscale>
<asrwt>0</asrwt>
<pdfrwt beam="1">  1        1 0.11632725E-02 0.88971790E+02</pdfrwt>
<pdfrwt beam="2">  1       -1 0.40265814E-01 0.88971790E+02</pdfrwt>
<totfact> 0.67950902E+04</totfact>
</mgrwt>
</event>
<event>
 5    1  0.2718303E+000  0.9246603E+02  0.7818608E-02  0.1296987E+00
         -1   -1    0    0    0  501 -0.00000000000E+00  0.00000000000E+00  0.89626505387E+01  0.89626517553E+01  0.46700000000E-02 0.  1.
          1   -1    0    0  501    0  0.00000000000E+00 -0.00000000000E+00 -0.23848876194E+03  0.23848876198E+03  0.46700000000E-02 0. -1.
         23    2    1    2    0    0  0.00000000000E+00  0.00000000000E+00 -0.22952611140E+03  0.24745141374E+03  0.92466028072E+02 0.  0.
        -11    1    3    3    0    0  0.19578906842E+02 -0.41875966938E+02 -0.11275794346E+03  0.12186584433E+03  0.51100000000E-03 0. -1.
         11    1    3    3    0    0 -0.19578906842E+02  0.41875966938E+02 -0.11676816794E+03  0.12558556941E+03  0.51100000000E-03 0.  1.
<mgrwt>
<rscale>  0 0.92466028E+02</rscale>
<asrwt>0</asrwt>
<pdfrwt beam="2">  1        1 0.36690574E-01 0.92466028E+02</pdfrwt>
<pdfrwt beam="1">  1       -1 0.13788696E-02 0.92466028E+02</pdfrwt>
<totfact> 0.11801783E+05</totfact>
</mgrwt>
</event>
<event>
 5    1  0.2718303E+000  0.9229449E+02  0.7818608E-02  0.1297388E+00
         -1   -1    0    0    0  501 -0.00000000000E+00  0.00000000000E+00  0.77750300620E+01  0.77750314645E+01  0.46700000000E-02 0.  1.
          1   -1    0    0  501    0  0.00000000000E+00 -0.00000000000E+00 -0.27389837862E+03  0.27389837866E+03  0.46700000000E-02 0. -1.
         23    2    1    2    0    0  0.00000000000E+00  0.00000000000E+00 -0.26612334856E+03  0.28167341012E+03  0.92294492378E+02 0.  0.
        -11    1    3    3    0    0 -0.38380447667E+02 -0.25310214007E+02 -0.12089128127E+03  0.12933819074E+03  0.51100000000E-03 0.  1.
         11    1    3    3    0    0  0.38380447667E+02  0.25310214007E+02 -0.14523206729E+03  0.15233521939E+03  0.51100000000E-03 0. -1.
<mgrwt>
<rscale>  0 0.92294492E+02</rscale>
<asrwt>0</asrwt>
<pdfrwt beam="2">  1        1 0.42138205E-01 0.92294492E+02</pdfrwt>
<pdfrwt beam="1">  1       -1 0.11961588E-02 0.92294492E+02</pdfrwt>
<totfact> 0.12186191E+05</totfact>
</mgrwt>
</event>
<event>
 5    1  0.2718303E+000  0.9137788E+02  0.7818608E-02  0.1299549E+00
          1   -1    0    0  501    0  0.00000000000E+00  0.00000000000E+00  0.11814585564E+02  0.11814586487E+02  0.46700000000E-02 0. -1.
         -1   -1    0    0    0  501 -0.00000000000E+00 -0.00000000000E+00 -0.17668660773E+03  0.17668660779E+03  0.46700000000E-02 0.  1.
         23    2    1    2    0    0  0.00000000000E+00  0.00000000000E+00 -0.16487202217E+03  0.18850119428E+03  0.91377877799E+02 0.  0.
        -11    1    3    3    0    0 -0.37174472504E+02  0.24503769953E+01 -0.27875646817E+02  0.46529532978E+02  0.51100000000E-03 0. -1.
         11    1    3    3    0    0  0.37174472504E+02 -0.24503769953E+01 -0.13699637535E+03  0.14197166130E+03  0.51100000000E-03 0.  1.
<mgrwt>
<rscale>  0 0.91377878E+02</rscale>
<asrwt>0</asrwt>
<pdfrwt beam="1">  1        1 0.18176288E-02 0.91377878E+02</pdfrwt>
<pdfrwt beam="2">  1       -1 0.27182553E-01 0.91377878E+02</pdfrwt>
<totfact> 0.71409526E+04</totfact>
</mgrwt>
</event>
<event>
 5    1  0.2718303E+000  0.9118655E+02  0.7818608E-02  0.1300003E+00
          1   -1    0    0  501    0  0.00000000000E+00  0.00000000000E+00  0.11836919983E+03  0.11836919992E+03  0.46700000000E-02 0. -1.
         -1   -1    0    0    0  501 -0.00000000000E+00 -0.00000000000E+00 -0.17561551546E+02  0.17561552167E+02  0.46700000000E-02 0.  1.
         23    2    1    2    0    0  0.00000000000E+00  0.00000000000E+00  0.10080764828E+03  0.13593075209E+03  0.91186552797E+02 0.  0.
        -11    1    3    3    0    0  0.10189051389E+02 -0.34514649855E+02  0.86733553274E+01  0.37017629797E+02  0.51100000000E-03 0.  1.
         11    1    3    3    0    0 -0.10189051389E+02  0.34514649855E+02  0.92134292954E+02  0.98913122291E+02  0.51100000000E-03 0. -1.
<mgrwt>
<rscale>  0 0.91186553E+02</rscale>
<asrwt>0</asrwt>
<pdfrwt beam="1">  1        1 0.18210647E-01 0.91186553E+02</pdfrwt>
<pdfrwt beam="2">  1       -1 0.27017771E-02 0.91186553E+02</pdfrwt>
<totfact> 0.10745228E+05</totfact>
</mgrwt>
</event>
<event>
 5    1  0.2718303E+000  0.9293557E+02  0.7818608E-02  0.1295895E+00
          1   -1    0    0  501    0  0.00000000000E+00  0.00000000000E+00  0.26215903866E+03  0.26215903870E+03  0.46700000000E-02 0. -1.
         -1   -1    0    0    0  501 -0.00000000000E+00 -0.00000000000E+00 -0.82364303620E+01  0.82364316859E+01  0.46700000000E-02 0.  1.
         23    2    1    2    0    0  0.00000000000E+00  0.00000000000E+00  0.25392260830E+03  0.27039547039E+03  0.92935565858E+02 0.  0.
        -11    1    3    3    0    0 -0.34959224830E+02  0.30140650712E+02  0.14253419890E+03  0.14982190789E+03  0.51100000000E-03 0. -1.
         11    1    3    3    0    0  0.34959224830E+02 -0.30140650712E+02  0.11138840940E+03  0.12057356250E+03  0.51100000000E-03 0.  1.
<mgrwt>
<rscale>  0 0.92935566E+02</rscale>
<asrwt>0</asrwt>
<pdfrwt beam="1">  1        1 0.40332167E-01 0.92935566E+02</pdfrwt>
<pdfrwt beam="2">  1       -1 0.12671430E-02 0.92935566E+02</pdfrwt>
<totfact> 0.11860487E+05</totfact>
</mgrwt>
</event>
<event>
 5    1  0.2718303E+000  0.9002346E+02  0.7818608E-02  0.1302795E+00
          1   -1    0    0  501    0  0.00000000000E+00  0.00000000000E+00  0.35454583989E+02  0.35454584297E+02  0.46700000000E-02 0. -1.
         -1   -1    0    0    0  501 -0.00000000000E+00 -0.00000000000E+00 -0.57145107919E+02  0.57145108110E+02  0.46700000000E-02 0.  1.
         23    2    1    2    0    0  0.00000000000E+00  0.00000000000E+00 -0.21690523930E+02  0.92599692407E+02  0.90023464749E+02 0.  0.
        -11    1    3    3    0    0  0.21867776325E+02  0.64273501007E-01  0.29623374883E+02  0.36820484953E+02  0.51100000000E-03 0. -1.
         11    1    3    3    0    0 -0.21867776325E+02 -0.64273501007E-01 -0.51313898813E+02  0.55779207453E+02  0.51100000000E-03 0.  1.
<mgrwt>
<rscale>  0 0.90023465E+02</rscale>
<asrwt>0</asrwt>
<pdfrwt beam="1">  1        1 0.54545514E-02 0.90023465E+02</pdfrwt>
<pdfrwt beam="2">  1       -1 0.87915551E-02 0.90023465E+02</pdfrwt>
<totfact> 0.92275988E+04</totfact>
</mgrwt>
</event>
<event>
 5    1  0.2718303E+000  0.8911497E+02  0.7818608E-02  0.1305009E+00
          1   -1    0    0  501    0  0.00000000000E+00  0.00000000000E+00  0.93961551122E+01  0.93961562727E+01  0.46700000000E-02 0. -1.
         -1   -1    0    0    0  501 -0.00000000000E+00 -0.00000000000E+00 -0.21129591261E+03  0.21129591266E+03  0.46700000000E-02 0.  1.
         23    2    1    2    0    0  0.00000000000E+00  0.00000000000E+00 -0.20189975749E+03  0.22069206893E+03  0.89114966267E+02 0.  0.
        -11    1    3    3    0    0  0.43184807577E+02 -0.32825556194E+01 -0.75015662828E+02  0.86620161894E+02  0.51100000000E-03 0. -1.
         11    1    3    3    0    0 -0.43184807577E+02  0.32825556194E+01 -0.12688409467E+03  0.13407190704E+03  0.51100000000E-03 0.  1.
<mgrwt>
<rscale>  0 0.89114966E+02</rscale>
<asrwt>0</asrwt>
<pdfrwt beam="1">  1        1 0.14455626E-02 0.89114966E+02</pdfrwt>
<pdfrwt beam="2">  1       -1 0.32507060E-01 0.89114966E+02</pdfrwt>
<totfact> 0.72512189E+04</totfact>
</mgrwt>
</event>
<event>
 5    1  0.2718303E+000  0.8960083E+02  0.7818608E-02  0.1303821E+00
          1   -1    0    0  501    0  0.00000000000E+00  0.00000000000E+00  0.16523498838E+03  0.16523498844E+03  0.46700000000E-02 0. -1.
         -1   -1    0    0    0  501 -0.00000000000E+00 -0.00000000000E+00 -0.12146803718E+02  0.12146804616E+02  0.46700000000E-02 0.  1.
         23    2    1    2    0    0  0.00000000000E+00  0.00000000000E+00  0.15308818466E+03  0.17738179306E+03  0.89600827155E+02 0.  0.
        -11    1    3    3    0    0 -0.43932450309E+02 -0.81359238642E+01  0.83057122239E+02  0.94311923966E+02  0.51100000000E-03 0. -1.
         11    1    3    3    0    0  0.43932450309E+02  0.81359238642E+01  0.70031062420E+02  0.83069869094E+02  0.51100000000E-03 0.  1.
<mgrwt>
<rscale>  0 0.89600827E+02</rscale>
<asrwt>0</asrwt>
<pdfrwt beam="1">  1        1 0.25420767E-01 0.89600827E+02</pdfrwt>
<pdfrwt beam="2">  1       -1 0.18687392E-02 0.89600827E+02</pdfrwt>
<totfact> 0.11964100E+05</totfact>
</mgrwt>
</event>
<event>
 5    1  0.2718303E+000  0.9157427E+02  0.7818608E-02  0.1299084E+00
          1   -1    0    0  501    0  0.00000000000E+00  0.00000000000E+00  0.81044761593E+02  0.81044761727E+02  0.46700000000E-02 0. -1.
         -1   -1    0    0    0  501 -0.00000000000E+00 -0.00000000000E+00 -0.25867950634E+02  0.25867951056E+02  0.46700000000E-02 0.  1.
         23    2    1    2    0    0  0.00000000000E+00  0.00000000000E+00  0.55176810959E+02  0.10691271278E+03  0.91574274155E+02 0.  0.
        -11    1    3    3    0    0  0.22936227549E+02  0.31554788826E+02  0.55576377662E+02  0.67900728909E+02  0.51100000000E-03 0.  1.
         11    1    3    3    0    0 -0.22936227549E+02 -0.31554788826E+02 -0.39956670347E+00  0.39011983875E+02  0.51100000000E-03 0. -1.
<mgrwt>
<rscale>  0 0.91574274E+02</rscale>
<asrwt>0</asrwt>
<pdfrwt beam="1">  1        1 0.12468425E-01 0.91574274E+02</pdfrwt>
<pdfrwt beam="2">  1       -1 0.39796849E-02 0.91574274E+02</pdfrwt>
<totfact> 0.99751934E+04</totfact>
</mgrwt>
</event>
<event>
 5    1  0.2718303E+000  0.9039851E+02  0.7818608E-02  0.1301890E+00
          1   -1    0    0  501    0  0.00000000000E+00  0.00000000000E+00  0.24135136388E+03  0.24135136392E+03  0.46700000000E-02 0. -1.
         -1   -1    0    0    0  501 -0.00000000000E+00 -0.00000000000E+00 -0.84647223595E+01  0.84647236477E+01  0.46700000000E-02 0.  1.
         23    2    1    2    0    0  0.00000000000E+00  0.00000000000E+00  0.23288664152E+03  0.24981608757E+03  0.90398505582E+02 0.  0.
        -11    1    3    3    0    0 -0.18418659501E+02 -0.38335989091E+02  0.15872369968E+03  0.16432318132E+03  0.51100000000E-03 0. -1.
         11    1    3    3    0    0  0.18418659501E+02  0.38335989091E+02  0.74162941834E+02  0.85492906250E+02  0.51100000000E-03 0.  1.
<mgrwt>
<rscale>  0 0.90398506E+02</rscale>
<asrwt>0</asrwt>
<pdfrwt beam="1">  1        1 0.37130974E-01 0.90398506E+02</pdfrwt>
<pdfrwt beam="2">  1       -1 0.13022653E-02 0.90398506E+02</pdfrwt>
<totfact> 0.12566876E+05</totfact>
</mgrwt>
</event>
<event>
 5    1  0.2718303E+000  0.9088727E+02  0.7818608E-02  0.1300717E+00
          1   -1    0    0  501    0  0.00000000000E+00  0.00000000000E+00  0.29385016087E+02  0.29385016458E+02  0.46700000000E-02 0. -1.
         -1   -1    0    0    0  501 -0.00000000000E+00 -0.00000000000E+00 -0.70278126299E+02  0.70278126454E+02  0.46700000000E-02 0.  1.
         23    2    1    2    0    0  0.00000000000E+00  0.00000000000E+00 -0.40893110212E+02  0.99663142912E+02  0.90887268593E+02 0.  0.
        -11    1    3    3    0    0 -0.52940071892E+01  0.11036685315E+02  0.27543216141E+02  0.30140731419E+02  0.51100000000E-03 0. -1.
         11    1    3    3    0    0  0.52940071892E+01 -0.11036685315E+02 -0.68436326353E+02  0.69522411493E+02  0.51100000000E-03 0.  1.
<mgrwt>
<rscale>  0 0.90887269E+02</rscale>
<asrwt>0</asrwt>
<pdfrwt beam="1">  1        1 0.45207718E-02 0.90887269E+02</pdfrwt>
<pdfrwt beam="2">  1       -1 0.10812019E-01 0.90887269E+02</pdfrwt>
<totfact> 0.87188030E+04</totfact>
</mgrwt>
</event>
<event>
 5    1  0.2718303E+000  0.9226884E+02  0.7818608E-02  0.1297449E+00
         -1   -1    0    0    0  501 -0.00000000000E+00  0.00000000000E+00  0.80301789591E+01  0.80301803170E+01  0.46700000000E-02 0.  1.
          1   -1    0    0  501    0  0.00000000000E+00 -0.00000000000E+00 -0.26504819688E+03  0.26504819692E+03  0.46700000000E-02 0. -1.
         23    2    1    2    0    0  0.00000000000E+00  0.00000000000E+00 -0.25701801792E+03  0.27307837724E+03  0.92268838613E+02 0.  0.
        -11    1    3    3    0    0  0.42737877791E+02  0.13371058193E+02 -0.95675742413E+02  0.10563692102E+03  0.51100000000E-03 0.  1.
         11    1    3    3    0    0 -0.42737877791E+02 -0.13371058193E+02 -0.16134227551E+03  0.16744145622E+03  0.51100000000E-03 0. -1.
<mgrwt>
<rscale>  0 0.92268839E+02</rscale>
<asrwt>0</asrwt>
<pdfrwt beam="2">  1        1 0.40776639E-01 0.92268839E+02</pdfrwt>
<pdfrwt beam="1">  1       -1 0.12354125E-02 0.92268839E+02</pdfrwt>
<totfact> 0.12117193E+05</totfact>
</mgrwt>
</event>
<event>
 5    1  0.2718303E+000  0.9038030E+02  0.7818608E-02  0.1301933E+00
         -1   -1    0    0    0  501 -0.00000000000E+00  0.00000000000E+00  0.22312355361E+03  0.22312355365E+03  0.46700000000E-02 0.  1.
          1   -1    0    0  501    0  0.00000000000E+00 -0.00000000000E+00 -0.91525501262E+01  0.91525513176E+01  0.46700000000E-02 0. -1.
         23    2    1    2    0    0  0.00000000000E+00  0.00000000000E+00  0.21397100348E+03  0.23227610497E+03  0.90380299906E+02 0.  0.
        -11    1    3    3    0    0 -0.26661545110E+02 -0.23398215552E+02  0.35033458584E+02  0.49856370700E+02  0.51100000000E-03 0. -1.
         11    1    3    3    0    0  0.26661545110E+02  0.23398215552E+02  0.17893754490E+03  0.18241973427E+03  0.51100000000E-03 0.  1.
<mgrwt>
<rscale>  0 0.90380300E+02</rscale>
<asrwt>0</asrwt>
<pdfrwt beam="2">  1        1 0.14080846E-02 0.90380300E+02</pdfrwt>
<pdfrwt beam="1">  1       -1 0.34326704E-01 0.90380300E+02</pdfrwt>
<totfact> 0.68752815E+04</totfact>
</mgrwt>
</event>
<event>
 5    1  0.2718303E+000  0.9027158E+02  0.7818608E-02  0.1302195E+00
          1   -1    0    0  501    0  0.00000000000E+00  0.00000000000E+00  0.37174120467E+02  0.37174120760E+02  0.46700000000E-02 0. -1.
         -1   -1    0    0    0  501 -0.00000000000E+00 -0.00000000000E+00 -0.54802634067E+02  0.54802634266E+02  0.46700000000E-02 0.  1.
         23    2    1    2    0    0  0.00000000000E+00  0.00000000000E+00 -0.17628513600E+02  0.91976755026E+02  0.90271584529E+02 0.  0.
        -11    1    3    3    0    0  0.42284558608E+02 -0.52381302453E+01 -0.23989136321E+02  0.48896835959E+02  0.51100000000E-03 0.  1.
         11    1    3    3    0    0 -0.42284558608E+02  0.52381302453E+01  0.63606227210E+01  0.43079919067E+02  0.51100000000E-03 0. -1.
<mgrwt>
<rscale>  0 0.90271585E+02</rscale>
<asrwt>0</asrwt>
<pdfrwt beam="1">  1        1 0.57190955E-02 0.90271585E+02</pdfrwt>
<pdfrwt beam="2">  1       -1 0.84311745E-02 0.90271585E+02</pdfrwt>
<totfact> 0.92223421E+04</totfact>
</mgrwt>
</event>
<event>
 5    1  0.2718303E+000  0.9052311E+02  0.7818608E-02  0.1301590E+00
          1   -1    0    0  501    0  0.00000000000E+00  0.00000000000E+00  0.22626808718E+02  0.22626809200E+02  0.46700000000E-02 0. -1.
         -1   -1    0    0    0  501 -0.00000000000E+00 -0.00000000000E+00 -0.90538989018E+02  0.90538989139E+02  0.46700000000E-02 0.  1.
         23    2    1    2    0    0  0.00000000000E+00  0.00000000000E+00 -0.67912180300E+02  0.11316579834E+03  0.90523111306E+02 0.  0.
        -11    1    3    3    0    0  0.43624323855E+02  0.14739194712E+01 -0.48923999913E+02  0.65565324968E+02  0.51100000000E-03 0.  1.
         11    1    3    3    0    0 -0.43624323855E+02 -0.14739194712E+01 -0.18988180387E+02  0.47600473371E+02  0.51100000000E-03 0. -1.
<mgrwt>
<rscale>  0 0.90523111E+02</rscale>
<asrwt>0</asrwt>
<pdfrwt beam="1">  1        1 0.34810476E-02 0.90523111E+02</pdfrwt>
<pdfrwt beam="2">  1       -1 0.13929075E-01 0.90523111E+02</pdfrwt>
<totfact> 0.84398790E+04</totfact>
</mgrwt>
</event>
<event>
 5    1  0.2718303E+000  0.9287302E+02  0.7818608E-02  0.1296040E+00
         -1   -1    0    0    0  501 -0.00000000000E+00  0.00000000000E+00  0.26439791815E+02  0.26439792228E+02  0.46700000000E-02 0.  1.
          1   -1    0    0  501    0  0.00000000000E+00 -0.00000000000E+00 -0.81556972436E+02  0.81556972570E+02  0.46700000000E-02 0. -1.
         23    2    1    2    0    0  0.00000000000E+00  0.00000000000E+00 -0.55117180621E+02  0.10799676480E+03  0.92873018726E+02 0.  0.
        -11    1    3    3    0    0  0.10538136892E+01 -0.13961633665E+02  0.23926768732E+02  0.27722337566E+02  0.51100000000E-03 0.  1.
         11    1    3    3    0    0 -0.10538136892E+01  0.13961633665E+02 -0.79043949353E+02  0.80274427232E+02  0.51100000000E-03 0. -1.
<mgrwt>
<rscale>  0 0.92873019E+02</rscale>
<asrwt>0</asrwt>
<pdfrwt beam="2">  1        1 0.12547226E-01 0.92873019E+02</pdfrwt>
<pdfrwt beam="1">  1       -1 0.40676603E-02 0.92873019E+02</pdfrwt>
<totfact> 0.96058841E+04</totfact>
</mgrwt>
</event>
<event>
 5    1  0.2718303E+000  0.9511086E+02  0.7818608E-02  0.1290927E+00
         -1   -1    0    0    0  501 -0.00000000000E+00  0.00000000000E+00  0.45808529012E+02  0.45808529250E+02  0.46700000000E-02 0.  1.
          1   -1    0    0  501    0  0.00000000000E+00 -0.00000000000E+00 -0.49368943506E+02  0.49368943727E+02  0.46700000000E-02 0. -1.
         23    2    1    2    0    0  0.00000000000E+00  0.00000000000E+00 -0.35604144942E+01  0.95177472977E+02  0.95110855379E+02 0.  0.
        -11    1    3    3    0    0  0.26836579710E+02 -0.34080369685E+02 -0.21283473207E+02  0.48318317855E+02  0.51100000000E-03 0. -1.
         11    1    3    3    0    0 -0.26836579710E+02  0.34080369685E+02  0.17723058713E+02  0.46859155122E+02  0.51100000000E-03 0.  1.
<mgrwt>
<rscale>  0 0.95110855E+02</rscale>
<asrwt>0</asrwt>
<pdfrwt beam="2">  1        1 0.75952222E-02 0.95110855E+02</pdfrwt>
<pdfrwt beam="1">  1       -1 0.70474660E-02 0.95110855E+02</pdfrwt>
<totfact> 0.83115018E+04</totfact>
</mgrwt>
</event>
<event>
 5    1  0.2718303E+000  0.8480019E+02  0.7818608E-02  0.1315956E+00
          1   -1    0    0  501    0  0.00000000000E+00  0.00000000000E+00  0.15800647032E+03  0.15800647039E+03  0.46700000000E-02 0. -1.
         -1   -1    0    0    0  501 -0.00000000000E+00 -0.00000000000E+00 -0.11377811014E+02  0.11377811972E+02  0.46700000000E-02 0.  1.
         23    2    1    2    0    0  0.00000000000E+00  0.00000000000E+00  0.14662865930E+03  0.16938428236E+03  0.84800185029E+02 0.  0.
        -11    1    3    3    0    0  0.26947216605E+02  0.20526588059E+02  0.22378347404E+02  0.40599060739E+02  0.51100000000E-03 0.  1.
         11    1    3    3    0    0 -0.26947216605E+02 -0.20526588059E+02  0.12425031190E+03  0.12878522162E+03  0.51100000000E-03 0. -1.
<mgrwt>
<rscale>  0 0.84800185E+02</rscale>
<asrwt>0</asrwt>
<pdfrwt beam="1">  1        1 0.24308688E-01 0.84800185E+02</pdfrwt>
<pdfrwt beam="2">  1       -1 0.17504325E-02 0.84800185E+02</pdfrwt>
<totfact> 0.13751132E+05</totfact>
</mgrwt>
</event>
<event>
 5    1  0.2718303E+000  0.9257887E+02  0.7818608E-02  0.1296724E+00
          1   -1    0    0  501    0  0.00000000000E+00  0.00000000000E+00  0.25197321994E+02  0.25197322427E+02  0.46700000000E-02 0. -1.
         -1   -1    0    0    0  501 -0.00000000000E+00 -0.00000000000E+00 -0.85037283620E+02  0.85037283748E+02  0.46700000000E-02 0.  1.
         23    2    1    2    0    0  0.00000000000E+00  0.00000000000E+00 -0.59839961626E+02  0.11023460618E+03  0.92578871193E+02 0.  0.
        -11    1    3    3    0    0 -0.22994918270E+02 -0.32156982103E+02 -0.58592966850E+02  0.70682200933E+02  0.51100000000E-03 0.  1.
         11    1    3    3    0    0  0.22994918270E+02  0.32156982103E+02 -0.12469947755E+01  0.39552405242E+02  0.51100000000E-03 0. -1.
<mgrwt>
<rscale>  0 0.92578871E+02</rscale>
<asrwt>0</asrwt>
<pdfrwt beam="1">  1        1 0.38765112E-02 0.92578871E+02</pdfrwt>
<pdfrwt beam="2">  1       -1 0.13082659E-01 0.92578871E+02</pdfrwt>
<totfact> 0.80552325E+04</totfact>
</mgrwt>
</event>
<event>
 5    1  0.2718303E+000  0.9575751E+02  0.7818608E-02  0.1289479E+00
         -1   -1    0    0    0  501 -0.00000000000E+00  0.00000000000E+00  0.11590642361E+02  0.11590643301E+02  0.46700000000E-02 0.  1.
          1   -1    0    0  501    0  0.00000000000E+00 -0.00000000000E+00 -0.19777809605E+03  0.19777809610E+03  0.46700000000E-02 0. -1.
         23    2    1    2    0    0  0.00000000000E+00  0.00000000000E+00 -0.18618745369E+03  0.20936873940E+03  0.95757512129E+02 0.  0.
        -11    1    3    3    0    0  0.22500683249E+02 -0.31006553410E+02 -0.15588277064E+03  0.16052141690E+03  0.51100000000E-03 0. -1.
         11    1    3    3    0    0 -0.22500683249E+02  0.31006553410E+02 -0.30304683050E+02  0.48847322507E+02  0.51100000000E-03 0.  1.
<mgrwt>
<rscale>  0 0.95757512E+02</rscale>
<asrwt>0</asrwt>
<pdfrwt beam="2">  1        1 0.30427397E-01 0.95757512E+02</pdfrwt>
<pdfrwt beam="1">  1       -1 0.17831760E-02 0.95757512E+02</pdfrwt>
<totfact> 0.10354669E+05</totfact>
</mgrwt>
</event>
<event>
 5    1  0.2718303E+000  0.9120727E+02  0.7818608E-02  0.1299954E+00
          1   -1    0    0  501    0  0.00000000000E+00  0.00000000000E+00  0.16440086184E+02  0.16440086847E+02  0.46700000000E-02 0. -1.
         -1   -1    0    0    0  501 -0.00000000000E+00 -0.00000000000E+00 -0.12650125203E+03  0.12650125211E+03  0.46700000000E-02 0.  1.
         23    2    1    2    0    0  0.00000000000E+00  0.00000000000E+00 -0.11006116584E+03  0.14294133896E+03  0.91207270307E+02 0.  0.
        -11    1    3    3    0    0  0.42487384793E+02  0.59146951992E+01 -0.79285980246E+02  0.90146703488E+02  0.51100000000E-03 0.  1.
         11    1    3    3    0    0 -0.42487384793E+02 -0.59146951992E+01 -0.30775185598E+02  0.52794635473E+02  0.51100000000E-03 0. -1.
<mgrwt>
<rscale>  0 0.91207270E+02</rscale>
<asrwt>0</asrwt>
<pdfrwt beam="1">  1        1 0.25292442E-02 0.91207270E+02</pdfrwt>
<pdfrwt beam="2">  1       -1 0.19461730E-01 0.91207270E+02</pdfrwt>
<totfact> 0.77607225E+04</totfact>
</mgrwt>
</event>
<event>
 5    1  0.2718303E+000  0.9248959E+02  0.7818608E-02  0.1296932E+00
         -1   -1    0    0    0  501 -0.00000000000E+00  0.00000000000E+00  0.10696579895E+02  0.10696580914E+02  0.46700000000E-02 0.  1.
          1   -1    0    0  501    0  0.00000000000E+00 -0.00000000000E+00 -0.19993126634E+03  0.19993126639E+03  0.46700000000E-02 0. -1.
         23    2    1    2    0    0  0.00000000000E+00  0.00000000000E+00 -0.18923468644E+03  0.21062784730E+03  0.92489585943E+02 0.  0.
        -11    1    3    3    0    0 -0.25348677095E+02 -0.29169450038E+02 -0.36773175665E+02  0.53344903175E+02  0.51100000000E-03 0.  1.
         11    1    3    3    0    0  0.25348677095E+02  0.29169450038E+02 -0.15246151078E+03  0.15728294413E+03  0.51100000000E-03 0. -1.
<mgrwt>
<rscale>  0 0.92489586E+02</rscale>
<asrwt>0</asrwt>
<pdfrwt beam="2">  1        1 0.30758653E-01 0.92489586E+02</pdfrwt>
<pdfrwt beam="1">  1       -1 0.16456279E-02 0.92489586E+02</pdfrwt>
<totfact> 0.11393814E+05</totfact>
</mgrwt>
</event>
<event>
 5    1  0.2718303E+000  0.9288869E+02  0.7818608E-02  0.1296003E+00
         -1   -1    0    0    0  501 -0.00000000000E+00  0.00000000000E+00  0.58803207751E+02  0.58803207936E+02  0.46700000000E-02 0.  1.
          1   -1    0    0  501    0  0.00000000000E+00 -0.00000000000E+00 -0.36682987805E+02  0.36682988102E+02  0.46700000000E-02 0. -1.
         23    2    1    2    0    0  0.00000000000E+00  0.00000000000E+00  0.22120219946E+02  0.95486196038E+02  0.92888694163E+02 0.  0.
        -11    1    3    3    0    0 -0.32376349945E+02 -0.16023902702E+02 -0.18946636567E+02  0.40791770384E+02  0.51100000000E-03 0. -1.
         11    1    3    3    0    0  0.32376349945E+02  0.16023902702E+02  0.41066856513E+02  0.54694425655E+02  0.51100000000E-03 0.  1.
<mgrwt>
<rscale>  0 0.92888694E+02</rscale>
<asrwt>0</asrwt>
<pdfrwt beam="2">  1        1 0.56435367E-02 0.92888694E+02</pdfrwt>
<pdfrwt beam="1">  1       -1 0.90466473E-02 0.92888694E+02</pdfrwt>
<totfact> 0.84859624E+04</totfact>
</mgrwt>
</event>
<event>
 5    1  0.2718303E+000  0.9490542E+02  0.7818608E-02  0.1291389E+00
         -1   -1    0    0    0  501 -0.00000000000E+00  0.00000000000E+00  0.15343618453E+03  0.15343618460E+03  0.46700000000E-02 0.  1.
          1   -1    0    0  501    0  0.00000000000E+00 -0.00000000000E+00 -0.14675544453E+02  0.14675545196E+02  0.46700000000E-02 0. -1.
         23    2    1    2    0    0  0.00000000000E+00  0.00000000000E+00  0.13876064008E+03  0.16811172980E+03  0.94905418502E+02 0.  0.
        -11    1    3    3    0    0 -0.27740409757E+02 -0.13967242855E+02  0.58295504463E+01  0.31600599126E+02  0.51100000000E-03 0. -1.
         11    1    3    3    0    0  0.27740409757E+02  0.13967242855E+02  0.13293108963E+03  0.13651113067E+03  0.51100000000E-03 0.  1.
<mgrwt>
<rscale>  0 0.94905419E+02</rscale>
<asrwt>0</asrwt>
<pdfrwt beam="2">  1        1 0.22577761E-02 0.94905419E+02</pdfrwt>
<pdfrwt beam="1">  1       -1 0.23605568E-01 0.94905419E+02</pdfrwt>
<totfact> 0.67025383E+04</totfact>
</mgrwt>
</event>
<event>
 5    1  0.2718303E+000  0.9173680E+02  0.7818608E-02  0.1298699E+00
         -1   -1    0    0    0  501 -0.00000000000E+00  0.00000000000E+00  0.12548186462E+03  0.12548186471E+03  0.46700000000E-02 0.  1.
          1   -1    0    0  501    0  0.00000000000E+00 -0.00000000000E+00 -0.16766645632E+02  0.16766646283E+02  0.46700000000E-02 0. -1.
         23    2    1    2    0    0  0.00000000000E+00  0.00000000000E+00  0.10871521899E+03  0.14224851099E+03  0.91736797629E+02 0.  0.
        -11    1    3    3    0    0 -0.25751733207E+02 -0.36204014243E+02  0.36675994690E+02  0.57610858327E+02  0.51100000000E-03 0.  1.
         11    1    3    3    0    0  0.25751733207E+02  0.36204014243E+02  0.72039224298E+02  0.84637652663E+02  0.51100000000E-03 0. -1.
<mgrwt>
<rscale>  0 0.91736798E+02</rscale>
<asrwt>0</asrwt>
<pdfrwt beam="2">  1        1 0.25794840E-02 0.91736798E+02</pdfrwt>
<pdfrwt beam="1">  1       -1 0.19304902E-01 0.91736798E+02</pdfrwt>
<totfact> 0.76582538E+04</totfact>
</mgrwt>
</event>
<event>
 5    1  0.2718303E+000  0.8939132E+02  0.7818608E-02  0.1304332E+00
         -1   -1    0    0    0  501 -0.00000000000E+00  0.00000000000E+00  0.99287255371E+02  0.99287255481E+02  0.46700000000E-02 0.  1.
          1   -1    0    0  501    0  0.00000000000E+00 -0.00000000000E+00 -0.20120426804E+02  0.20120427346E+02  0.46700000000E-02 0. -1.
         23    2    1    2    0    0  0.00000000000E+00  0.00000000000E+00  0.79166828567E+02  0.11940768283E+03  0.89391319337E+02 0.  0.
        -11    1    3    3    0    0 -0.27398814877E+02 -0.23048352722E+02  0.75321132190E+02  0.83397809171E+02  0.51100000000E-03 0.  1.
         11    1    3    3    0    0  0.27398814877E+02  0.23048352722E+02  0.38456963773E+01  0.36009873656E+02  0.51100000000E-03 0. -1.
<mgrwt>
<rscale>  0 0.89391319E+02</rscale>
<asrwt>0</asrwt>
<pdfrwt beam="2">  1        1 0.30954503E-02 0.89391319E+02</pdfrwt>
<pdfrwt beam="1">  1       -1 0.15274962E-01 0.89391319E+02</pdfrwt>
<totfact> 0.85730016E+04</totfact>
</mgrwt>
</event>
<event>
 5    1  0.2718303E+000  0.9315042E+02  0.7818608E-02  0.1295397E+00
         -1   -1    0    0    0  501 -0.00000000000E+00  0.00000000000E+00  0.32730387038E+02  0.32730387371E+02  0.46700000000E-02 0.  1.
          1   -1    0    0  501    0  0.00000000000E+00 -0.00000000000E+00 -0.66276341177E+02  0.66276341341E+02  0.46700000000E-02 0. -1.
         23    2    1    2    0    0  0.00000000000E+00  0.00000000000E+00 -0.33545954139E+02  0.99006728712E+02  0.93150422925E+02 0.  0.
        -11    1    3    3    0    0 -0.12420931242E+02 -0.38631956958E+02 -0.41069312178E+02  0.57735569923E+02  0.51100000000E-03 0. -1.
         11    1    3    3    0    0  0.12420931242E+02  0.38631956958E+02  0.75233580396E+01  0.41271158789E+02  0.51100000000E-03 0.  1.
<mgrwt>
<rscale>  0 0.93150423E+02</rscale>
<asrwt>0</asrwt>
<pdfrwt beam="2">  1        1 0.10196360E-01 0.93150423E+02</pdfrwt>
<pdfrwt beam="1">  1       -1 0.50354442E-02 0.93150423E+02</pdfrwt>
<totfact> 0.92205831E+04</totfact>
</mgrwt>
</event>
<event>
 5    1  0.2718303E+000  0.9179103E+02  0.7818608E-02  0.1298572E+00
          1   -1    0    0  501    0  0.00000000000E+00  0.00000000000E+00  0.14013146436E+02  0.14013147214E+02  0.46700000000E-02 0. -1.
         -1   -1    0    0    0  501 -0.00000000000E+00 -0.00000000000E+00 -0.15031586452E+03  0.15031586459E+03  0.46700000000E-02 0.  1.
         23    2    1    2    0    0  0.00000000000E+00  0.00000000000E+00 -0.13630271808E+03  0.16432901180E+03  0.91791029868E+02 0.  0.
        -11    1    3    3    0    0  0.23051473074E+02 -0.57376451034E+01  0.21512267102E+01  0.23852017920E+02  0.51100000000E-03 0. -1.
         11    1    3    3    0    0 -0.23051473074E+02  0.57376451034E+01 -0.13845394479E+03  0.14047699388E+03  0.51100000000E-03 0.  1.
<mgrwt>
<rscale>  0 0.91791030E+02</rscale>
<asrwt>0</asrwt>
<pdfrwt beam="1">  1        1 0.21558689E-02 0.91791030E+02</pdfrwt>
<pdfrwt beam="2">  1       -1 0.23125517E-01 0.91791030E+02</pdfrwt>
<totfact> 0.73458901E+04</totfact>
</mgrwt>
</event>
<event>
 5    1  0.2718303E+000  0.9051436E+02  0.7818608E-02  0.1301611E+00
         -1   -1    0    0    0  501 -0.00000000000E+00  0.00000000000E+00  0.11345773331E+02  0.11345774292E+02  0.46700000000E-02 0.  1.
          1   -1    0    0  501    0  0.00000000000E+00 -0.00000000000E+00 -0.18052644406E+03  0.18052644412E+03  0.46700000000E-02 0. -1.
         23    2    1    2    0    0  0.00000000000E+00  0.00000000000E+00 -0.16918067073E+03  0.19187221841E+03  0.90514357150E+02 0.  0.
        -11    1    3    3    0    0 -0.42083730992E+02  0.14313366404E+02 -0.66565894861E+02  0.80043308471E+02  0.51100000000E-03 0.  1.
         11    1    3    3    0    0  0.42083730992E+02 -0.14313366404E+02 -0.10261477587E+03  0.11182890994E+03  0.51100000000E-03 0. -1.
<mgrwt>
<rscale>  0 0.90514357E+02</rscale>
<asrwt>0</asrwt>
<pdfrwt beam="2">  1        1 0.27773297E-01 0.90514357E+02</pdfrwt>
<pdfrwt beam="1">  1       -1 0.17455038E-02 0.90514357E+02</pdfrwt>
<totfact> 0.11838618E+05</totfact>
</mgrwt>
</event>
<event>
 5    1  0.2718303E+000  0.9308634E+02  0.7818608E-02  0.1295545E+00
         -1   -1    0    0    0  501 -0.00000000000E+00  0.00000000000E+00  0.12562815355E+02  0.12562816223E+02  0.46700000000E-02 0.  1.
          1   -1    0    0  501    0  0.00000000000E+00 -0.00000000000E+00 -0.17243480746E+03  0.17243480753E+03  0.46700000000E-02 0. -1.
         23    2    1    2    0    0  0.00000000000E+00  0.00000000000E+00 -0.15987199211E+03  0.18499762375E+03  0.93086341276E+02 0.  0.
        -11    1    3    3    0    0  0.16436139716E+02  0.24130740484E+02 -0.79000361147E+01  0.30246485679E+02  0.51100000000E-03 0.  1.
         11    1    3    3    0    0 -0.16436139716E+02 -0.24130740484E+02 -0.15197195599E+03  0.15475113807E+03  0.51100000000E-03 0. -1.
<mgrwt>
<rscale>  0 0.93086341E+02</rscale>
<asrwt>0</asrwt>
<pdfrwt beam="2">  1        1 0.26528430E-01 0.93086341E+02</pdfrwt>
<pdfrwt beam="1">  1       -1 0.19327410E-02 0.93086341E+02</pdfrwt>
<totfact> 0.10883214E+05</totfact>
</mgrwt>
</event>
<event>
 5    1  0.2718303E+000  0.9115100E+02  0.7818608E-02  0.1300088E+00
         -1   -1    0    0    0  501 -0.00000000000E+00  0.00000000000E+00  0.21463986867E+02  0.21463987376E+02  0.46700000000E-02 0.  1.
          1   -1    0    0  501    0  0.00000000000E+00 -0.00000000000E+00 -0.96772608074E+02  0.96772608187E+02  0.46700000000E-02 0. -1.
         23    2    1    2    0    0  0.00000000000E+00  0.00000000000E+00 -0.75308621206E+02  0.11823659556E+03  0.91150996166E+02 0.  0.
        -11    1    3    3    0    0  0.23850147831E+02 -0.28936464478E+02 -0.40539084971E+01  0.37717140698E+02  0.51100000000E-03 0.  1.
         11    1    3    3    0    0 -0.23850147831E+02  0.28936464478E+02 -0.71254712709E+02  0.80519454864E+02  0.51100000000E-03 0. -1.
<mgrwt>
<rscale>  0 0.91150996E+02</rscale>
<asrwt>0</asrwt>
<pdfrwt beam="2">  1        1 0.14888093E-01 0.91150996E+02</pdfrwt>
<pdfrwt beam="1">  1       -1 0.33021519E-02 0.91150996E+02</pdfrwt>
<totfact> 0.10396627E+05</totfact>
</mgrwt>
</event>
<event>
 5    1  0.2718303E+000  0.9138570E+02  0.7818608E-02  0.1299530E+00
         -1   -1    0    0    0  501 -0.00000000000E+00  0.00000000000E+00  0.37047918120E+03  0.37047918123E+03  0.46700000000E-02 0.  1.
          1   -1    0    0  501    0  0.00000000000E+00 -0.00000000000E+00 -0.56355014143E+01  0.56355033492E+01  0.46700000000E-02 0. -1.
         23    2    1    2    0    0  0.00000000000E+00  0.00000000000E+00  0.36484367979E+03  0.37611468458E+03  0.91385695140E+02 0.  0.
        -11    1    3    3    0    0  0.65616043231E+01  0.45134044769E+02  0.19384215624E+03  0.19913542674E+03  0.51100000000E-03 0. -1.
         11    1    3    3    0    0 -0.65616043231E+01 -0.45134044769E+02  0.17100152355E+03  0.17697925784E+03  0.51100000000E-03 0.  1.
<mgrwt>
<rscale>  0 0.91385695E+02</rscale>
<asrwt>0</asrwt>
<pdfrwt beam="2">  1        1 0.86699986E-03 0.91385695E+02</pdfrwt>
<pdfrwt beam="1">  1       -1 0.56996831E-01 0.91385695E+02</pdfrwt>
<totfact> 0.54992611E+04</totfact>
</mgrwt>
</event>
<event>
 5    1  0.2718303E+000  0.9089327E+02  0.7818608E-02  0.1300703E+00
          1   -1    0    0  501    0  0.00000000000E+00  0.00000000000E+00  0.95702252629E+02  0.95702252743E+02  0.46700000000E-02 0. -1.
         -1   -1    0    0    0  501 -0.00000000000E+00 -0.00000000000E+00 -0.21581482290E+02  0.21581482795E+02  0.46700000000E-02 0.  1.
         23    2    1    2    0    0  0.00000000000E+00  0.00000000000E+00  0.74120770339E+02  0.11728373554E+03  0.90893267220E+02 0.  0.
        -11    1    3    3    0    0  0.13294654303E+02  0.22385191012E+02  0.85125578441E+02  0.89018024662E+02  0.51100000000E-03 0. -1.
         11    1    3    3    0    0 -0.13294654303E+02 -0.22385191012E+02 -0.11004808101E+02  0.28265710875E+02  0.51100000000E-03 0.  1.
<mgrwt>
<rscale>  0 0.90893267E+02</rscale>
<asrwt>0</asrwt>
<pdfrwt beam="1">  1        1 0.14723424E-01 0.90893267E+02</pdfrwt>
<pdfrwt beam="2">  1       -1 0.33202281E-02 0.90893267E+02</pdfrwt>
<totfact> 0.10458091E+05</totfact>
</mgrwt>
</event>
<event>
 5    1  0.2718303E+000  0.8869158E+02  0.7818608E-02  0.1306052E+00
         -1   -1    0    0    0  501 -0.00000000000E+00  0.00000000000E+00  0.48989162348E+02  0.48989162571E+02  0.46700000000E-02 0.  1.
          1   -1    0    0  501    0  0.00000000000E+00 -0.00000000000E+00 -0.40142531639E+02  0.40142531910E+02  0.46700000000E-02 0. -1.
         23    2    1    2    0    0  0.00000000000E+00  0.00000000000E+00  0.88466307094E+01  0.89131694481E+02  0.88691578440E+02 0.  0.
        -11    1    3    3    0    0  0.20142738945E+02 -0.93058202695E+01 -0.34162798891E+02  0.40736041185E+02  0.51100000000E-03 0. -1.
         11    1    3    3    0    0 -0.20142738945E+02  0.93058202695E+01  0.43009429601E+02  0.48395653296E+02  0.51100000000E-03 0.  1.
<mgrwt>
<rscale>  0 0.88691578E+02</rscale>
<asrwt>0</asrwt>
<pdfrwt beam="2">  1        1 0.61757742E-02 0.88691578E+02</pdfrwt>
<pdfrwt beam="1">  1       -1 0.75367942E-02 0.88691578E+02</pdfrwt>
<totfact> 0.98052050E+04</totfact>
</mgrwt>
</event>
<event>
 5    1  0.2718303E+000  0.9207733E+02  0.7818608E-02  0.1297898E+00
          1   -1    0    0  501    0  0.00000000000E+00  0.00000000000E+00  0.11106965807E+03  0.11106965817E+03  0.46700000000E-02 0. -1.
         -1   -1    0    0    0  501 -0.00000000000E+00 -0.00000000000E+00 -0.19083145780E+02  0.19083146352E+02  0.46700000000E-02 0.  1.
         23    2    1    2    0    0  0.00000000000E+00  0.00000000000E+00  0.91986512287E+02  0.13015280452E+03  0.92077326638E+02 0.  0.
        -11    1    3    3    0    0 -0.25007568432E+02  0.16579924910E+01  0.10058191529E+03  0.10365736395E+03  0.51100000000E-03 0. -1.
         11    1    3    3    0    0  0.25007568432E+02 -0.16579924910E+01 -0.85954029979E+01  0.26495440569E+02  0.51100000000E-03 0.  1.
<mgrwt>
<rscale>  0 0.92077327E+02</rscale>
<asrwt>0</asrwt>
<pdfrwt beam="1">  1        1 0.17087640E-01 0.92077327E+02</pdfrwt>
<pdfrwt beam="2">  1       -1 0.29358687E-02 0.92077327E+02</pdfrwt>
<totfact> 0.10350839E+05</totfact>
</mgrwt>
</event>
<event>
 5    1  0.2718303E+000  0.9604622E+02  0.7818608E-02  0.1288837E+00
          1   -1    0    0  501    0  0.00000000000E+00  0.00000000000E+00  0.10918686290E+03  0.10918686300E+03  0.46700000000E-02 0. -1.
         -1   -1    0    0    0  501 -0.00000000000E+00 -0.00000000000E+00 -0.21121765043E+02  0.21121765560E+02  0.46700000000E-02 0.  1.
         23    2    1    2    0    0  0.00000000000E+00  0.00000000000E+00  0.88065097856E+02  0.13030862856E+03  0.96046224374E+02 0.  0.
        -11    1    3    3    0    0 -0.15595106213E+02 -0.16153757545E+02 -0.13561614484E+02  0.26231061898E+02  0.51100000000E-03 0.  1.
         11    1    3    3    0    0  0.15595106213E+02  0.16153757545E+02  0.10162671234E+03  0.10407756666E+03  0.51100000000E-03 0. -1.
<mgrwt>
<rscale>  0 0.96046224E+02</rscale>
<asrwt>0</asrwt>
<pdfrwt beam="1">  1        1 0.16797979E-01 0.96046224E+02</pdfrwt>
<pdfrwt beam="2">  1       -1 0.32495024E-02 0.96046224E+02</pdfrwt>
<totfact> 0.91967045E+04</totfact>
</mgrwt>
</event>
<event>
 5    1  0.2718303E+000  0.9070260E+02  0.7818608E-02  0.1301159E+00
          1   -1    0    0  501    0  0.00000000000E+00  0.00000000000E+00  0.95787058814E+02  0.95787058928E+02  0.46700000000E-02 0. -1.
         -1   -1    0    0    0  501 -0.00000000000E+00 -0.00000000000E+00 -0.21472004884E+02  0.21472005392E+02  0.46700000000E-02 0.  1.
         23    2    1    2    0    0  0.00000000000E+00  0.00000000000E+00  0.74315053930E+02  0.11725906432E+03  0.90702596019E+02 0.  0.
        -11    1    3    3    0    0 -0.10863853176E+02  0.39052213935E+02  0.10864610267E+02  0.41965920407E+02  0.51100000000E-03 0.  1.
         11    1    3    3    0    0  0.10863853176E+02 -0.39052213935E+02  0.63450443663E+02  0.75293143913E+02  0.51100000000E-03 0. -1.
<mgrwt>
<rscale>  0 0.90702596E+02</rscale>
<asrwt>0</asrwt>
<pdfrwt beam="1">  1        1 0.14736471E-01 0.90702596E+02</pdfrwt>
<pdfrwt beam="2">  1       -1 0.33033853E-02 0.90702596E+02</pdfrwt>
<totfact> 0.10519645E+05</totfact>
</mgrwt>
</event>
<event>
 5    1  0.2718303E+000  0.9190206E+02  0.7818608E-02  0.1298310E+00
         -1   -1    0    0    0  501 -0.00000000000E+00  0.00000000000E+00  0.11275600706E+02  0.11275601673E+02  0.46700000000E-02 0.  1.
          1   -1    0    0  501    0  0.00000000000E+00 -0.00000000000E+00 -0.18726250296E+03  0.18726250302E+03  0.46700000000E-02 0. -1.
         23    2    1    2    0    0  0.00000000000E+00  0.00000000000E+00 -0.17598690225E+03  0.19853810469E+03  0.91902063357E+02 0.  0.
        -11    1    3    3    0    0  0.10269501647E+01 -0.45007897686E+02 -0.68107704300E+02  0.81642053294E+02  0.51100000000E-03 0. -1.
         11    1    3    3    0    0 -0.10269501647E+01  0.45007897686E+02 -0.10787919795E+03  0.11689605140E+03  0.51100000000E-03 0.  1.
<mgrwt>
<rscale>  0 0.91902063E+02</rscale>
<asrwt>0</asrwt>
<pdfrwt beam="2">  1        1 0.28809614E-01 0.91902063E+02</pdfrwt>
<pdfrwt beam="1">  1       -1 0.17347080E-02 0.91902063E+02</pdfrwt>
<totfact> 0.11444622E+05</totfact>
</mgrwt>
</event>
<event>
 5    1  0.2718303E+000  0.8616935E+02  0.7818608E-02  0.1312403E+00
          1   -1    0    0  501    0  0.00000000000E+00  0.00000000000E+00  0.13684104624E+03  0.13684104632E+03  0.46700000000E-02 0. -1.
         -1   -1    0    0    0  501 -0.00000000000E+00 -0.00000000000E+00 -0.13565295099E+02  0.13565295903E+02  0.46700000000E-02 0.  1.
         23    2    1    2    0    0  0.00000000000E+00  0.00000000000E+00  0.12327575114E+03  0.15040634223E+03  0.86169350477E+02 0.  0.
        -11    1    3    3    0    0  0.24487258118E+02  0.30402256080E+02  0.93459459448E+02  0.10128471526E+03  0.51100000000E-03 0.  1.
         11    1    3    3    0    0 -0.24487258118E+02 -0.30402256080E+02  0.29816291695E+02  0.49121626964E+02  0.51100000000E-03 0. -1.
<mgrwt>
<rscale>  0 0.86169350E+02</rscale>
<asrwt>0</asrwt>
<pdfrwt beam="1">  1        1 0.21052469E-01 0.86169350E+02</pdfrwt>
<pdfrwt beam="2">  1       -1 0.20869685E-02 0.86169350E+02</pdfrwt>
<totfact> 0.12838846E+05</totfact>
</mgrwt>
</event>
<event>
 5    1  0.2718303E+000  0.9435092E+02  0.7818608E-02  0.1292645E+00
          1   -1    0    0  501    0  0.00000000000E+00  0.00000000000E+00  0.12873472740E+02  0.12873473587E+02  0.46700000000E-02 0. -1.
         -1   -1    0    0    0  501 -0.00000000000E+00 -0.00000000000E+00 -0.17287673299E+03  0.17287673306E+03  0.46700000000E-02 0.  1.
         23    2    1    2    0    0  0.00000000000E+00  0.00000000000E+00 -0.16000326025E+03  0.18575020664E+03  0.94350919320E+02 0.  0.
        -11    1    3    3    0    0 -0.44425727306E+02  0.10492257253E+02 -0.10344434679E+03  0.11306841112E+03  0.51100000000E-03 0.  1.
         11    1    3    3    0    0  0.44425727306E+02 -0.10492257253E+02 -0.56558913463E+02  0.72681795528E+02  0.51100000000E-03 0. -1.
<mgrwt>
<rscale>  0 0.94350919E+02</rscale>
<asrwt>0</asrwt>
<pdfrwt beam="1">  1        1 0.19805345E-02 0.94350919E+02</pdfrwt>
<pdfrwt beam="2">  1       -1 0.26596419E-01 0.94350919E+02</pdfrwt>
<totfact> 0.66067394E+04</totfact>
</mgrwt>
</event>
<event>
 5    1  0.2718303E+000  0.9181103E+02  0.7818608E-02  0.1298524E+00
          1   -1    0    0  501    0  0.00000000000E+00  0.00000000000E+00  0.47044790294E+02  0.47044790526E+02  0.46700000000E-02 0. -1.
         -1   -1    0    0    0  501 -0.00000000000E+00 -0.00000000000E+00 -0.44793832584E+02  0.44793832827E+02  0.46700000000E-02 0.  1.
         23    2    1    2    0    0  0.00000000000E+00  0.00000000000E+00  0.22509577106E+01  0.91838623353E+02  0.91811033807E+02 0.  0.
        -11    1    3    3    0    0  0.97173946137E+00 -0.35492773763E+02 -0.27980261562E+02  0.45205932181E+02  0.51100000000E-03 0. -1.
         11    1    3    3    0    0 -0.97173946137E+00  0.35492773763E+02  0.30231219273E+02  0.46632691172E+02  0.51100000000E-03 0.  1.
<mgrwt>
<rscale>  0 0.91811034E+02</rscale>
<asrwt>0</asrwt>
<pdfrwt beam="1">  1        1 0.72376601E-02 0.91811034E+02</pdfrwt>
<pdfrwt beam="2">  1       -1 0.68913589E-02 0.91811034E+02</pdfrwt>
<totfact> 0.91119870E+04</totfact>
</mgrwt>
</event>
<event>
 4    1  0.2718303E+000  0.4081803E+02  0.7818608E-02  0.1502277E+00
         -1   -1    0    0    0  501 -0.00000000000E+00  0.00000000000E+00  0.14953039931E+03  0.14953039939E+03  0.46700000000E-02 0.  1.
          1   -1    0    0  501    0  0.00000000000E+00 -0.00000000000E+00 -0.27855707476E+01  0.27855746622E+01  0.46700000000E-02 0. -1.
        -11    1    1    2    0    0 -0.79265775393E+01 -0.18702353494E+02  0.80759778389E+02  0.83275149135E+02  0.51100000000E-03 0. -1.
         11    1    1    2    0    0  0.79265775393E+01  0.18702353494E+02  0.65985050176E+02  0.69040824913E+02  0.51100000000E-03 0.  1.
<mgrwt>
<rscale>  0 0.40818026E+02</rscale>
<asrwt>0</asrwt>
<pdfrwt beam="2">  1        1 0.42854959E-03 0.40818026E+02</pdfrwt>
<pdfrwt beam="1">  1       -1 0.23004681E-01 0.40818026E+02</pdfrwt>
<totfact> 0.56649494E+05</totfact>
</mgrwt>
</event>
<event>
 5    1  0.2718303E+000  0.9137762E+02  0.7818608E-02  0.1299549E+00
          1   -1    0    0  501    0  0.00000000000E+00  0.00000000000E+00  0.36521895299E+02  0.36521895597E+02  0.46700000000E-02 0. -1.
         -1   -1    0    0    0  501 -0.00000000000E+00 -0.00000000000E+00 -0.57156599426E+02  0.57156599617E+02  0.46700000000E-02 0.  1.
         23    2    1    2    0    0  0.00000000000E+00  0.00000000000E+00 -0.20634704127E+02  0.93678495215E+02  0.91377620079E+02 0.  0.
        -11    1    3    3    0    0  0.39886700894E+02  0.18728061320E+02 -0.22695233417E+02  0.49565742294E+02  0.51100000000E-03 0.  1.
         11    1    3    3    0    0 -0.39886700894E+02 -0.18728061320E+02  0.20605292896E+01  0.44112752921E+02  0.51100000000E-03 0. -1.
<mgrwt>
<rscale>  0 0.91377620E+02</rscale>
<asrwt>0</asrwt>
<pdfrwt beam="1">  1        1 0.56187532E-02 0.91377620E+02</pdfrwt>
<pdfrwt beam="2">  1       -1 0.87933230E-02 0.91377620E+02</pdfrwt>
<totfact> 0.88853779E+04</totfact>
</mgrwt>
</event>
<event>
 5    1  0.2718303E+000  0.9066800E+02  0.7818608E-02  0.1301242E+00
          1   -1    0    0  501    0  0.00000000000E+00  0.00000000000E+00  0.25966601326E+02  0.25966601746E+02  0.46700000000E-02 0. -1.
         -1   -1    0    0    0  501 -0.00000000000E+00 -0.00000000000E+00 -0.79146728617E+02  0.79146728755E+02  0.46700000000E-02 0.  1.
         23    2    1    2    0    0  0.00000000000E+00  0.00000000000E+00 -0.53180127292E+02  0.10511333050E+03  0.90668000475E+02 0.  0.
        -11    1    3    3    0    0 -0.26051242477E+02  0.24371634497E+02 -0.59020563249E+02  0.68964271106E+02  0.51100000000E-03 0.  1.
         11    1    3    3    0    0  0.26051242477E+02 -0.24371634497E+02  0.58404359574E+01  0.36149059395E+02  0.51100000000E-03 0. -1.
<mgrwt>
<rscale>  0 0.90668000E+02</rscale>
<asrwt>0</asrwt>
<pdfrwt beam="1">  1        1 0.39948618E-02 0.90668000E+02</pdfrwt>
<pdfrwt beam="2">  1       -1 0.12176420E-01 0.90668000E+02</pdfrwt>
<totfact> 0.86026520E+04</totfact>
</mgrwt>
</event>
<event>
 5    1  0.2718303E+000  0.9351992E+02  0.7818608E-02  0.1294545E+00
         -1   -1    0    0    0  501 -0.00000000000E+00  0.00000000000E+00  0.17721141310E+02  0.17721141925E+02  0.46700000000E-02 0.  1.
          1   -1    0    0  501    0  0.00000000000E+00 -0.00000000000E+00 -0.12338336267E+03  0.12338336276E+03  0.46700000000E-02 0. -1.
         23    2    1    2    0    0  0.00000000000E+00  0.00000000000E+00 -0.10566222136E+03  0.14110450469E+03  0.93519924184E+02 0.  0.
        -11    1    3    3    0    0 -0.18323512475E+02  0.91495363835E+01 -0.11625583123E+03  0.11804610718E+03  0.51100000000E-03 0. -1.
         11    1    3    3    0    0  0.18323512475E+02 -0.91495363835E+01  0.10593609864E+02  0.23058397508E+02  0.51100000000E-03 0.  1.
<mgrwt>
<rscale>  0 0.93519924E+02</rscale>
<asrwt>0</asrwt>
<pdfrwt beam="2">  1        1 0.18982055E-01 0.93519924E+02</pdfrwt>
<pdfrwt beam="1">  1       -1 0.27263296E-02 0.93519924E+02</pdfrwt>
<totfact> 0.10105160E+05</totfact>
</mgrwt>
</event>
<event>
 5    1  0.2718303E+000  0.9180258E+02  0.7818608E-02  0.1298544E+00
          1   -1    0    0  501    0  0.00000000000E+00  0.00000000000E+00  0.96908730022E+01  0.96908741274E+01  0.46700000000E-02 0. -1.
         -1   -1    0    0    0  501 -0.00000000000E+00 -0.00000000000E+00 -0.21741366628E+03  0.21741366633E+03  0.46700000000E-02 0.  1.
         23    2    1    2    0    0  0.00000000000E+00  0.00000000000E+00 -0.20772279328E+03  0.22710454045E+03  0.91802578663E+02 0.  0.
        -11    1    3    3    0    0 -0.22720886813E+02  0.36036620136E+02 -0.61584725235E+02  0.74883610162E+02  0.51100000000E-03 0. -1.
         11    1    3    3    0    0  0.22720886813E+02 -0.36036620136E+02 -0.14613806804E+03  0.15222093029E+03  0.51100000000E-03 0.  1.
<mgrwt>
<rscale>  0 0.91802579E+02</rscale>
<asrwt>0</asrwt>
<pdfrwt beam="1">  1        1 0.14909038E-02 0.91802579E+02</pdfrwt>
<pdfrwt beam="2">  1       -1 0.33448253E-01 0.91802579E+02</pdfrwt>
<totfact> 0.66536891E+04</totfact>
</mgrwt>
</event>
<event>
 5    1  0.2718303E+000  0.9139638E+02  0.7818608E-02  0.1299505E+00
          1   -1    0    0  501    0  0.00000000000E+00  0.00000000000E+00  0.45053744146E+02  0.45053744389E+02  0.46700000000E-02 0. -1.
         -1   -1    0    0    0  501 -0.00000000000E+00 -0.00000000000E+00 -0.46351853358E+02  0.46351853593E+02  0.46700000000E-02 0.  1.
         23    2    1    2    0    0  0.00000000000E+00  0.00000000000E+00 -0.12981092115E+01  0.91405597982E+02  0.91396379878E+02 0.  0.
        -11    1    3    3    0    0 -0.12243193946E+02 -0.27857929654E+02 -0.34745960644E+02  0.46187030907E+02  0.51100000000E-03 0.  1.
         11    1    3    3    0    0  0.12243193946E+02  0.27857929654E+02  0.33447851433E+02  0.45218567075E+02  0.51100000000E-03 0. -1.
<mgrwt>
<rscale>  0 0.91396380E+02</rscale>
<asrwt>0</asrwt>
<pdfrwt beam="1">  1        1 0.69313453E-02 0.91396380E+02</pdfrwt>
<pdfrwt beam="2">  1       -1 0.71310544E-02 0.91396380E+02</pdfrwt>
<totfact> 0.91686230E+04</totfact>
</mgrwt>
</event>
<event>
 5    1  0.2718303E+000  0.9128071E+02  0.7818608E-02  0.1299780E+00
          1   -1    0    0  501    0  0.00000000000E+00  0.00000000000E+00  0.70860469170E+01  0.70860484559E+01  0.46700000000E-02 0. -1.
         -1   -1    0    0    0  501 -0.00000000000E+00 -0.00000000000E+00 -0.29396388136E+03  0.29396388139E+03  0.46700000000E-02 0.  1.
         23    2    1    2    0    0  0.00000000000E+00  0.00000000000E+00 -0.28687783444E+03  0.30104992985E+03  0.91280711926E+02 0.  0.
        -11    1    3    3    0    0  0.16618396505E+02 -0.42288055670E+02 -0.12921841846E+03  0.13697390417E+03  0.51100000000E-03 0. -1.
         11    1    3    3    0    0 -0.16618396505E+02  0.42288055670E+02 -0.15765941598E+03  0.16407602568E+03  0.51100000000E-03 0.  1.
<mgrwt>
<rscale>  0 0.91280712E+02</rscale>
<asrwt>0</asrwt>
<pdfrwt beam="1">  1        1 0.10901614E-02 0.91280712E+02</pdfrwt>
<pdfrwt beam="2">  1       -1 0.45225203E-01 0.91280712E+02</pdfrwt>
<totfact> 0.60887398E+04</totfact>
</mgrwt>
</event>
<event>
 5    1  0.2718303E+000  0.9097764E+02  0.7818608E-02  0.1300501E+00
         -1   -1    0    0    0  501 -0.00000000000E+00  0.00000000000E+00  0.16038407858E+02  0.16038408537E+02  0.46700000000E-02 0.  1.
          1   -1    0    0  501    0  0.00000000000E+00 -0.00000000000E+00 -0.12901734053E+03  0.12901734062E+03  0.46700000000E-02 0. -1.
         23    2    1    2    0    0  0.00000000000E+00  0.00000000000E+00 -0.11297893268E+03  0.14505574915E+03  0.90977640849E+02 0.  0.
        -11    1    3    3    0    0 -0.15293526501E+02  0.35890509773E+02 -0.19192102529E+02  0.43478241045E+02  0.51100000000E-03 0.  1.
         11    1    3    3    0    0  0.15293526501E+02 -0.35890509773E+02 -0.93786830146E+02  0.10157750811E+03  0.51100000000E-03 0. -1.
<mgrwt>
<rscale>  0 0.90977641E+02</rscale>
<asrwt>0</asrwt>
<pdfrwt beam="2">  1        1 0.19848821E-01 0.90977641E+02</pdfrwt>
<pdfrwt beam="1">  1       -1 0.24674475E-02 0.90977641E+02</pdfrwt>
<totfact> 0.10976815E+05</totfact>
</mgrwt>
</event>
<event>
 5    1  0.2718303E+000  0.9073001E+02  0.7818608E-02  0.1301093E+00
         -1   -1    0    0    0  501 -0.00000000000E+00  0.00000000000E+00  0.36628565366E+02  0.36628565664E+02  0.46700000000E-02 0.  1.
          1   -1    0    0  501    0  0.00000000000E+00 -0.00000000000E+00 -0.56185204755E+02  0.56185204949E+02  0.46700000000E-02 0. -1.
         23    2    1    2    0    0  0.00000000000E+00  0.00000000000E+00 -0.19556639389E+02  0.92813770613E+02  0.90730005352E+02 0.  0.
        -11    1    3    3    0    0  0.16424558327E+02 -0.23970405184E+02 -0.45415709619E+02  0.53915982059E+02  0.51100000000E-03 0. -1.
         11    1    3    3    0    0 -0.16424558327E+02  0.23970405184E+02  0.25859070230E+02  0.38897788554E+02  0.51100000000E-03 0.  1.
<mgrwt>
<rscale>  0 0.90730005E+02</rscale>
<asrwt>0</asrwt>
<pdfrwt beam="2">  1        1 0.86438777E-02 0.90730005E+02</pdfrwt>
<pdfrwt beam="1">  1       -1 0.56351639E-02 0.90730005E+02</pdfrwt>
<totfact> 0.96732352E+04</totfact>
</mgrwt>
</event>
<event>
 5    1  0.2718303E+000  0.9043405E+02  0.7818608E-02  0.1301804E+00
          1   -1    0    0  501    0  0.00000000000E+00  0.00000000000E+00  0.23838848589E+03  0.23838848593E+03  0.46700000000E-02 0. -1.
         -1   -1    0    0    0  501 -0.00000000000E+00 -0.00000000000E+00 -0.85766690100E+01  0.85766702814E+01  0.46700000000E-02 0.  1.
         23    2    1    2    0    0  0.00000000000E+00  0.00000000000E+00  0.22981181688E+03  0.24696515622E+03  0.90434048940E+02 0.  0.
        -11    1    3    3    0    0 -0.40924923104E+02 -0.18546436391E+02  0.10104556994E+03  0.11058493043E+03  0.51100000000E-03 0.  1.
         11    1    3    3    0    0  0.40924923104E+02  0.18546436391E+02  0.12876624694E+03  0.13638022579E+03  0.51100000000E-03 0. -1.
<mgrwt>
<rscale>  0 0.90434049E+02</rscale>
<asrwt>0</asrwt>
<pdfrwt beam="1">  1        1 0.36675152E-01 0.90434049E+02</pdfrwt>
<pdfrwt beam="2">  1       -1 0.13194876E-02 0.90434049E+02</pdfrwt>
<totfact> 0.12523538E+05</totfact>
</mgrwt>
</event>
<event>
 5    1  0.2718303E+000  0.9147661E+02  0.7818608E-02  0.1299315E+00
         -1   -1    0    0    0  501 -0.00000000000E+00  0.00000000000E+00  0.33572476949E+02  0.33572477273E+02  0.46700000000E-02 0.  1.
          1   -1    0    0  501    0  0.00000000000E+00 -0.00000000000E+00 -0.62312725844E+02  0.62312726019E+02  0.46700000000E-02 0. -1.
         23    2    1    2    0    0  0.00000000000E+00  0.00000000000E+00 -0.28740248896E+02  0.95885203293E+02  0.91476610693E+02 0.  0.
        -11    1    3    3    0    0 -0.23920482521E+02  0.38323684474E+02 -0.68773138626E+01  0.45696736448E+02  0.51100000000E-03 0. -1.
         11    1    3    3    0    0  0.23920482521E+02 -0.38323684474E+02 -0.21862935033E+02  0.50188466845E+02  0.51100000000E-03 0.  1.
<mgrwt>
<rscale>  0 0.91476611E+02</rscale>
<asrwt>0</asrwt>
<pdfrwt beam="2">  1        1 0.95865732E-02 0.91476611E+02</pdfrwt>
<pdfrwt beam="1">  1       -1 0.51649965E-02 0.91476611E+02</pdfrwt>
<totfact> 0.96047253E+04</totfact>
</mgrwt>
</event>
<event>
 5    1  0.2718303E+000  0.9246539E+02  0.7818608E-02  0.1296989E+00
          1   -1    0    0  501    0  0.00000000000E+00  0.00000000000E+00  0.89315490351E+02  0.89315490473E+02  0.46700000000E-02 0. -1.
         -1   -1    0    0    0  501 -0.00000000000E+00 -0.00000000000E+00 -0.23931592154E+02  0.23931592610E+02  0.46700000000E-02 0.  1.
         23    2    1    2    0    0  0.00000000000E+00  0.00000000000E+00  0.65383898197E+02  0.11324708308E+03  0.92465386407E+02 0.  0.
        -11    1    3    3    0    0 -0.39768477352E+02  0.20979114288E+01  0.39290954241E+01  0.40017131511E+02  0.51100000000E-03 0.  1.
         11    1    3    3    0    0  0.39768477352E+02 -0.20979114288E+01  0.61454802773E+02  0.73229951573E+02  0.51100000000E-03 0. -1.
<mgrwt>
<rscale>  0 0.92465386E+02</rscale>
<asrwt>0</asrwt>
<pdfrwt beam="1">  1        1 0.13740845E-01 0.92465386E+02</pdfrwt>
<pdfrwt beam="2">  1       -1 0.36817835E-02 0.92465386E+02</pdfrwt>
<totfact> 0.98665259E+04</totfact>
</mgrwt>
</event>
<event>
 5    1  0.2718303E+000  0.8975530E+02  0.7818608E-02  0.1303445E+00
          1   -1    0    0  501    0  0.00000000000E+00  0.00000000000E+00  0.94376614637E+02  0.94376614752E+02  0.46700000000E-02 0. -1.
         -1   -1    0    0    0  501 -0.00000000000E+00 -0.00000000000E+00 -0.21340068480E+02  0.21340068991E+02  0.46700000000E-02 0.  1.
         23    2    1    2    0    0  0.00000000000E+00  0.00000000000E+00  0.73036546156E+02  0.11571668374E+03  0.89755299689E+02 0.  0.
        -11    1    3    3    0    0  0.12792686930E+02 -0.15777301589E+02  0.88111120949E+02  0.90422042221E+02  0.51100000000E-03 0. -1.
         11    1    3    3    0    0 -0.12792686930E+02  0.15777301589E+02 -0.15074574793E+02  0.25294641522E+02  0.51100000000E-03 0.  1.
<mgrwt>
<rscale>  0 0.89755300E+02</rscale>
<asrwt>0</asrwt>
<pdfrwt beam="1">  1        1 0.14519480E-01 0.89755300E+02</pdfrwt>
<pdfrwt beam="2">  1       -1 0.32830874E-02 0.89755300E+02</pdfrwt>
<totfact> 0.10798599E+05</totfact>
</mgrwt>
</event>
<event>
 5    1  0.2718303E+000  0.9359781E+02  0.7818608E-02  0.1294366E+00
          1   -1    0    0  501    0  0.00000000000E+00  0.00000000000E+00  0.28041678151E+02  0.28041678540E+02  0.46700000000E-02 0. -1.
         -1   -1    0    0    0  501 -0.00000000000E+00 -0.00000000000E+00 -0.78102944361E+02  0.78102944501E+02  0.46700000000E-02 0.  1.
         23    2    1    2    0    0  0.00000000000E+00  0.00000000000E+00 -0.50061266210E+02  0.10614462304E+03  0.93597813147E+02 0.  0.
        -11    1    3    3    0    0  0.16368965204E+02  0.14931335419E+02  0.21717139003E+02  0.31024537482E+02  0.51100000000E-03 0. -1.
         11    1    3    3    0    0 -0.16368965204E+02 -0.14931335419E+02 -0.71778405213E+02  0.75120085559E+02  0.51100000000E-03 0.  1.
<mgrwt>
<rscale>  0 0.93597813E+02</rscale>
<asrwt>0</asrwt>
<pdfrwt beam="1">  1        1 0.43141044E-02 0.93597813E+02</pdfrwt>
<pdfrwt beam="2">  1       -1 0.12015838E-01 0.93597813E+02</pdfrwt>
<totfact> 0.79475873E+04</totfact>
</mgrwt>
</event>
<event>
 5    1  0.2718303E+000  0.9238632E+02  0.7818608E-02  0.1297174E+00
          1   -1    0    0  501    0  0.00000000000E+00  0.00000000000E+00  0.25791262368E+02  0.25791262791E+02  0.46700000000E-02 0. -1.
         -1   -1    0    0    0  501 -0.00000000000E+00 -0.00000000000E+00 -0.82733753775E+02  0.82733753907E+02  0.46700000000E-02 0.  1.
         23    2    1    2    0    0  0.00000000000E+00  0.00000000000E+00 -0.56942491407E+02  0.10852501670E+03  0.92386318910E+02 0.  0.
        -11    1    3    3    0    0  0.28795433806E+02  0.21534065934E+02 -0.62535449451E+02  0.72135812479E+02  0.51100000000E-03 0.  1.
         11    1    3    3    0    0 -0.28795433806E+02 -0.21534065934E+02  0.55929580439E+01  0.36389204219E+02  0.51100000000E-03 0. -1.
<mgrwt>
<rscale>  0 0.92386319E+02</rscale>
<asrwt>0</asrwt>
<pdfrwt beam="1">  1        1 0.39678866E-02 0.92386319E+02</pdfrwt>
<pdfrwt beam="2">  1       -1 0.12728270E-01 0.92386319E+02</pdfrwt>
<totfact> 0.81370228E+04</totfact>
</mgrwt>
</event>
<event>
 5    1  0.2718303E+000  0.8974218E+02  0.7818608E-02  0.1303477E+00
         -1   -1    0    0    0  501 -0.00000000000E+00  0.00000000000E+00  0.16353700967E+02  0.16353701634E+02  0.46700000000E-02 0.  1.
          1   -1    0    0  501    0  0.00000000000E+00 -0.00000000000E+00 -0.12311675624E+03  0.12311675633E+03  0.46700000000E-02 0. -1.
         23    2    1    2    0    0  0.00000000000E+00  0.00000000000E+00 -0.10676305527E+03  0.13947045796E+03  0.89742178898E+02 0.  0.
        -11    1    3    3    0    0 -0.18740563569E+02  0.40762079561E+02 -0.54642969874E+02  0.70700848721E+02  0.51100000000E-03 0.  1.
         11    1    3    3    0    0  0.18740563569E+02 -0.40762079561E+02 -0.52120085401E+02  0.68769609243E+02  0.51100000000E-03 0. -1.
<mgrwt>
<rscale>  0 0.89742179E+02</rscale>
<asrwt>0</asrwt>
<pdfrwt beam="2">  1        1 0.18941039E-01 0.89742179E+02</pdfrwt>
<pdfrwt beam="1">  1       -1 0.25159541E-02 0.89742179E+02</pdfrwt>
<totfact> 0.11296735E+05</totfact>
</mgrwt>
</event>
<event>
 5    1  0.2718303E+000  0.9037007E+02  0.7818608E-02  0.1301958E+00
         -1   -1    0    0    0  501 -0.00000000000E+00  0.00000000000E+00  0.12365751325E+03  0.12365751333E+03  0.46700000000E-02 0.  1.
          1   -1    0    0  501    0  0.00000000000E+00 -0.00000000000E+00 -0.16510824369E+02  0.16510825029E+02  0.46700000000E-02 0. -1.
         23    2    1    2    0    0  0.00000000000E+00  0.00000000000E+00  0.10714668888E+03  0.14016833836E+03  0.90370073266E+02 0.  0.
        -11    1    3    3    0    0 -0.27526151526E+01 -0.43733796221E+02  0.70667676773E+02  0.83151322075E+02  0.51100000000E-03 0.  1.
         11    1    3    3    0    0  0.27526151526E+01  0.43733796221E+02  0.36479012105E+02  0.57017016289E+02  0.51100000000E-03 0. -1.
<mgrwt>
<rscale>  0 0.90370073E+02</rscale>
<asrwt>0</asrwt>
<pdfrwt beam="2">  1        1 0.25401269E-02 0.90370073E+02</pdfrwt>
<pdfrwt beam="1">  1       -1 0.19024233E-01 0.90370073E+02</pdfrwt>
<totfact> 0.79859059E+04</totfact>
</mgrwt>
</event>
<event>
 5    1  0.2718303E+000  0.9234556E+02  0.7818608E-02  0.1297269E+00
         -1   -1    0    0    0  501 -0.00000000000E+00  0.00000000000E+00  0.17533523819E+02  0.17533524441E+02  0.46700000000E-02 0.  1.
          1   -1    0    0  501    0  0.00000000000E+00 -0.00000000000E+00 -0.12159138485E+03  0.12159138494E+03  0.46700000000E-02 0. -1.
         23    2    1    2    0    0  0.00000000000E+00  0.00000000000E+00 -0.10405786104E+03  0.13912490939E+03  0.92345557382E+02 0.  0.
        -11    1    3    3    0    0  0.29731914287E+02 -0.10125075696E+02 -0.10301735270E+03  0.10769901969E+03  0.51100000000E-03 0.  1.
         11    1    3    3    0    0 -0.29731914287E+02  0.10125075696E+02 -0.10405083330E+01  0.31425889691E+02  0.51100000000E-03 0. -1.
<mgrwt>
<rscale>  0 0.92345557E+02</rscale>
<asrwt>0</asrwt>
<pdfrwt beam="2">  1        1 0.18706366E-01 0.92345557E+02</pdfrwt>
<pdfrwt beam="1">  1       -1 0.26974653E-02 0.92345557E+02</pdfrwt>
<totfact> 0.10431472E+05</totfact>
</mgrwt>
</event>
<event>
 5    1  0.2718303E+000  0.9209394E+02  0.7818608E-02  0.1297859E+00
          1   -1    0    0  501    0  0.00000000000E+00  0.00000000000E+00  0.87355678920E+01  0.87355691403E+01  0.46700000000E-02 0. -1.
         -1   -1    0    0    0  501 -0.00000000000E+00 -0.00000000000E+00 -0.24272301869E+03  0.24272301873E+03  0.46700000000E-02 0.  1.
         23    2    1    2    0    0  0.00000000000E+00  0.00000000000E+00 -0.23398745080E+03  0.25145858787E+03  0.92093942717E+02 0.  0.
        -11    1    3    3    0    0 -0.37248560384E+02 -0.34886301692E+01 -0.43692371190E+02  0.57520857884E+02  0.51100000000E-03 0. -1.
         11    1    3    3    0    0  0.37248560384E+02  0.34886301692E+01 -0.19029507961E+03  0.19393772999E+03  0.51100000000E-03 0.  1.
<mgrwt>
<rscale>  0 0.92093943E+02</rscale>
<asrwt>0</asrwt>
<pdfrwt beam="1">  1        1 0.13439338E-02 0.92093943E+02</pdfrwt>
<pdfrwt beam="2">  1       -1 0.37341998E-01 0.92093943E+02</pdfrwt>
<totfact> 0.63720422E+04</totfact>
</mgrwt>
</event>
<event>
 5    1  0.2718303E+000  0.9023067E+02  0.7818608E-02  0.1302294E+00
         -1   -1    0    0    0  501 -0.00000000000E+00  0.00000000000E+00  0.11303373259E+03  0.11303373269E+03  0.46700000000E-02 0.  1.
          1   -1    0    0  501    0  0.00000000000E+00 -0.00000000000E+00 -0.18006955224E+02  0.18006955829E+02  0.46700000000E-02 0. -1.
         23    2    1    2    0    0  0.00000000000E+00  0.00000000000E+00  0.95026777368E+02  0.13104068852E+03  0.90230669011E+02 0.  0.
        -11    1    3    3    0    0  0.29758961661E+02  0.28546685400E+02  0.74089988811E+02  0.84792897632E+02  0.51100000000E-03 0.  1.
         11    1    3    3    0    0 -0.29758961661E+02 -0.28546685400E+02  0.20936788556E+02  0.46247790886E+02  0.51100000000E-03 0. -1.
<mgrwt>
<rscale>  0 0.90230669E+02</rscale>
<asrwt>0</asrwt>
<pdfrwt beam="2">  1        1 0.27703008E-02 0.90230669E+02</pdfrwt>
<pdfrwt beam="1">  1       -1 0.17389805E-01 0.90230669E+02</pdfrwt>
<totfact> 0.81649077E+04</totfact>
</mgrwt>
</event>
<event>
 5    1  0.2718303E+000  0.9315665E+02  0.7818608E-02  0.1295383E+00
         -1   -1    0    0    0  501 -0.00000000000E+00  0.00000000000E+00  0.34719641400E+02  0.34719641714E+02  0.46700000000E-02 0.  1.
          1   -1    0    0  501    0  0.00000000000E+00 -0.00000000000E+00 -0.62487408322E+02  0.62487408496E+02  0.46700000000E-02 0. -1.
         23    2    1    2    0    0  0.00000000000E+00  0.00000000000E+00 -0.27767766922E+02  0.97207050211E+02  0.93156651565E+02 0.  0.
        -11    1    3    3    0    0 -0.14453269374E+02  0.41738030860E+01 -0.59882544902E+02  0.61743313905E+02  0.51100000000E-03 0. -1.
         11    1    3    3    0    0  0.14453269374E+02 -0.41738030860E+01  0.32114777980E+02  0.35463736306E+02  0.51100000000E-03 0.  1.
<mgrwt>
<rscale>  0 0.93156652E+02</rscale>
<asrwt>0</asrwt>
<pdfrwt beam="2">  1        1 0.96134475E-02 0.93156652E+02</pdfrwt>
<pdfrwt beam="1">  1       -1 0.53414833E-02 0.93156652E+02</pdfrwt>
<totfact> 0.91352478E+04</totfact>
</mgrwt>
</event>
<event>
 5    1  0.2718303E+000  0.9132779E+02  0.7818608E-02  0.1299668E+00
         -1   -1    0    0    0  501 -0.00000000000E+00  0.00000000000E+00  0.11059392530E+02  0.11059393516E+02  0.46700000000E-02 0.  1.
          1   -1    0    0  501    0  0.00000000000E+00 -0.00000000000E+00 -0.18854483746E+03  0.18854483752E+03  0.46700000000E-02 0. -1.
         23    2    1    2    0    0  0.00000000000E+00  0.00000000000E+00 -0.17748544493E+03  0.19960423103E+03  0.91327793605E+02 0.  0.
        -11    1    3    3    0    0  0.59454231132E+01 -0.28038850534E+02 -0.16643591629E+03  0.16888587693E+03  0.51100000000E-03 0. -1.
         11    1    3    3    0    0 -0.59454231132E+01  0.28038850534E+02 -0.11049528636E+02  0.30718354100E+02  0.51100000000E-03 0.  1.
<mgrwt>
<rscale>  0 0.91327794E+02</rscale>
<asrwt>0</asrwt>
<pdfrwt beam="2">  1        1 0.29006896E-01 0.91327794E+02</pdfrwt>
<pdfrwt beam="1">  1       -1 0.17014452E-02 0.91327794E+02</pdfrwt>
<totfact> 0.11654448E+05</totfact>
</mgrwt>
</event>
<event>
 5    1  0.2718303E+000  0.9079306E+02  0.7818608E-02  0.1300942E+00
         -1   -1    0    0    0  501 -0.00000000000E+00  0.00000000000E+00  0.29993277566E+03  0.29993277570E+03  0.46700000000E-02 0.  1.
          1   -1    0    0  501    0  0.00000000000E+00 -0.00000000000E+00 -0.68710220612E+01  0.68710236482E+01  0.46700000000E-02 0. -1.
         23    2    1    2    0    0  0.00000000000E+00  0.00000000000E+00  0.29306175360E+03  0.30680379935E+03  0.90793060693E+02 0.  0.
        -11    1    3    3    0    0 -0.43624109699E+02 -0.75175644133E+01  0.11252572487E+03  0.12091987215E+03  0.51100000000E-03 0.  1.
         11    1    3    3    0    0  0.43624109699E+02  0.75175644133E+01  0.18053602873E+03  0.18588392720E+03  0.51100000000E-03 0. -1.
<mgrwt>
<rscale>  0 0.90793061E+02</rscale>
<asrwt>0</asrwt>
<pdfrwt beam="2">  1        1 0.10570803E-02 0.90793061E+02</pdfrwt>
<pdfrwt beam="1">  1       -1 0.46143512E-01 0.90793061E+02</pdfrwt>
<totfact> 0.61263586E+04</totfact>
</mgrwt>
</event>
<event>
 5    1  0.2718303E+000  0.9593774E+02  0.7818608E-02  0.1289078E+00
          1   -1    0    0  501    0  0.00000000000E+00  0.00000000000E+00  0.14709987791E+02  0.14709988532E+02  0.46700000000E-02 0. -1.
         -1   -1    0    0    0  501 -0.00000000000E+00 -0.00000000000E+00 -0.15642517618E+03  0.15642517625E+03  0.46700000000E-02 0.  1.
         23    2    1    2    0    0  0.00000000000E+00  0.00000000000E+00 -0.14171518839E+03  0.17113516478E+03  0.95937740252E+02 0.  0.
        -11    1    3    3    0    0  0.11612842314E+02 -0.25322721341E+02 -0.11993579604E+01  0.27884346550E+02  0.51100000000E-03 0. -1.
         11    1    3    3    0    0 -0.11612842314E+02  0.25322721341E+02 -0.14051583043E+03  0.14325081823E+03  0.51100000000E-03 0.  1.
<mgrwt>
<rscale>  0 0.95937740E+02</rscale>
<asrwt>0</asrwt>
<pdfrwt beam="1">  1        1 0.22630752E-02 0.95937740E+02</pdfrwt>
<pdfrwt beam="2">  1       -1 0.24065411E-01 0.95937740E+02</pdfrwt>
<totfact> 0.64861206E+04</totfact>
</mgrwt>
</event>
<event>
 5    1  0.2718303E+000  0.9214210E+02  0.7818608E-02  0.1297746E+00
          1   -1    0    0  501    0  0.00000000000E+00  0.00000000000E+00  0.21308657293E+02  0.21308657804E+02  0.46700000000E-02 0. -1.
         -1   -1    0    0    0  501 -0.00000000000E+00 -0.00000000000E+00 -0.99609350112E+02  0.99609350221E+02  0.46700000000E-02 0.  1.
         23    2    1    2    0    0  0.00000000000E+00  0.00000000000E+00 -0.78300692819E+02  0.12091800803E+03  0.92142097702E+02 0.  0.
        -11    1    3    3    0    0 -0.10964651029E+02 -0.29830602608E+02  0.46193715073E+01  0.32115837487E+02  0.51100000000E-03 0. -1.
         11    1    3    3    0    0  0.10964651029E+02  0.29830602608E+02 -0.82920064327E+02  0.88802170538E+02  0.51100000000E-03 0.  1.
<mgrwt>
<rscale>  0 0.92142098E+02</rscale>
<asrwt>0</asrwt>
<pdfrwt beam="1">  1        1 0.32782551E-02 0.92142098E+02</pdfrwt>
<pdfrwt beam="2">  1       -1 0.15324515E-01 0.92142098E+02</pdfrwt>
<totfact> 0.79248818E+04</totfact>
</mgrwt>
</event>
<event>
 5    1  0.2718303E+000  0.8619984E+02  0.7818608E-02  0.1312324E+00
         -1   -1    0    0    0  501 -0.00000000000E+00  0.00000000000E+00  0.66910495138E+02  0.66910495301E+02  0.46700000000E-02 0.  1.
          1   -1    0    0  501    0  0.00000000000E+00 -0.00000000000E+00 -0.27762507317E+02  0.27762507710E+02  0.46700000000E-02 0. -1.
         23    2    1    2    0    0  0.00000000000E+00  0.00000000000E+00  0.39147987821E+02  0.94673003010E+02  0.86199840769E+02 0.  0.
        -11    1    3    3    0    0  0.32377037092E+02  0.11542871556E+02  0.48131667149E+02  0.59145310866E+02  0.51100000000E-03 0.  1.
         11    1    3    3    0    0 -0.32377037092E+02 -0.11542871556E+02 -0.89836793286E+01  0.35527692145E+02  0.51100000000E-03 0. -1.
<mgrwt>
<rscale>  0 0.86199841E+02</rscale>
<asrwt>0</asrwt>
<pdfrwt beam="2">  1        1 0.42711550E-02 0.86199841E+02</pdfrwt>
<pdfrwt beam="1">  1       -1 0.10293922E-01 0.86199841E+02</pdfrwt>
<totfact> 0.10054011E+05</totfact>
</mgrwt>
</event>
<event>
 5    1  0.2718303E+000  0.8952268E+02  0.7818608E-02  0.1304012E+00
         -1   -1    0    0    0  501 -0.00000000000E+00  0.00000000000E+00  0.11690317896E+02  0.11690318829E+02  0.46700000000E-02 0.  1.
          1   -1    0    0  501    0  0.00000000000E+00 -0.00000000000E+00 -0.17138775909E+03  0.17138775915E+03  0.46700000000E-02 0. -1.
         23    2    1    2    0    0  0.00000000000E+00  0.00000000000E+00 -0.15969744119E+03  0.18307807798E+03  0.89522678209E+02 0.  0.
        -11    1    3    3    0    0 -0.28382652504E+02 -0.13862716603E+02 -0.14990496478E+02  0.34963764953E+02  0.51100000000E-03 0.  1.
         11    1    3    3    0    0  0.28382652504E+02  0.13862716603E+02 -0.14470694472E+03  0.14811431303E+03  0.51100000000E-03 0. -1.
<mgrwt>
<rscale>  0 0.89522678E+02</rscale>
<asrwt>0</asrwt>
<pdfrwt beam="2">  1        1 0.26367346E-01 0.89522678E+02</pdfrwt>
<pdfrwt beam="1">  1       -1 0.17985106E-02 0.89522678E+02</pdfrwt>
<totfact> 0.12074403E+05</totfact>
</mgrwt>
</event>
<event>
 5    1  0.2718303E+000  0.9176172E+02  0.7818608E-02  0.1298641E+00
         -1   -1    0    0    0  501 -0.00000000000E+00  0.00000000000E+00  0.74925438327E+02  0.74925438473E+02  0.46700000000E-02 0. -1.
          1   -1    0    0  501    0  0.00000000000E+00 -0.00000000000E+00 -0.28095308242E+02  0.28095308630E+02  0.46700000000E-02 0.  1.
         23    2    1    2    0    0  0.00000000000E+00  0.00000000000E+00  0.46830130085E+02  0.10302074710E+03  0.91761719958E+02 0.  0.
        -11    1    3    3    0    0  0.25818292802E+02  0.35810514497E+02  0.93891443022E+01  0.45134612248E+02  0.51100000000E-03 0. -1.
         11    1    3    3    0    0 -0.25818292802E+02 -0.35810514497E+02  0.37440985783E+02  0.57886134855E+02  0.51100000000E-03 0.  1.
<mgrwt>
<rscale>  0 0.91761720E+02</rscale>
<asrwt>0</asrwt>
<pdfrwt beam="2">  1        1 0.43223552E-02 0.91761720E+02</pdfrwt>
<pdfrwt beam="1">  1       -1 0.11526990E-01 0.91761720E+02</pdfrwt>
<totfact> 0.84194533E+04</totfact>
</mgrwt>
</event>
<event>
 5    1  0.2718303E+000  0.9100912E+02  0.7818608E-02  0.1300426E+00
          1   -1    0    0  501    0  0.00000000000E+00  0.00000000000E+00  0.13020776621E+02  0.13020777459E+02  0.46700000000E-02 0. -1.
         -1   -1    0    0    0  501 -0.00000000000E+00 -0.00000000000E+00 -0.15902775517E+03  0.15902775524E+03  0.46700000000E-02 0.  1.
         23    2    1    2    0    0  0.00000000000E+00  0.00000000000E+00 -0.14600697855E+03  0.17204853270E+03  0.91009119425E+02 0.  0.
        -11    1    3    3    0    0  0.61856377892E+01 -0.45047530772E+02 -0.69662778316E+02  0.83189210998E+02  0.51100000000E-03 0. -1.
         11    1    3    3    0    0 -0.61856377892E+01  0.45047530772E+02 -0.76344200236E+02  0.88859321703E+02  0.51100000000E-03 0.  1.
<mgrwt>
<rscale>  0 0.91009119E+02</rscale>
<asrwt>0</asrwt>
<pdfrwt beam="1">  1        1 0.20031966E-02 0.91009119E+02</pdfrwt>
<pdfrwt beam="2">  1       -1 0.24465807E-01 0.91009119E+02</pdfrwt>
<totfact> 0.74106588E+04</totfact>
</mgrwt>
</event>
<event>
 5    1  0.2718303E+000  0.8735178E+02  0.7818608E-02  0.1309394E+00
         -1   -1    0    0    0  501 -0.00000000000E+00  0.00000000000E+00  0.11766521584E+02  0.11766522511E+02  0.46700000000E-02 0.  1.
          1   -1    0    0  501    0  0.00000000000E+00 -0.00000000000E+00 -0.16211957365E+03  0.16211957372E+03  0.46700000000E-02 0. -1.
         23    2    1    2    0    0  0.00000000000E+00  0.00000000000E+00 -0.15035305207E+03  0.17388609623E+03  0.87351784159E+02 0.  0.
        -11    1    3    3    0    0 -0.13858945508E+02 -0.20731182441E+02 -0.14655515109E+03  0.14866157744E+03  0.51100000000E-03 0. -1.
         11    1    3    3    0    0  0.13858945508E+02  0.20731182441E+02 -0.37979009773E+01  0.25224518788E+02  0.51100000000E-03 0.  1.
<mgrwt>
<rscale>  0 0.87351784E+02</rscale>
<asrwt>0</asrwt>
<pdfrwt beam="2">  1        1 0.24941471E-01 0.87351784E+02</pdfrwt>
<pdfrwt beam="1">  1       -1 0.18102343E-02 0.87351784E+02</pdfrwt>
<totfact> 0.12762876E+05</totfact>
</mgrwt>
</event>
<event>
 5    1  0.2718303E+000  0.9108379E+02  0.7818608E-02  0.1300248E+00
         -1   -1    0    0    0  501 -0.00000000000E+00  0.00000000000E+00  0.93691236735E+02  0.93691236851E+02  0.46700000000E-02 0.  1.
          1   -1    0    0  501    0  0.00000000000E+00 -0.00000000000E+00 -0.22137226989E+02  0.22137227482E+02  0.46700000000E-02 0. -1.
         23    2    1    2    0    0  0.00000000000E+00  0.00000000000E+00  0.71554009746E+02  0.11582846433E+03  0.91083790210E+02 0.  0.
        -11    1    3    3    0    0 -0.94742951329E+00 -0.33270083229E+02 -0.37526512330E+01  0.33494454053E+02  0.51100000000E-03 0. -1.
         11    1    3    3    0    0  0.94742951329E+00  0.33270083229E+02  0.75306660979E+02  0.82334010280E+02  0.51100000000E-03 0.  1.
<mgrwt>
<rscale>  0 0.91083790E+02</rscale>
<asrwt>0</asrwt>
<pdfrwt beam="2">  1        1 0.34057273E-02 0.91083790E+02</pdfrwt>
<pdfrwt beam="1">  1       -1 0.14414037E-01 0.91083790E+02</pdfrwt>
<totfact> 0.82564449E+04</totfact>
</mgrwt>
</event>
<event>
 5    1  0.2718303E+000  0.9033161E+02  0.7818608E-02  0.1302051E+00
         -1   -1    0    0    0  501 -0.00000000000E+00  0.00000000000E+00  0.18357095866E+02  0.18357096460E+02  0.46700000000E-02 0.  1.
          1   -1    0    0  501    0  0.00000000000E+00 -0.00000000000E+00 -0.11112595842E+03  0.11112595852E+03  0.46700000000E-02 0. -1.
         23    2    1    2    0    0  0.00000000000E+00  0.00000000000E+00 -0.92768862552E+02  0.12948305498E+03  0.90331609456E+02 0.  0.
        -11    1    3    3    0    0  0.24201415417E+02 -0.17260574820E+02  0.23584362077E+01  0.29819426100E+02  0.51100000000E-03 0.  1.
         11    1    3    3    0    0 -0.24201415417E+02  0.17260574820E+02 -0.95127298760E+02  0.99663628877E+02  0.51100000000E-03 0. -1.
<mgrwt>
<rscale>  0 0.90331609E+02</rscale>
<asrwt>0</asrwt>
<pdfrwt beam="2">  1        1 0.17096301E-01 0.90331609E+02</pdfrwt>
<pdfrwt beam="1">  1       -1 0.28241687E-02 0.90331609E+02</pdfrwt>
<totfact> 0.10904598E+05</totfact>
</mgrwt>
</event>
<event>
 5    1  0.2718303E+000  0.9202399E+02  0.7818608E-02  0.1298023E+00
          1   -1    0    0  501    0  0.00000000000E+00  0.00000000000E+00  0.31952660889E+03  0.31952660893E+03  0.46700000000E-02 0. -1.
         -1   -1    0    0    0  501 -0.00000000000E+00 -0.00000000000E+00 -0.66257504505E+01  0.66257520963E+01  0.46700000000E-02 0.  1.
         23    2    1    2    0    0  0.00000000000E+00  0.00000000000E+00  0.31290085844E+03  0.32615236102E+03  0.92023993540E+02 0.  0.
        -11    1    3    3    0    0  0.37367714507E+02 -0.24630947009E+02  0.19430455166E+03  0.19939229783E+03  0.51100000000E-03 0.  1.
         11    1    3    3    0    0 -0.37367714507E+02  0.24630947009E+02  0.11859630678E+03  0.12676006319E+03  0.51100000000E-03 0. -1.
<mgrwt>
<rscale>  0 0.92023994E+02</rscale>
<asrwt>0</asrwt>
<pdfrwt beam="1">  1        1 0.49157950E-01 0.92023994E+02</pdfrwt>
<pdfrwt beam="2">  1       -1 0.10193462E-02 0.92023994E+02</pdfrwt>
<totfact> 0.12649874E+05</totfact>
</mgrwt>
</event>
<event>
 5    1  0.2718303E+000  0.9243044E+02  0.7818608E-02  0.1297071E+00
         -1   -1    0    0    0  501 -0.00000000000E+00  0.00000000000E+00  0.44510095557E+02  0.44510095802E+02  0.46700000000E-02 0.  1.
          1   -1    0    0  501    0  0.00000000000E+00 -0.00000000000E+00 -0.47985664878E+02  0.47985665106E+02  0.46700000000E-02 0. -1.
         23    2    1    2    0    0  0.00000000000E+00  0.00000000000E+00 -0.34755693209E+01  0.92495760908E+02  0.92430439812E+02 0.  0.
        -11    1    3    3    0    0  0.28126586516E+02 -0.17069565925E+02 -0.34216407996E+02  0.47468279159E+02  0.51100000000E-03 0. -1.
         11    1    3    3    0    0 -0.28126586516E+02  0.17069565925E+02  0.30740838675E+02  0.45027481749E+02  0.51100000000E-03 0.  1.
<mgrwt>
<rscale>  0 0.92430440E+02</rscale>
<asrwt>0</asrwt>
<pdfrwt beam="2">  1        1 0.73824100E-02 0.92430440E+02</pdfrwt>
<pdfrwt beam="1">  1       -1 0.68477070E-02 0.92430440E+02</pdfrwt>
<totfact> 0.89683644E+04</totfact>
</mgrwt>
</event>
<event>
 5    1  0.2718303E+000  0.9022205E+02  0.7818608E-02  0.1302315E+00
         -1   -1    0    0    0  501 -0.00000000000E+00  0.00000000000E+00  0.33099125153E+02  0.33099125482E+02  0.46700000000E-02 0.  1.
          1   -1    0    0  501    0  0.00000000000E+00 -0.00000000000E+00 -0.61482127282E+02  0.61482127459E+02  0.46700000000E-02 0. -1.
         23    2    1    2    0    0  0.00000000000E+00  0.00000000000E+00 -0.28383002129E+02  0.94581252941E+02  0.90222051618E+02 0.  0.
        -11    1    3    3    0    0  0.24708469377E+02 -0.21587585719E+02  0.18263539402E+02  0.37551154282E+02  0.51100000000E-03 0.  1.
         11    1    3    3    0    0 -0.24708469377E+02  0.21587585719E+02 -0.46646541531E+02  0.57030098660E+02  0.51100000000E-03 0. -1.
<mgrwt>
<rscale>  0 0.90222052E+02</rscale>
<asrwt>0</asrwt>
<pdfrwt beam="2">  1        1 0.94587888E-02 0.90222052E+02</pdfrwt>
<pdfrwt beam="1">  1       -1 0.50921732E-02 0.90222052E+02</pdfrwt>
<totfact> 0.99587280E+04</totfact>
</mgrwt>
</event>
<event>
 5    1  0.2718303E+000  0.9246908E+02  0.7818608E-02  0.1296980E+00
          1   -1    0    0  501    0  0.00000000000E+00  0.00000000000E+00  0.83090766300E+01  0.83090779424E+01  0.46700000000E-02 0. -1.
         -1   -1    0    0    0  501 -0.00000000000E+00 -0.00000000000E+00 -0.25726474506E+03  0.25726474511E+03  0.46700000000E-02 0.  1.
         23    2    1    2    0    0  0.00000000000E+00  0.00000000000E+00 -0.24895566843E+03  0.26557382305E+03  0.92469079390E+02 0.  0.
        -11    1    3    3    0    0  0.33534669801E+02 -0.24006040251E+02 -0.18450038429E+03  0.18905357931E+03  0.51100000000E-03 0.  1.
         11    1    3    3    0    0 -0.33534669801E+02  0.24006040251E+02 -0.64455284144E+02  0.76520243737E+02  0.51100000000E-03 0. -1.
<mgrwt>
<rscale>  0 0.92469079E+02</rscale>
<asrwt>0</asrwt>
<pdfrwt beam="1">  1        1 0.12783198E-02 0.92469079E+02</pdfrwt>
<pdfrwt beam="2">  1       -1 0.39579186E-01 0.92469079E+02</pdfrwt>
<totfact> 0.61814830E+04</totfact>
</mgrwt>
</event>
<event>
 5    1  0.2718303E+000  0.9200176E+02  0.7818608E-02  0.1298075E+00
          1   -1    0    0  501    0  0.00000000000E+00  0.00000000000E+00  0.18592137135E+03  0.18592137141E+03  0.46700000000E-02 0. -1.
         -1   -1    0    0    0  501 -0.00000000000E+00 -0.00000000000E+00 -0.11381589992E+02  0.11381590950E+02  0.46700000000E-02 0.  1.
         23    2    1    2    0    0  0.00000000000E+00  0.00000000000E+00  0.17453978135E+03  0.19730296236E+03  0.92001759106E+02 0.  0.
        -11    1    3    3    0    0  0.12992710939E+02 -0.33618803891E+02  0.14856994182E+03  0.15287924033E+03  0.51100000000E-03 0. -1.
         11    1    3    3    0    0 -0.12992710939E+02  0.33618803891E+02  0.25969839539E+02  0.44423722025E+02  0.51100000000E-03 0.  1.
<mgrwt>
<rscale>  0 0.92001759E+02</rscale>
<asrwt>0</asrwt>
<pdfrwt beam="1">  1        1 0.28603288E-01 0.92001759E+02</pdfrwt>
<pdfrwt beam="2">  1       -1 0.17510139E-02 0.92001759E+02</pdfrwt>
<totfact> 0.11395494E+05</totfact>
</mgrwt>
</event>
<event>
 5    1  0.2718303E+000  0.7155331E+02  0.7818608E-02  0.1354889E+00
         -1   -1    0    0    0  501 -0.00000000000E+00  0.00000000000E+00  0.66577981480E+02  0.66577981643E+02  0.46700000000E-02 0.  1.
          1   -1    0    0  501    0  0.00000000000E+00 -0.00000000000E+00 -0.19225110061E+02  0.19225110628E+02  0.46700000000E-02 0. -1.
         23    2    1    2    0    0  0.00000000000E+00  0.00000000000E+00  0.47352871419E+02  0.85803092271E+02  0.71553310278E+02 0.  0.
        -11    1    3    3    0    0  0.31025844911E+01 -0.27856938500E+02 -0.29849949571E+01  0.28187679016E+02  0.51100000000E-03 0. -1.
         11    1    3    3    0    0 -0.31025844911E+01  0.27856938500E+02  0.50337866376E+02  0.57615413256E+02  0.51100000000E-03 0.  1.
<mgrwt>
<rscale>  0 0.71553310E+02</rscale>
<asrwt>0</asrwt>
<pdfrwt beam="2">  1        1 0.29577093E-02 0.71553310E+02</pdfrwt>
<pdfrwt beam="1">  1       -1 0.10242766E-01 0.71553310E+02</pdfrwt>
<totfact> 0.16132050E+05</totfact>
</mgrwt>
</event>
<event>
 5    1  0.2718303E+000  0.9386272E+02  0.7818608E-02  0.1293758E+00
          1   -1    0    0  501    0  0.00000000000E+00  0.00000000000E+00  0.89543098141E+01  0.89543110319E+01  0.46700000000E-02 0. -1.
         -1   -1    0    0    0  501 -0.00000000000E+00 -0.00000000000E+00 -0.24597680248E+03  0.24597680253E+03  0.46700000000E-02 0.  1.
         23    2    1    2    0    0  0.00000000000E+00  0.00000000000E+00 -0.23702249267E+03  0.25493111356E+03  0.93862722257E+02 0.  0.
        -11    1    3    3    0    0 -0.40284530735E+02  0.10300341921E+02 -0.17761854838E+03  0.18242063806E+03  0.51100000000E-03 0.  1.
         11    1    3    3    0    0  0.40284530735E+02 -0.10300341921E+02 -0.59403944287E+02  0.72510475501E+02  0.51100000000E-03 0. -1.
<mgrwt>
<rscale>  0 0.93862722E+02</rscale>
<asrwt>0</asrwt>
<pdfrwt beam="1">  1        1 0.13775864E-02 0.93862722E+02</pdfrwt>
<pdfrwt beam="2">  1       -1 0.37842580E-01 0.93862722E+02</pdfrwt>
<totfact> 0.60358824E+04</totfact>
</mgrwt>
</event>
<event>
 5    1  0.2718303E+000  0.9349098E+02  0.7818608E-02  0.1294611E+00
         -1   -1    0    0    0  501 -0.00000000000E+00  0.00000000000E+00  0.87652296896E+02  0.87652297020E+02  0.46700000000E-02 0.  1.
          1   -1    0    0  501    0  0.00000000000E+00 -0.00000000000E+00 -0.24929647403E+02  0.24929647840E+02  0.46700000000E-02 0. -1.
         23    2    1    2    0    0  0.00000000000E+00  0.00000000000E+00  0.62722649493E+02  0.11258194486E+03  0.93490981112E+02 0.  0.
        -11    1    3    3    0    0  0.17554539446E+02 -0.41296797325E+02  0.15588884160E+02  0.47503690742E+02  0.51100000000E-03 0. -1.
         11    1    3    3    0    0 -0.17554539446E+02  0.41296797325E+02  0.47133765332E+02  0.65078254119E+02  0.51100000000E-03 0.  1.
<mgrwt>
<rscale>  0 0.93490981E+02</rscale>
<asrwt>0</asrwt>
<pdfrwt beam="2">  1        1 0.38353304E-02 0.93490981E+02</pdfrwt>
<pdfrwt beam="1">  1       -1 0.13484969E-01 0.93490981E+02</pdfrwt>
<totfact> 0.78131713E+04</totfact>
</mgrwt>
</event>
<event>
 5    1  0.2718303E+000  0.9199669E+02  0.7818608E-02  0.1298087E+00
          1   -1    0    0  501    0  0.00000000000E+00  0.00000000000E+00  0.80316533256E+02  0.80316533391E+02  0.46700000000E-02 0. -1.
         -1   -1    0    0    0  501 -0.00000000000E+00 -0.00000000000E+00 -0.26343862884E+02  0.26343863298E+02  0.46700000000E-02 0.  1.
         23    2    1    2    0    0  0.00000000000E+00  0.00000000000E+00  0.53972670372E+02  0.10666039669E+03  0.91996690565E+02 0.  0.
        -11    1    3    3    0    0  0.77065820508E+01  0.17283187690E+02 -0.21621834655E+02  0.28733320688E+02  0.51100000000E-03 0.  1.
         11    1    3    3    0    0 -0.77065820508E+01 -0.17283187690E+02  0.75594505027E+02  0.77927076001E+02  0.51100000000E-03 0. -1.
<mgrwt>
<rscale>  0 0.91996691E+02</rscale>
<asrwt>0</asrwt>
<pdfrwt beam="1">  1        1 0.12356390E-01 0.91996691E+02</pdfrwt>
<pdfrwt beam="2">  1       -1 0.40529021E-02 0.91996691E+02</pdfrwt>
<totfact> 0.98356805E+04</totfact>
</mgrwt>
</event>
<event>
 5    1  0.2718303E+000  0.9211007E+02  0.7818608E-02  0.1297821E+00
         -1   -1    0    0    0  501 -0.00000000000E+00  0.00000000000E+00  0.47402081538E+02  0.47402081768E+02  0.46700000000E-02 0. -1.
          1   -1    0    0  501    0  0.00000000000E+00 -0.00000000000E+00 -0.44746263501E+02  0.44746263744E+02  0.46700000000E-02 0.  1.
         23    2    1    2    0    0  0.00000000000E+00  0.00000000000E+00  0.26558180376E+01  0.92148345513E+02  0.92110065744E+02 0.  0.
        -11    1    3    3    0    0  0.54398305127E+01  0.41340373917E+02  0.20892308519E+02  0.46638040559E+02  0.51100000000E-03 0. -1.
         11    1    3    3    0    0 -0.54398305127E+01 -0.41340373917E+02 -0.18236490482E+02  0.45510304954E+02  0.51100000000E-03 0.  1.
<mgrwt>
<rscale>  0 0.92110066E+02</rscale>
<asrwt>0</asrwt>
<pdfrwt beam="2">  1        1 0.68840406E-02 0.92110066E+02</pdfrwt>
<pdfrwt beam="1">  1       -1 0.72926279E-02 0.92110066E+02</pdfrwt>
<totfact> 0.89607876E+04</totfact>
</mgrwt>
</event>
<event>
 5    1  0.2718303E+000  0.9038257E+02  0.7818608E-02  0.1301928E+00
         -1   -1    0    0    0  501 -0.00000000000E+00  0.00000000000E+00  0.23711702288E+02  0.23711702748E+02  0.46700000000E-02 0.  1.
          1   -1    0    0  501    0  0.00000000000E+00 -0.00000000000E+00 -0.86128451018E+02  0.86128451145E+02  0.46700000000E-02 0. -1.
         23    2    1    2    0    0  0.00000000000E+00  0.00000000000E+00 -0.62416748730E+02  0.10984015389E+03  0.90382569587E+02 0.  0.
        -11    1    3    3    0    0 -0.38307397248E+02 -0.20002881321E+02 -0.15146420169E+02  0.45792859588E+02  0.51100000000E-03 0.  1.
         11    1    3    3    0    0  0.38307397248E+02  0.20002881321E+02 -0.47270328562E+02  0.64047294304E+02  0.51100000000E-03 0. -1.
<mgrwt>
<rscale>  0 0.90382570E+02</rscale>
<asrwt>0</asrwt>
<pdfrwt beam="2">  1        1 0.13250531E-01 0.90382570E+02</pdfrwt>
<pdfrwt beam="1">  1       -1 0.36479543E-02 0.90382570E+02</pdfrwt>
<totfact> 0.10440323E+05</totfact>
</mgrwt>
</event>
<event>
 5    1  0.2718303E+000  0.9054745E+02  0.7818608E-02  0.1301531E+00
         -1   -1    0    0    0  501 -0.00000000000E+00  0.00000000000E+00  0.14352285193E+03  0.14352285200E+03  0.46700000000E-02 0.  1.
          1   -1    0    0  501    0  0.00000000000E+00 -0.00000000000E+00 -0.14281420196E+02  0.14281420960E+02  0.46700000000E-02 0. -1.
         23    2    1    2    0    0  0.00000000000E+00  0.00000000000E+00  0.12924143173E+03  0.15780427296E+03  0.90547451038E+02 0.  0.
        -11    1    3    3    0    0  0.30774209345E+02 -0.10212326665E+02  0.95542048007E+01  0.33802757378E+02  0.51100000000E-03 0.  1.
         11    1    3    3    0    0 -0.30774209345E+02  0.10212326665E+02  0.11968722693E+03  0.12400151559E+03  0.51100000000E-03 0. -1.
<mgrwt>
<rscale>  0 0.90547451E+02</rscale>
<asrwt>0</asrwt>
<pdfrwt beam="2">  1        1 0.21971417E-02 0.90547451E+02</pdfrwt>
<pdfrwt beam="1">  1       -1 0.22080439E-01 0.90547451E+02</pdfrwt>
<totfact> 0.76923348E+04</totfact>
</mgrwt>
</event>
<event>
 5    1  0.2718303E+000  0.9066406E+02  0.7818608E-02  0.1301252E+00
          1   -1    0    0  501    0  0.00000000000E+00  0.00000000000E+00  0.13550420576E+02  0.13550421381E+02  0.46700000000E-02 0. -1.
         -1   -1    0    0    0  501 -0.00000000000E+00 -0.00000000000E+00 -0.15165526702E+03  0.15165526710E+03  0.46700000000E-02 0.  1.
         23    2    1    2    0    0  0.00000000000E+00  0.00000000000E+00 -0.13810484645E+03  0.16520568848E+03  0.90664055131E+02 0.  0.
        -11    1    3    3    0    0 -0.15128727141E+02  0.37088632127E+02 -0.10773008829E+03  0.11493570786E+03  0.51100000000E-03 0.  1.
         11    1    3    3    0    0  0.15128727141E+02 -0.37088632127E+02 -0.30374758161E+02  0.50269980620E+02  0.51100000000E-03 0. -1.
<mgrwt>
<rscale>  0 0.90664055E+02</rscale>
<asrwt>0</asrwt>
<pdfrwt beam="1">  1        1 0.20846803E-02 0.90664055E+02</pdfrwt>
<pdfrwt beam="2">  1       -1 0.23331578E-01 0.90664055E+02</pdfrwt>
<totfact> 0.75695477E+04</totfact>
</mgrwt>
</event>
<event>
 5    1  0.2718303E+000  0.9258239E+02  0.7818608E-02  0.1296716E+00
          1   -1    0    0  501    0  0.00000000000E+00  0.00000000000E+00  0.15410880267E+02  0.15410880975E+02  0.46700000000E-02 0. -1.
         -1   -1    0    0    0  501 -0.00000000000E+00 -0.00000000000E+00 -0.13904947795E+03  0.13904947803E+03  0.46700000000E-02 0.  1.
         23    2    1    2    0    0  0.00000000000E+00  0.00000000000E+00 -0.12363859768E+03  0.15446035900E+03  0.92582393934E+02 0.  0.
        -11    1    3    3    0    0  0.24801914894E+02 -0.22053932801E+02 -0.11565742179E+03  0.12032518501E+03  0.51100000000E-03 0.  1.
         11    1    3    3    0    0 -0.24801914894E+02  0.22053932801E+02 -0.79811758989E+01  0.34135173990E+02  0.51100000000E-03 0. -1.
<mgrwt>
<rscale>  0 0.92582394E+02</rscale>
<asrwt>0</asrwt>
<pdfrwt beam="1">  1        1 0.23709048E-02 0.92582394E+02</pdfrwt>
<pdfrwt beam="2">  1       -1 0.21392227E-01 0.92582394E+02</pdfrwt>
<totfact> 0.73133629E+04</totfact>
</mgrwt>
</event>
<event>
 5    1  0.2718303E+000  0.9058100E+02  0.7818608E-02  0.1301451E+00
          1   -1    0    0  501    0  0.00000000000E+00  0.00000000000E+00  0.17677865746E+03  0.17677865752E+03  0.46700000000E-02 0. -1.
         -1   -1    0    0    0  501 -0.00000000000E+00 -0.00000000000E+00 -0.11603377098E+02  0.11603378038E+02  0.46700000000E-02 0.  1.
         23    2    1    2    0    0  0.00000000000E+00  0.00000000000E+00  0.16517528036E+03  0.18838203556E+03  0.90581002860E+02 0.  0.
        -11    1    3    3    0    0 -0.44890870764E+02  0.56521517000E+01  0.78380445547E+02  0.90502106833E+02  0.51100000000E-03 0.  1.
         11    1    3    3    0    0  0.44890870764E+02 -0.56521517000E+01  0.86794834813E+02  0.97879928726E+02  0.51100000000E-03 0. -1.
<mgrwt>
<rscale>  0 0.90581003E+02</rscale>
<asrwt>0</asrwt>
<pdfrwt beam="1">  1        1 0.27196716E-01 0.90581003E+02</pdfrwt>
<pdfrwt beam="2">  1       -1 0.17851350E-02 0.90581003E+02</pdfrwt>
<totfact> 0.11768092E+05</totfact>
</mgrwt>
</event>
<event>
 5    1  0.2718303E+000  0.9160591E+02  0.7818608E-02  0.1299009E+00
         -1   -1    0    0    0  501 -0.00000000000E+00  0.00000000000E+00  0.80354537790E+01  0.80354551360E+01  0.46700000000E-02 0.  1.
          1   -1    0    0  501    0  0.00000000000E+00 -0.00000000000E+00 -0.26108179707E+03  0.26108179711E+03  0.46700000000E-02 0. -1.
         23    2    1    2    0    0  0.00000000000E+00  0.00000000000E+00 -0.25304634329E+03  0.26911725225E+03  0.91605914681E+02 0.  0.
        -11    1    3    3    0    0 -0.91328686844E+01 -0.39273277593E+02 -0.19035543029E+03  0.19457900571E+03  0.51100000000E-03 0. -1.
         11    1    3    3    0    0  0.91328686844E+01  0.39273277593E+02 -0.62690913002E+02  0.74538246535E+02  0.51100000000E-03 0.  1.
<mgrwt>
<rscale>  0 0.91605915E+02</rscale>
<asrwt>0</asrwt>
<pdfrwt beam="2">  1        1 0.40166424E-01 0.91605915E+02</pdfrwt>
<pdfrwt beam="1">  1       -1 0.12362240E-02 0.91605915E+02</pdfrwt>
<totfact> 0.12316612E+05</totfact>
</mgrwt>
</event>
<event>
 5    1  0.2718303E+000  0.9307722E+02  0.7818608E-02  0.1295566E+00
         -1   -1    0    0    0  501 -0.00000000000E+00  0.00000000000E+00  0.10224646220E+03  0.10224646231E+03  0.46700000000E-02 0.  1.
          1   -1    0    0  501    0  0.00000000000E+00 -0.00000000000E+00 -0.21182563471E+02  0.21182563986E+02  0.46700000000E-02 0. -1.
         23    2    1    2    0    0  0.00000000000E+00  0.00000000000E+00  0.81063898731E+02  0.12342902630E+03  0.93077219848E+02 0.  0.
        -11    1    3    3    0    0  0.17705960131E+02 -0.19840883069E+02  0.91178980894E+02  0.94977724874E+02  0.51100000000E-03 0.  1.
         11    1    3    3    0    0 -0.17705960131E+02  0.19840883069E+02 -0.10115082163E+02  0.28451301421E+02  0.51100000000E-03 0. -1.
<mgrwt>
<rscale>  0 0.93077220E+02</rscale>
<asrwt>0</asrwt>
<pdfrwt beam="2">  1        1 0.32588559E-02 0.93077220E+02</pdfrwt>
<pdfrwt beam="1">  1       -1 0.15730225E-01 0.93077220E+02</pdfrwt>
<totfact> 0.76833519E+04</totfact>
</mgrwt>
</event>
<event>
 5    1  0.2718303E+000  0.8977294E+02  0.7818608E-02  0.1303402E+00
         -1   -1    0    0    0  501 -0.00000000000E+00  0.00000000000E+00  0.78815321542E+01  0.78815335377E+01  0.46700000000E-02 0.  1.
          1   -1    0    0  501    0  0.00000000000E+00 -0.00000000000E+00 -0.25563493409E+03  0.25563493414E+03  0.46700000000E-02 0. -1.
         23    2    1    2    0    0  0.00000000000E+00  0.00000000000E+00 -0.24775340194E+03  0.26351646767E+03  0.89772938923E+02 0.  0.
        -11    1    3    3    0    0 -0.23745703145E+02 -0.27267897842E+02 -0.20194853385E+03  0.20515995466E+03  0.51100000000E-03 0. -1.
         11    1    3    3    0    0  0.23745703145E+02  0.27267897842E+02 -0.45804868090E+02  0.58356513018E+02  0.51100000000E-03 0.  1.
<mgrwt>
<rscale>  0 0.89772939E+02</rscale>
<asrwt>0</asrwt>
<pdfrwt beam="2">  1        1 0.39328445E-01 0.89772939E+02</pdfrwt>
<pdfrwt beam="1">  1       -1 0.12125437E-02 0.89772939E+02</pdfrwt>
<totfact> 0.12945549E+05</totfact>
</mgrwt>
</event>
<event>
 5    1  0.2718303E+000  0.9322279E+02  0.7818608E-02  0.1295230E+00
          1   -1    0    0  501    0  0.00000000000E+00  0.00000000000E+00  0.24129964268E+02  0.24129964720E+02  0.46700000000E-02 0. -1.
         -1   -1    0    0    0  501 -0.00000000000E+00 -0.00000000000E+00 -0.90038354416E+02  0.90038354537E+02  0.46700000000E-02 0.  1.
         23    2    1    2    0    0  0.00000000000E+00  0.00000000000E+00 -0.65908390148E+02  0.11416831926E+03  0.93222793512E+02 0.  0.
        -11    1    3    3    0    0 -0.92497727504E+01  0.37534593160E+02 -0.64848141145E+02  0.75496260767E+02  0.51100000000E-03 0.  1.
         11    1    3    3    0    0  0.92497727504E+01 -0.37534593160E+02 -0.10602490027E+01  0.38672058490E+02  0.51100000000E-03 0. -1.
<mgrwt>
<rscale>  0 0.93222794E+02</rscale>
<asrwt>0</asrwt>
<pdfrwt beam="1">  1        1 0.37123023E-02 0.93222794E+02</pdfrwt>
<pdfrwt beam="2">  1       -1 0.13852054E-01 0.93222794E+02</pdfrwt>
<totfact> 0.78335404E+04</totfact>
</mgrwt>
</event>
<event>
 5    1  0.2718303E+000  0.8995820E+02  0.7818608E-02  0.1302953E+00
          1   -1    0    0  501    0  0.00000000000E+00  0.00000000000E+00  0.23950169150E+03  0.23950169155E+03  0.46700000000E-02 0. -1.
         -1   -1    0    0    0  501 -0.00000000000E+00 -0.00000000000E+00 -0.84472025521E+01  0.84472038430E+01  0.46700000000E-02 0.  1.
         23    2    1    2    0    0  0.00000000000E+00  0.00000000000E+00  0.23105448895E+03  0.24794889539E+03  0.89958200635E+02 0.  0.
        -11    1    3    3    0    0 -0.29325366633E+02 -0.29222589491E+02  0.16399232522E+03  0.16913728032E+03  0.51100000000E-03 0. -1.
         11    1    3    3    0    0  0.29325366633E+02  0.29222589491E+02  0.67062163731E+02  0.78811615066E+02  0.51100000000E-03 0.  1.
<mgrwt>
<rscale>  0 0.89958201E+02</rscale>
<asrwt>0</asrwt>
<pdfrwt beam="1">  1        1 0.36846409E-01 0.89958201E+02</pdfrwt>
<pdfrwt beam="2">  1       -1 0.12995699E-02 0.89958201E+02</pdfrwt>
<totfact> 0.12712612E+05</totfact>
</mgrwt>
</event>
<event>
 5    1  0.2718303E+000  0.9066641E+02  0.7818608E-02  0.1301246E+00
          1   -1    0    0  501    0  0.00000000000E+00  0.00000000000E+00  0.10541869948E+03  0.10541869958E+03  0.46700000000E-02 0. -1.
         -1   -1    0    0    0  501 -0.00000000000E+00 -0.00000000000E+00 -0.19494637658E+02  0.19494638217E+02  0.46700000000E-02 0.  1.
         23    2    1    2    0    0  0.00000000000E+00  0.00000000000E+00  0.85924061818E+02  0.12491333780E+03  0.90666408113E+02 0.  0.
        -11    1    3    3    0    0  0.33453003385E+01 -0.40155647779E+02  0.71578677096E+02  0.82141183934E+02  0.51100000000E-03 0.  1.
         11    1    3    3    0    0 -0.33453003385E+01  0.40155647779E+02  0.14345384721E+02  0.42772153862E+02  0.51100000000E-03 0. -1.
<mgrwt>
<rscale>  0 0.90666408E+02</rscale>
<asrwt>0</asrwt>
<pdfrwt beam="1">  1        1 0.16218261E-01 0.90666408E+02</pdfrwt>
<pdfrwt beam="2">  1       -1 0.29991751E-02 0.90666408E+02</pdfrwt>
<totfact> 0.10699954E+05</totfact>
</mgrwt>
</event>
<event>
 5    1  0.2718303E+000  0.8842679E+02  0.7818608E-02  0.1306707E+00
         -1   -1    0    0    0  501 -0.00000000000E+00  0.00000000000E+00  0.24467170644E+02  0.24467171089E+02  0.46700000000E-02 0.  1.
          1   -1    0    0  501    0  0.00000000000E+00 -0.00000000000E+00 -0.79895812355E+02  0.79895812492E+02  0.46700000000E-02 0. -1.
         23    2    1    2    0    0  0.00000000000E+00  0.00000000000E+00 -0.55428641711E+02  0.10436298358E+03  0.88426794695E+02 0.  0.
        -11    1    3    3    0    0 -0.13634253550E+02 -0.47511255433E+01 -0.77035028294E+02  0.78376410024E+02  0.51100000000E-03 0. -1.
         11    1    3    3    0    0  0.13634253550E+02  0.47511255433E+01  0.21606386583E+02  0.25986573557E+02  0.51100000000E-03 0.  1.
<mgrwt>
<rscale>  0 0.88426795E+02</rscale>
<asrwt>0</asrwt>
<pdfrwt beam="2">  1        1 0.12291663E-01 0.88426795E+02</pdfrwt>
<pdfrwt beam="1">  1       -1 0.37641802E-02 0.88426795E+02</pdfrwt>
<totfact> 0.10952987E+05</totfact>
</mgrwt>
</event>
<event>
 5    1  0.2718303E+000  0.9158529E+02  0.7818608E-02  0.1299057E+00
          1   -1    0    0  501    0  0.00000000000E+00  0.00000000000E+00  0.11954156469E+03  0.11954156478E+03  0.46700000000E-02 0. -1.
         -1   -1    0    0    0  501 -0.00000000000E+00 -0.00000000000E+00 -0.17541734108E+02  0.17541734729E+02  0.46700000000E-02 0.  1.
         23    2    1    2    0    0  0.00000000000E+00  0.00000000000E+00  0.10199983058E+03  0.13708329951E+03  0.91585291209E+02 0.  0.
        -11    1    3    3    0    0  0.82692477928E+01 -0.43669417924E+02  0.34496713013E+02  0.56262080746E+02  0.51100000000E-03 0.  1.
         11    1    3    3    0    0 -0.82692477928E+01  0.43669417924E+02  0.67503117570E+02  0.80821218766E+02  0.51100000000E-03 0. -1.
<mgrwt>
<rscale>  0 0.91585291E+02</rscale>
<asrwt>0</asrwt>
<pdfrwt beam="1">  1        1 0.18391011E-01 0.91585291E+02</pdfrwt>
<pdfrwt beam="2">  1       -1 0.26987283E-02 0.91585291E+02</pdfrwt>
<totfact> 0.10636818E+05</totfact>
</mgrwt>
</event>
<event>
 5    1  0.2718303E+000  0.1057186E+03  0.7818608E-02  0.1268710E+00
         -1   -1    0    0    0  501 -0.00000000000E+00  0.00000000000E+00  0.18921340141E+02  0.18921340717E+02  0.46700000000E-02 0.  1.
          1   -1    0    0  501    0  0.00000000000E+00 -0.00000000000E+00 -0.14766966456E+03  0.14766966464E+03  0.46700000000E-02 0. -1.
         23    2    1    2    0    0  0.00000000000E+00  0.00000000000E+00 -0.12874832442E+03  0.16659100535E+03  0.10571864558E+03 0.  0.
        -11    1    3    3    0    0 -0.50483972703E+02 -0.15636355304E+02 -0.65934835463E+02  0.84501654628E+02  0.51100000000E-03 0.  1.
         11    1    3    3    0    0  0.50483972703E+02  0.15636355304E+02 -0.62813488960E+02  0.82089350726E+02  0.51100000000E-03 0. -1.
<mgrwt>
<rscale>  0 0.10571865E+03</rscale>
<asrwt>0</asrwt>
<pdfrwt beam="2">  1        1 0.22718409E-01 0.10571865E+03</pdfrwt>
<pdfrwt beam="1">  1       -1 0.29109756E-02 0.10571865E+03</pdfrwt>
<totfact> 0.74719568E+04</totfact>
</mgrwt>
</event>
<event>
 5    1  0.2718303E+000  0.9125370E+02  0.7818608E-02  0.1299844E+00
          1   -1    0    0  501    0  0.00000000000E+00  0.00000000000E+00  0.12210405025E+03  0.12210405034E+03  0.46700000000E-02 0. -1.
         -1   -1    0    0    0  501 -0.00000000000E+00 -0.00000000000E+00 -0.17049470446E+02  0.17049471086E+02  0.46700000000E-02 0.  1.
         23    2    1    2    0    0  0.00000000000E+00  0.00000000000E+00  0.10505457981E+03  0.13915352143E+03  0.91253700129E+02 0.  0.
        -11    1    3    3    0    0 -0.28205192753E+02  0.24146435447E+02  0.12089143483E+02  0.39047799342E+02  0.51100000000E-03 0.  1.
         11    1    3    3    0    0  0.28205192753E+02 -0.24146435447E+02  0.92965436324E+02  0.10010572209E+03  0.51100000000E-03 0. -1.
<mgrwt>
<rscale>  0 0.91253700E+02</rscale>
<asrwt>0</asrwt>
<pdfrwt beam="1">  1        1 0.18785238E-01 0.91253700E+02</pdfrwt>
<pdfrwt beam="2">  1       -1 0.26229955E-02 0.91253700E+02</pdfrwt>
<totfact> 0.10781869E+05</totfact>
</mgrwt>
</event>
<event>
 5    1  0.2718303E+000  0.9088062E+02  0.7818608E-02  0.1300733E+00
          1   -1    0    0  501    0  0.00000000000E+00  0.00000000000E+00  0.73571817135E+02  0.73571817283E+02  0.46700000000E-02 0. -1.
         -1   -1    0    0    0  501 -0.00000000000E+00 -0.00000000000E+00 -0.28065392292E+02  0.28065392680E+02  0.46700000000E-02 0.  1.
         23    2    1    2    0    0  0.00000000000E+00  0.00000000000E+00  0.45506424843E+02  0.10163720996E+03  0.90880623607E+02 0.  0.
        -11    1    3    3    0    0 -0.32250013300E+02  0.26361878415E+02  0.24430540479E+01  0.41725058475E+02  0.51100000000E-03 0.  1.
         11    1    3    3    0    0  0.32250013300E+02 -0.26361878415E+02  0.43063370795E+02  0.59912151488E+02  0.51100000000E-03 0. -1.
<mgrwt>
<rscale>  0 0.90880624E+02</rscale>
<asrwt>0</asrwt>
<pdfrwt beam="1">  1        1 0.11318741E-01 0.90880624E+02</pdfrwt>
<pdfrwt beam="2">  1       -1 0.43177528E-02 0.90880624E+02</pdfrwt>
<totfact> 0.10032540E+05</totfact>
</mgrwt>
</event>
<event>
 5    1  0.2718303E+000  0.9212181E+02  0.7818608E-02  0.1297793E+00
         -1   -1    0    0    0  501 -0.00000000000E+00  0.00000000000E+00  0.79405412106E+02  0.79405412243E+02  0.46700000000E-02 0.  1.
          1   -1    0    0  501    0  0.00000000000E+00 -0.00000000000E+00 -0.26718670054E+02  0.26718670462E+02  0.46700000000E-02 0. -1.
         23    2    1    2    0    0  0.00000000000E+00  0.00000000000E+00  0.52686742053E+02  0.10612408271E+03  0.92121811434E+02 0.  0.
        -11    1    3    3    0    0 -0.12839428245E+01 -0.14030975883E+02  0.76861971693E+02  0.78142686710E+02  0.51100000000E-03 0.  1.
         11    1    3    3    0    0  0.12839428245E+01  0.14030975883E+02 -0.24175229641E+02  0.27981395995E+02  0.51100000000E-03 0. -1.
<mgrwt>
<rscale>  0 0.92121811E+02</rscale>
<asrwt>0</asrwt>
<pdfrwt beam="2">  1        1 0.41105647E-02 0.92121811E+02</pdfrwt>
<pdfrwt beam="1">  1       -1 0.12216217E-01 0.92121811E+02</pdfrwt>
<totfact> 0.82547483E+04</totfact>
</mgrwt>
</event>
<event>
 5    1  0.2718303E+000  0.9132361E+02  0.7818608E-02  0.1299678E+00
          1   -1    0    0  501    0  0.00000000000E+00  0.00000000000E+00  0.23541209937E+03  0.23541209941E+03  0.46700000000E-02 0. -1.
         -1   -1    0    0    0  501 -0.00000000000E+00 -0.00000000000E+00 -0.88568104844E+01  0.88568117156E+01  0.46700000000E-02 0.  1.
         23    2    1    2    0    0  0.00000000000E+00  0.00000000000E+00  0.22655528888E+03  0.24426891113E+03  0.91323611533E+02 0.  0.
        -11    1    3    3    0    0  0.22680574907E+02 -0.33062707074E+02  0.17172283882E+03  0.17634138609E+03  0.51100000000E-03 0. -1.
         11    1    3    3    0    0 -0.22680574907E+02  0.33062707074E+02  0.54832450066E+02  0.67927525037E+02  0.51100000000E-03 0.  1.
<mgrwt>
<rscale>  0 0.91323612E+02</rscale>
<asrwt>0</asrwt>
<pdfrwt beam="1">  1        1 0.36217245E-01 0.91323612E+02</pdfrwt>
<pdfrwt beam="2">  1       -1 0.13625864E-02 0.91323612E+02</pdfrwt>
<totfact> 0.12170361E+05</totfact>
</mgrwt>
</event>
<event>
 5    1  0.2718303E+000  0.9092305E+02  0.7818608E-02  0.1300632E+00
          1   -1    0    0  501    0  0.00000000000E+00  0.00000000000E+00  0.77008869036E+02  0.77008869177E+02  0.46700000000E-02 0. -1.
         -1   -1    0    0    0  501 -0.00000000000E+00 -0.00000000000E+00 -0.26837821570E+02  0.26837821977E+02  0.46700000000E-02 0.  1.
         23    2    1    2    0    0  0.00000000000E+00  0.00000000000E+00  0.50171047465E+02  0.10384669115E+03  0.90923051312E+02 0.  0.
        -11    1    3    3    0    0 -0.16819110460E+02 -0.35192459326E+02 -0.15867329628E+01  0.39037282075E+02  0.51100000000E-03 0.  1.
         11    1    3    3    0    0  0.16819110460E+02  0.35192459326E+02  0.51757780428E+02  0.64809409079E+02  0.51100000000E-03 0. -1.
<mgrwt>
<rscale>  0 0.90923051E+02</rscale>
<asrwt>0</asrwt>
<pdfrwt beam="1">  1        1 0.11847518E-01 0.90923051E+02</pdfrwt>
<pdfrwt beam="2">  1       -1 0.41288957E-02 0.90923051E+02</pdfrwt>
<totfact> 0.10091235E+05</totfact>
</mgrwt>
</event>
<event>
 5    1  0.2718303E+000  0.8412876E+02  0.7818608E-02  0.1317727E+00
         -1   -1    0    0    0  501 -0.00000000000E+00  0.00000000000E+00  0.65803682213E+02  0.65803682378E+02  0.46700000000E-02 0.  1.
          1   -1    0    0  501    0  0.00000000000E+00 -0.00000000000E+00 -0.26889256099E+02  0.26889256504E+02  0.46700000000E-02 0. -1.
         23    2    1    2    0    0  0.00000000000E+00  0.00000000000E+00  0.38914426114E+02  0.92692938882E+02  0.84128760593E+02 0.  0.
        -11    1    3    3    0    0 -0.35067820769E+02  0.70277929764E+01  0.43853284271E+02  0.56588448196E+02  0.51100000000E-03 0.  1.
         11    1    3    3    0    0  0.35067820769E+02 -0.70277929764E+01 -0.49388581572E+01  0.36104490687E+02  0.51100000000E-03 0. -1.
<mgrwt>
<rscale>  0 0.84128761E+02</rscale>
<asrwt>0</asrwt>
<pdfrwt beam="2">  1        1 0.41368087E-02 0.84128761E+02</pdfrwt>
<pdfrwt beam="1">  1       -1 0.10123643E-01 0.84128761E+02</pdfrwt>
<totfact> 0.10722211E+05</totfact>
</mgrwt>
</event>
<event>
 5    1  0.2718303E+000  0.8977351E+02  0.7818608E-02  0.1303401E+00
         -1   -1    0    0    0  501 -0.00000000000E+00  0.00000000000E+00  0.84394157135E+02  0.84394157264E+02  0.46700000000E-02 0.  1.
          1   -1    0    0  501    0  0.00000000000E+00 -0.00000000000E+00 -0.23873937835E+02  0.23873938292E+02  0.46700000000E-02 0. -1.
         23    2    1    2    0    0  0.00000000000E+00  0.00000000000E+00  0.60520219300E+02  0.10826809556E+03  0.89773512637E+02 0.  0.
        -11    1    3    3    0    0 -0.16631428583E+02  0.15124824660E+02 -0.16595601137E+02  0.27942417846E+02  0.51100000000E-03 0. -1.
         11    1    3    3    0    0  0.16631428583E+02 -0.15124824660E+02  0.77115820437E+02  0.80325677710E+02  0.51100000000E-03 0.  1.
<mgrwt>
<rscale>  0 0.89773513E+02</rscale>
<asrwt>0</asrwt>
<pdfrwt beam="2">  1        1 0.36729135E-02 0.89773513E+02</pdfrwt>
<pdfrwt beam="1">  1       -1 0.12983717E-01 0.89773513E+02</pdfrwt>
<totfact> 0.87280299E+04</totfact>
</mgrwt>
</event>
<event>
 5    1  0.2718303E+000  0.8777487E+02  0.7818608E-02  0.1308331E+00
          1   -1    0    0  501    0  0.00000000000E+00  0.00000000000E+00  0.15854730077E+02  0.15854730765E+02  0.46700000000E-02 0. -1.
         -1   -1    0    0    0  501 -0.00000000000E+00 -0.00000000000E+00 -0.12148468400E+03  0.12148468409E+03  0.46700000000E-02 0.  1.
         23    2    1    2    0    0  0.00000000000E+00  0.00000000000E+00 -0.10562995393E+03  0.13733941486E+03  0.87774869451E+02 0.  0.
        -11    1    3    3    0    0 -0.12607474253E+02 -0.27494714959E+02 -0.10257073561E+03  0.10693766204E+03  0.51100000000E-03 0.  1.
         11    1    3    3    0    0  0.12607474253E+02  0.27494714959E+02 -0.30592183161E+01  0.30401752823E+02  0.51100000000E-03 0. -1.
<mgrwt>
<rscale>  0 0.87774869E+02</rscale>
<asrwt>0</asrwt>
<pdfrwt beam="1">  1        1 0.24391894E-02 0.87774869E+02</pdfrwt>
<pdfrwt beam="2">  1       -1 0.18689951E-01 0.87774869E+02</pdfrwt>
<totfact> 0.86412546E+04</totfact>
</mgrwt>
</event>
<event>
 5    1  0.2718303E+000  0.9167253E+02  0.7818608E-02  0.1298851E+00
          1   -1    0    0  501    0  0.00000000000E+00  0.00000000000E+00  0.32910129064E+02  0.32910129395E+02  0.46700000000E-02 0. -1.
         -1   -1    0    0    0  501 -0.00000000000E+00 -0.00000000000E+00 -0.63839411536E+02  0.63839411707E+02  0.46700000000E-02 0.  1.
         23    2    1    2    0    0  0.00000000000E+00  0.00000000000E+00 -0.30929282472E+02  0.96749541102E+02  0.91672532360E+02 0.  0.
        -11    1    3    3    0    0 -0.16134043981E+02  0.12379641534E+02 -0.58817601614E+02  0.62234019311E+02  0.51100000000E-03 0.  1.
         11    1    3    3    0    0  0.16134043981E+02 -0.12379641534E+02  0.27888319142E+02  0.34515521791E+02  0.51100000000E-03 0. -1.
<mgrwt>
<rscale>  0 0.91672532E+02</rscale>
<asrwt>0</asrwt>
<pdfrwt beam="1">  1        1 0.50630968E-02 0.91672532E+02</pdfrwt>
<pdfrwt beam="2">  1       -1 0.98214479E-02 0.91672532E+02</pdfrwt>
<totfact> 0.86619244E+04</totfact>
</mgrwt>
</event>
<event>
 5    1  0.2718303E+000  0.9231847E+02  0.7818608E-02  0.1297332E+00
         -1   -1    0    0    0  501 -0.00000000000E+00  0.00000000000E+00  0.17118921557E+02  0.17118922194E+02  0.46700000000E-02 0.  1.
          1   -1    0    0  501    0  0.00000000000E+00 -0.00000000000E+00 -0.12446313997E+03  0.12446314006E+03  0.46700000000E-02 0. -1.
         23    2    1    2    0    0  0.00000000000E+00  0.00000000000E+00 -0.10734421842E+03  0.14158206225E+03  0.92318465786E+02 0.  0.
        -11    1    3    3    0    0  0.89268709537E+01 -0.39305463974E+02 -0.19171771505E+02  0.44633679505E+02  0.51100000000E-03 0.  1.
         11    1    3    3    0    0 -0.89268709537E+01  0.39305463974E+02 -0.88172446910E+02  0.96948382749E+02  0.51100000000E-03 0. -1.
<mgrwt>
<rscale>  0 0.92318466E+02</rscale>
<asrwt>0</asrwt>
<pdfrwt beam="2">  1        1 0.19148175E-01 0.92318466E+02</pdfrwt>
<pdfrwt beam="1">  1       -1 0.26336804E-02 0.92318466E+02</pdfrwt>
<totfact> 0.10482832E+05</totfact>
</mgrwt>
</event>
<event>
 5    1  0.2718303E+000  0.8820546E+02  0.7818608E-02  0.1307257E+00
          1   -1    0    0  501    0  0.00000000000E+00  0.00000000000E+00  0.12278629531E+03  0.12278629540E+03  0.46700000000E-02 0. -1.
         -1   -1    0    0    0  501 -0.00000000000E+00 -0.00000000000E+00 -0.15840943228E+02  0.15840943916E+02  0.46700000000E-02 0.  1.
         23    2    1    2    0    0  0.00000000000E+00  0.00000000000E+00  0.10694535208E+03  0.13862723931E+03  0.88205459854E+02 0.  0.
        -11    1    3    3    0    0  0.29531516913E+02  0.27047006514E+02  0.82511879223E+02  0.91716199582E+02  0.51100000000E-03 0. -1.
         11    1    3    3    0    0 -0.29531516913E+02 -0.27047006514E+02  0.24433472856E+02  0.46911039731E+02  0.51100000000E-03 0.  1.
<mgrwt>
<rscale>  0 0.88205460E+02</rscale>
<asrwt>0</asrwt>
<pdfrwt beam="1">  1        1 0.18890199E-01 0.88205460E+02</pdfrwt>
<pdfrwt beam="2">  1       -1 0.24370683E-02 0.88205460E+02</pdfrwt>
<totfact> 0.11830533E+05</totfact>
</mgrwt>
</event>
<event>
 5    1  0.2718303E+000  0.9244386E+02  0.7818608E-02  0.1297039E+00
         -1   -1    0    0    0  501 -0.00000000000E+00  0.00000000000E+00  0.26897501702E+02  0.26897502107E+02  0.46700000000E-02 0.  1.
          1   -1    0    0  501    0  0.00000000000E+00 -0.00000000000E+00 -0.79429937348E+02  0.79429937485E+02  0.46700000000E-02 0. -1.
         23    2    1    2    0    0  0.00000000000E+00  0.00000000000E+00 -0.52532435646E+02  0.10632743959E+03  0.92443861967E+02 0.  0.
        -11    1    3    3    0    0  0.64156120802E+00 -0.30771349146E+02 -0.65929710964E+02  0.72759977441E+02  0.51100000000E-03 0. -1.
         11    1    3    3    0    0 -0.64156120802E+00  0.30771349146E+02  0.13397275319E+02  0.33567462152E+02  0.51100000000E-03 0.  1.
<mgrwt>
<rscale>  0 0.92443862E+02</rscale>
<asrwt>0</asrwt>
<pdfrwt beam="2">  1        1 0.12219990E-01 0.92443862E+02</pdfrwt>
<pdfrwt beam="1">  1       -1 0.41380773E-02 0.92443862E+02</pdfrwt>
<totfact> 0.96882171E+04</totfact>
</mgrwt>
</event>
<event>
 5    1  0.2718303E+000  0.9365193E+02  0.7818608E-02  0.1294241E+00
         -1   -1    0    0    0  501 -0.00000000000E+00  0.00000000000E+00  0.12290683922E+02  0.12290684809E+02  0.46700000000E-02 0.  1.
          1   -1    0    0  501    0  0.00000000000E+00 -0.00000000000E+00 -0.17840106005E+03  0.17840106011E+03  0.46700000000E-02 0. -1.
         23    2    1    2    0    0  0.00000000000E+00  0.00000000000E+00 -0.16611037613E+03  0.19069174492E+03  0.93651932832E+02 0.  0.
        -11    1    3    3    0    0  0.23405834912E+02  0.32705919672E+02 -0.34222593153E+02  0.52808107066E+02  0.51100000000E-03 0.  1.
         11    1    3    3    0    0 -0.23405834912E+02 -0.32705919672E+02 -0.13188778297E+03  0.13788363785E+03  0.51100000000E-03 0. -1.
<mgrwt>
<rscale>  0 0.93651933E+02</rscale>
<asrwt>0</asrwt>
<pdfrwt beam="2">  1        1 0.27446315E-01 0.93651933E+02</pdfrwt>
<pdfrwt beam="1">  1       -1 0.18908747E-02 0.93651933E+02</pdfrwt>
<totfact> 0.10776582E+05</totfact>
</mgrwt>
</event>
<event>
 5    1  0.2718303E+000  0.9190180E+02  0.7818608E-02  0.1298310E+00
          1   -1    0    0  501    0  0.00000000000E+00  0.00000000000E+00  0.29737387131E+03  0.29737387135E+03  0.46700000000E-02 0. -1.
         -1   -1    0    0    0  501 -0.00000000000E+00 -0.00000000000E+00 -0.71004389826E+01  0.71004405183E+01  0.46700000000E-02 0.  1.
         23    2    1    2    0    0  0.00000000000E+00  0.00000000000E+00  0.29027343233E+03  0.30447431186E+03  0.91901801236E+02 0.  0.
        -11    1    3    3    0    0 -0.41313551317E+02  0.16651679215E+02  0.18253113495E+03  0.18788747475E+03  0.51100000000E-03 0.  1.
         11    1    3    3    0    0  0.41313551317E+02 -0.16651679215E+02  0.10774229738E+03  0.11658683711E+03  0.51100000000E-03 0. -1.
<mgrwt>
<rscale>  0 0.91901801E+02</rscale>
<asrwt>0</asrwt>
<pdfrwt beam="1">  1        1 0.45749838E-01 0.91901801E+02</pdfrwt>
<pdfrwt beam="2">  1       -1 0.10923751E-02 0.91901801E+02</pdfrwt>
<totfact> 0.12523313E+05</totfact>
</mgrwt>
</event>
<event>
 5    1  0.2718303E+000  0.9128791E+02  0.7818608E-02  0.1299762E+00
         -1   -1    0    0    0  501 -0.00000000000E+00  0.00000000000E+00  0.10692703405E+02  0.10692704424E+02  0.46700000000E-02 0.  1.
          1   -1    0    0  501    0  0.00000000000E+00 -0.00000000000E+00 -0.19484037328E+03  0.19484037334E+03  0.46700000000E-02 0. -1.
         23    2    1    2    0    0  0.00000000000E+00  0.00000000000E+00 -0.18414766988E+03  0.20553307776E+03  0.91287905733E+02 0.  0.
        -11    1    3    3    0    0 -0.35859873730E+02  0.71736067071E+01 -0.30579960439E+02  0.47671009616E+02  0.51100000000E-03 0.  1.
         11    1    3    3    0    0  0.35859873730E+02 -0.71736067071E+01 -0.15356770944E+03  0.15786206814E+03  0.51100000000E-03 0. -1.
<mgrwt>
<rscale>  0 0.91287906E+02</rscale>
<asrwt>0</asrwt>
<pdfrwt beam="2">  1        1 0.29975439E-01 0.91287906E+02</pdfrwt>
<pdfrwt beam="1">  1       -1 0.16450315E-02 0.91287906E+02</pdfrwt>
<totfact> 0.11742365E+05</totfact>
</mgrwt>
</event>
<event>
 5    1  0.2718303E+000  0.9427462E+02  0.7818608E-02  0.1292818E+00
          1   -1    0    0  501    0  0.00000000000E+00  0.00000000000E+00  0.85406799883E+02  0.85406800010E+02  0.46700000000E-02 0. -1.
         -1   -1    0    0    0  501 -0.00000000000E+00 -0.00000000000E+00 -0.26015795069E+02  0.26015795488E+02  0.46700000000E-02 0.  1.
         23    2    1    2    0    0  0.00000000000E+00  0.00000000000E+00  0.59391004813E+02  0.11142259550E+03  0.94274616599E+02 0.  0.
        -11    1    3    3    0    0  0.20581294875E+02 -0.59409810466E+01 -0.19930545108E+02  0.29259384530E+02  0.51100000000E-03 0.  1.
         11    1    3    3    0    0 -0.20581294875E+02  0.59409810466E+01  0.79321549921E+02  0.82163210969E+02  0.51100000000E-03 0. -1.
<mgrwt>
<rscale>  0 0.94274617E+02</rscale>
<asrwt>0</asrwt>
<pdfrwt beam="1">  1        1 0.13139508E-01 0.94274617E+02</pdfrwt>
<pdfrwt beam="2">  1       -1 0.40024301E-02 0.94274617E+02</pdfrwt>
<totfact> 0.92868127E+04</totfact>
</mgrwt>
</event>
<event>
 5    1  0.2718303E+000  0.9308257E+02  0.7818608E-02  0.1295554E+00
          1   -1    0    0  501    0  0.00000000000E+00  0.00000000000E+00  0.22916667305E+02  0.22916667781E+02  0.46700000000E-02 0. -1.
         -1   -1    0    0    0  501 -0.00000000000E+00 -0.00000000000E+00 -0.94520341946E+02  0.94520342061E+02  0.46700000000E-02 0.  1.
         23    2    1    2    0    0  0.00000000000E+00  0.00000000000E+00 -0.71603674640E+02  0.11743700984E+03  0.93082571186E+02 0.  0.
        -11    1    3    3    0    0  0.13498100929E+02  0.44381533095E+02 -0.40551393632E+02  0.61614403627E+02  0.51100000000E-03 0.  1.
         11    1    3    3    0    0 -0.13498100929E+02 -0.44381533095E+02 -0.31052281009E+02  0.55822606215E+02  0.51100000000E-03 0. -1.
<mgrwt>
<rscale>  0 0.93082571E+02</rscale>
<asrwt>0</asrwt>
<pdfrwt beam="1">  1        1 0.35256412E-02 0.93082571E+02</pdfrwt>
<pdfrwt beam="2">  1       -1 0.14541591E-01 0.93082571E+02</pdfrwt>
<totfact> 0.77952057E+04</totfact>
</mgrwt>
</event>
<event>
 5    1  0.2718303E+000  0.9054271E+02  0.7818608E-02  0.1301543E+00
          1   -1    0    0  501    0  0.00000000000E+00  0.00000000000E+00  0.27500917785E+02  0.27500918181E+02  0.46700000000E-02 0. -1.
         -1   -1    0    0    0  501 -0.00000000000E+00 -0.00000000000E+00 -0.74524630762E+02  0.74524630908E+02  0.46700000000E-02 0.  1.
         23    2    1    2    0    0  0.00000000000E+00  0.00000000000E+00 -0.47023712977E+02  0.10202554909E+03  0.90542714145E+02 0.  0.
        -11    1    3    3    0    0  0.12372651986E+02  0.42572213534E+02 -0.13183137007E+02  0.46252253825E+02  0.51100000000E-03 0.  1.
         11    1    3    3    0    0 -0.12372651986E+02 -0.42572213534E+02 -0.33840575970E+02  0.55773295264E+02  0.51100000000E-03 0. -1.
<mgrwt>
<rscale>  0 0.90542714E+02</rscale>
<asrwt>0</asrwt>
<pdfrwt beam="1">  1        1 0.42309105E-02 0.90542714E+02</pdfrwt>
<pdfrwt beam="2">  1       -1 0.11465328E-01 0.90542714E+02</pdfrwt>
<totfact> 0.87198521E+04</totfact>
</mgrwt>
</event>
<event>
 5    1  0.2718303E+000  0.8991371E+02  0.7818608E-02  0.1303061E+00
          1   -1    0    0  501    0  0.00000000000E+00  0.00000000000E+00  0.55979571143E+02  0.55979571338E+02  0.46700000000E-02 0. -1.
         -1   -1    0    0    0  501 -0.00000000000E+00 -0.00000000000E+00 -0.36104576301E+02  0.36104576603E+02  0.46700000000E-02 0.  1.
         23    2    1    2    0    0  0.00000000000E+00  0.00000000000E+00  0.19874994842E+02  0.92084147941E+02  0.89913707976E+02 0.  0.
        -11    1    3    3    0    0  0.32891611376E+02  0.13860673381E+02 -0.18056224508E+02  0.40000045115E+02  0.51100000000E-03 0.  1.
         11    1    3    3    0    0 -0.32891611376E+02 -0.13860673381E+02  0.37931219350E+02  0.52084102826E+02  0.51100000000E-03 0. -1.
<mgrwt>
<rscale>  0 0.89913708E+02</rscale>
<asrwt>0</asrwt>
<pdfrwt beam="1">  1        1 0.86122417E-02 0.89913708E+02</pdfrwt>
<pdfrwt beam="2">  1       -1 0.55545503E-02 0.89913708E+02</pdfrwt>
<totfact> 0.99134248E+04</totfact>
</mgrwt>
</event>
<event>
 5    1  0.2718303E+000  0.9108503E+02  0.7818608E-02  0.1300245E+00
         -1   -1    0    0    0  501 -0.00000000000E+00  0.00000000000E+00  0.10622196663E+02  0.10622197690E+02  0.46700000000E-02 0.  1.
          1   -1    0    0  501    0  0.00000000000E+00 -0.00000000000E+00 -0.19526287316E+03  0.19526287322E+03  0.46700000000E-02 0. -1.
         23    2    1    2    0    0  0.00000000000E+00  0.00000000000E+00 -0.18464067650E+03  0.20588507091E+03  0.91085031727E+02 0.  0.
        -11    1    3    3    0    0  0.34536066107E+02  0.25409540453E+02 -0.57615427738E+02  0.71818675300E+02  0.51100000000E-03 0.  1.
         11    1    3    3    0    0 -0.34536066107E+02 -0.25409540453E+02 -0.12702524876E+03  0.13406639561E+03  0.51100000000E-03 0. -1.
<mgrwt>
<rscale>  0 0.91085032E+02</rscale>
<asrwt>0</asrwt>
<pdfrwt beam="2">  1        1 0.30040439E-01 0.91085032E+02</pdfrwt>
<pdfrwt beam="1">  1       -1 0.16341843E-02 0.91085032E+02</pdfrwt>
<totfact> 0.11817677E+05</totfact>
</mgrwt>
</event>
<event>
 5    1  0.2718303E+000  0.9138052E+02  0.7818608E-02  0.1299543E+00
          1   -1    0    0  501    0  0.00000000000E+00  0.00000000000E+00  0.25663513121E+02  0.25663513546E+02  0.46700000000E-02 0. -1.
         -1   -1    0    0    0  501 -0.00000000000E+00 -0.00000000000E+00 -0.81345046232E+02  0.81345046367E+02  0.46700000000E-02 0.  1.
         23    2    1    2    0    0  0.00000000000E+00  0.00000000000E+00 -0.55681533112E+02  0.10700855991E+03  0.91380516331E+02 0.  0.
        -11    1    3    3    0    0 -0.34864797609E+02 -0.27482879700E+02 -0.15188480750E+02  0.46920706907E+02  0.51100000000E-03 0.  1.
         11    1    3    3    0    0  0.34864797609E+02  0.27482879700E+02 -0.40493052362E+02  0.60087853005E+02  0.51100000000E-03 0. -1.
<mgrwt>
<rscale>  0 0.91380516E+02</rscale>
<asrwt>0</asrwt>
<pdfrwt beam="1">  1        1 0.39482329E-02 0.91380516E+02</pdfrwt>
<pdfrwt beam="2">  1       -1 0.12514622E-01 0.91380516E+02</pdfrwt>
<totfact> 0.83930038E+04</totfact>
</mgrwt>
</event>
<event>
 5    1  0.2718303E+000  0.8687411E+02  0.7818608E-02  0.1310603E+00
          1   -1    0    0  501    0  0.00000000000E+00  0.00000000000E+00  0.36071181598E+03  0.36071181601E+03  0.46700000000E-02 0. -1.
         -1   -1    0    0    0  501 -0.00000000000E+00 -0.00000000000E+00 -0.52307056084E+01  0.52307076931E+01  0.46700000000E-02 0.  1.
         23    2    1    2    0    0  0.00000000000E+00  0.00000000000E+00  0.35548111037E+03  0.36594252371E+03  0.86874109051E+02 0.  0.
        -11    1    3    3    0    0  0.11909903190E+02  0.41149436796E+02  0.14746571177E+03  0.15356190312E+03  0.51100000000E-03 0.  1.
         11    1    3    3    0    0 -0.11909903190E+02 -0.41149436796E+02  0.20801539861E+03  0.21238062059E+03  0.51100000000E-03 0. -1.
<mgrwt>
<rscale>  0 0.86874109E+02</rscale>
<asrwt>0</asrwt>
<pdfrwt beam="1">  1        1 0.55494146E-01 0.86874109E+02</pdfrwt>
<pdfrwt beam="2">  1       -1 0.80472380E-03 0.86874109E+02</pdfrwt>
<totfact> 0.15065610E+05</totfact>
</mgrwt>
</event>
<event>
 4    1  0.2718303E+000  0.1405473E+03  0.7818608E-02  0.1212594E+00
          1   -1    0    0  501    0  0.00000000000E+00  0.00000000000E+00  0.16380090716E+02  0.16380091381E+02  0.46700000000E-02 0. -1.
         -1   -1    0    0    0  501 -0.00000000000E+00 -0.00000000000E+00 -0.30148715975E+03  0.30148715979E+03  0.46700000000E-02 0.  1.
        -11    1    1    2    0    0 -0.13497026280E+02  0.56268103924E+02 -0.23273927748E+03  0.23982460366E+03  0.51100000000E-03 0.  1.
         11    1    1    2    0    0  0.13497026280E+02 -0.56268103924E+02 -0.52367791552E+02  0.78042647507E+02  0.51100000000E-03 0. -1.
<mgrwt>
<rscale>  0 0.14054732E+03</rscale>
<asrwt>0</asrwt>
<pdfrwt beam="1">  1        1 0.25200142E-02 0.14054732E+03</pdfrwt>
<pdfrwt beam="2">  1       -1 0.46382636E-01 0.14054732E+03</pdfrwt>
<totfact> 0.19210195E+04</totfact>
</mgrwt>
</event>
<event>
 5    1  0.2718303E+000  0.9026299E+02  0.7818608E-02  0.1302216E+00
         -1   -1    0    0    0  501 -0.00000000000E+00  0.00000000000E+00  0.13555797292E+03  0.13555797300E+03  0.46700000000E-02 0.  1.
          1   -1    0    0  501    0  0.00000000000E+00 -0.00000000000E+00 -0.15025687642E+02  0.15025688368E+02  0.46700000000E-02 0. -1.
         23    2    1    2    0    0  0.00000000000E+00  0.00000000000E+00  0.12053228528E+03  0.15058366137E+03  0.90262989520E+02 0.  0.
        -11    1    3    3    0    0 -0.18992512133E+02 -0.16646401122E+02 -0.21335163990E+01  0.25345020811E+02  0.51100000000E-03 0. -1.
         11    1    3    3    0    0  0.18992512133E+02  0.16646401122E+02  0.12266580168E+03  0.12523864056E+03  0.51100000000E-03 0.  1.
<mgrwt>
<rscale>  0 0.90262990E+02</rscale>
<asrwt>0</asrwt>
<pdfrwt beam="2">  1        1 0.23116443E-02 0.90262990E+02</pdfrwt>
<pdfrwt beam="1">  1       -1 0.20855073E-01 0.90262990E+02</pdfrwt>
<totfact> 0.78547859E+04</totfact>
</mgrwt>
</event>
<event>
 5    1  0.2718303E+000  0.9189798E+02  0.7818608E-02  0.1298319E+00
          1   -1    0    0  501    0  0.00000000000E+00  0.00000000000E+00  0.34508406300E+02  0.34508406616E+02  0.46700000000E-02 0. -1.
         -1   -1    0    0    0  501 -0.00000000000E+00 -0.00000000000E+00 -0.61182477929E+02  0.61182478107E+02  0.46700000000E-02 0.  1.
         23    2    1    2    0    0  0.00000000000E+00  0.00000000000E+00 -0.26674071629E+02  0.95690884723E+02  0.91897983231E+02 0.  0.
        -11    1    3    3    0    0 -0.38046625360E+01  0.39369244610E+02  0.11013994472E+02  0.41057532228E+02  0.51100000000E-03 0. -1.
         11    1    3    3    0    0  0.38046625360E+01 -0.39369244610E+02 -0.37688066101E+02  0.54633352495E+02  0.51100000000E-03 0.  1.
<mgrwt>
<rscale>  0 0.91897983E+02</rscale>
<asrwt>0</asrwt>
<pdfrwt beam="1">  1        1 0.53089856E-02 0.91897983E+02</pdfrwt>
<pdfrwt beam="2">  1       -1 0.94126889E-02 0.91897983E+02</pdfrwt>
<totfact> 0.86659258E+04</totfact>
</mgrwt>
</event>
<event>
 5    1  0.2718303E+000  0.9362930E+02  0.7818608E-02  0.1294293E+00
          1   -1    0    0  501    0  0.00000000000E+00  0.00000000000E+00  0.12464009486E+03  0.12464009495E+03  0.46700000000E-02 0. -1.
         -1   -1    0    0    0  501 -0.00000000000E+00 -0.00000000000E+00 -0.17583517131E+02  0.17583517751E+02  0.46700000000E-02 0.  1.
         23    2    1    2    0    0  0.00000000000E+00  0.00000000000E+00  0.10705657773E+03  0.14222361270E+03  0.93629296559E+02 0.  0.
        -11    1    3    3    0    0 -0.27794800079E+02 -0.37622102769E+02  0.56425480785E+02  0.73292621800E+02  0.51100000000E-03 0. -1.
         11    1    3    3    0    0  0.27794800079E+02  0.37622102769E+02  0.50631096944E+02  0.68930990899E+02  0.51100000000E-03 0.  1.
<mgrwt>
<rscale>  0 0.93629297E+02</rscale>
<asrwt>0</asrwt>
<pdfrwt beam="1">  1        1 0.19175400E-01 0.93629297E+02</pdfrwt>
<pdfrwt beam="2">  1       -1 0.27051565E-02 0.93629297E+02</pdfrwt>
<totfact> 0.10091222E+05</totfact>
</mgrwt>
</event>
<event>
 5    1  0.2718303E+000  0.8995274E+02  0.7818608E-02  0.1302966E+00
          1   -1    0    0  501    0  0.00000000000E+00  0.00000000000E+00  0.63469056872E+02  0.63469057044E+02  0.46700000000E-02 0. -1.
         -1   -1    0    0    0  501 -0.00000000000E+00 -0.00000000000E+00 -0.31871811728E+02  0.31871812070E+02  0.46700000000E-02 0.  1.
         23    2    1    2    0    0  0.00000000000E+00  0.00000000000E+00  0.31597245144E+02  0.95340869114E+02  0.89952739940E+02 0.  0.
        -11    1    3    3    0    0 -0.18865522775E+02  0.23020286731E+02 -0.19941094658E+02  0.35825812023E+02  0.51100000000E-03 0.  1.
         11    1    3    3    0    0  0.18865522775E+02 -0.23020286731E+02  0.51538339802E+02  0.59515057091E+02  0.51100000000E-03 0. -1.
<mgrwt>
<rscale>  0 0.89952740E+02</rscale>
<asrwt>0</asrwt>
<pdfrwt beam="1">  1        1 0.97644702E-02 0.89952740E+02</pdfrwt>
<pdfrwt beam="2">  1       -1 0.49033557E-02 0.89952740E+02</pdfrwt>
<totfact> 0.10089547E+05</totfact>
</mgrwt>
</event>
<event>
 5    1  0.2718303E+000  0.8778248E+02  0.7818608E-02  0.1308312E+00
         -1   -1    0    0    0  501 -0.00000000000E+00  0.00000000000E+00  0.36504293834E+02  0.36504294133E+02  0.46700000000E-02 0.  1.
          1   -1    0    0  501    0  0.00000000000E+00 -0.00000000000E+00 -0.52772996110E+02  0.52772996316E+02  0.46700000000E-02 0. -1.
         23    2    1    2    0    0  0.00000000000E+00  0.00000000000E+00 -0.16268702276E+02  0.89277290449E+02  0.87782480691E+02 0.  0.
        -11    1    3    3    0    0 -0.16752583740E+02 -0.39996854036E+02 -0.12332608054E+01  0.43381082597E+02  0.51100000000E-03 0.  1.
         11    1    3    3    0    0  0.16752583740E+02  0.39996854036E+02 -0.15035441470E+02  0.45896207853E+02  0.51100000000E-03 0. -1.
<mgrwt>
<rscale>  0 0.87782481E+02</rscale>
<asrwt>0</asrwt>
<pdfrwt beam="2">  1        1 0.81189225E-02 0.87782481E+02</pdfrwt>
<pdfrwt beam="1">  1       -1 0.56160452E-02 0.87782481E+02</pdfrwt>
<totfact> 0.10503215E+05</totfact>
</mgrwt>
</event>
<event>
 5    1  0.2718303E+000  0.8968731E+02  0.7818608E-02  0.1303611E+00
          1   -1    0    0  501    0  0.00000000000E+00  0.00000000000E+00  0.48877290003E+02  0.48877290226E+02  0.46700000000E-02 0. -1.
         -1   -1    0    0    0  501 -0.00000000000E+00 -0.00000000000E+00 -0.41142895727E+02  0.41142895992E+02  0.46700000000E-02 0.  1.
         23    2    1    2    0    0  0.00000000000E+00  0.00000000000E+00  0.77343942754E+01  0.90020186218E+02  0.89687307195E+02 0.  0.
        -11    1    3    3    0    0 -0.22827151012E+02  0.36439848298E+02  0.16642828750E+02  0.46107755491E+02  0.51100000000E-03 0.  1.
         11    1    3    3    0    0  0.22827151012E+02 -0.36439848298E+02 -0.89084344742E+01  0.43912430727E+02  0.51100000000E-03 0. -1.
<mgrwt>
<rscale>  0 0.89687307E+02</rscale>
<asrwt>0</asrwt>
<pdfrwt beam="1">  1        1 0.75195831E-02 0.89687307E+02</pdfrwt>
<pdfrwt beam="2">  1       -1 0.63296763E-02 0.89687307E+02</pdfrwt>
<totfact> 0.97842760E+04</totfact>
</mgrwt>
</event>
<event>
 5    1  0.2718303E+000  0.8650323E+02  0.7818608E-02  0.1311548E+00
         -1   -1    0    0    0  501 -0.00000000000E+00  0.00000000000E+00  0.70404021065E+01  0.70404036554E+01  0.46700000000E-02 0.  1.
          1   -1    0    0  501    0  0.00000000000E+00 -0.00000000000E+00 -0.26570953049E+03  0.26570953053E+03  0.46700000000E-02 0. -1.
         23    2    1    2    0    0  0.00000000000E+00  0.00000000000E+00 -0.25866912838E+03  0.27274993419E+03  0.86503228957E+02 0.  0.
        -11    1    3    3    0    0 -0.25559245214E+01 -0.38269087699E+02 -0.19236789414E+03  0.19615418048E+03  0.51100000000E-03 0. -1.
         11    1    3    3    0    0  0.25559245214E+01  0.38269087699E+02 -0.66301234245E+02  0.76595753708E+02  0.51100000000E-03 0.  1.
<mgrwt>
<rscale>  0 0.86503229E+02</rscale>
<asrwt>0</asrwt>
<pdfrwt beam="2">  1        1 0.40878382E-01 0.86503229E+02</pdfrwt>
<pdfrwt beam="1">  1       -1 0.10831391E-02 0.86503229E+02</pdfrwt>
<totfact> 0.14395440E+05</totfact>
</mgrwt>
</event>
<event>
 5    1  0.2718303E+000  0.9036834E+02  0.7818608E-02  0.1301962E+00
         -1   -1    0    0    0  501 -0.00000000000E+00  0.00000000000E+00  0.30064204694E+02  0.30064205057E+02  0.46700000000E-02 0.  1.
          1   -1    0    0  501    0  0.00000000000E+00 -0.00000000000E+00 -0.67908301147E+02  0.67908301308E+02  0.46700000000E-02 0. -1.
         23    2    1    2    0    0  0.00000000000E+00  0.00000000000E+00 -0.37844096453E+02  0.97972506365E+02  0.90368337193E+02 0.  0.
        -11    1    3    3    0    0 -0.12651034582E+02 -0.34928612526E+02  0.89629143435E+01  0.38215055708E+02  0.51100000000E-03 0.  1.
         11    1    3    3    0    0  0.12651034582E+02  0.34928612526E+02 -0.46807010796E+02  0.59757450657E+02  0.51100000000E-03 0. -1.
<mgrwt>
<rscale>  0 0.90368337E+02</rscale>
<asrwt>0</asrwt>
<pdfrwt beam="2">  1        1 0.10447431E-01 0.90368337E+02</pdfrwt>
<pdfrwt beam="1">  1       -1 0.46252623E-02 0.90368337E+02</pdfrwt>
<totfact> 0.10064888E+05</totfact>
</mgrwt>
</event>
<event>
 5    1  0.2718303E+000  0.9065715E+02  0.7818608E-02  0.1301268E+00
         -1   -1    0    0    0  501 -0.00000000000E+00  0.00000000000E+00  0.34955032913E+02  0.34955033225E+02  0.46700000000E-02 0.  1.
          1   -1    0    0  501    0  0.00000000000E+00 -0.00000000000E+00 -0.58780655648E+02  0.58780655834E+02  0.46700000000E-02 0. -1.
         23    2    1    2    0    0  0.00000000000E+00  0.00000000000E+00 -0.23825622736E+02  0.93735689058E+02  0.90657151425E+02 0.  0.
        -11    1    3    3    0    0  0.39505427628E+02  0.17643661307E+02  0.20629273106E+01  0.43315508375E+02  0.51100000000E-03 0. -1.
         11    1    3    3    0    0 -0.39505427628E+02 -0.17643661307E+02 -0.25888550046E+02  0.50420180684E+02  0.51100000000E-03 0.  1.
<mgrwt>
<rscale>  0 0.90657151E+02</rscale>
<asrwt>0</asrwt>
<pdfrwt beam="2">  1        1 0.90431778E-02 0.90657151E+02</pdfrwt>
<pdfrwt beam="1">  1       -1 0.53776974E-02 0.90657151E+02</pdfrwt>
<totfact> 0.97607817E+04</totfact>
</mgrwt>
</event>
<event>
 5    1  0.2718303E+000  0.8876430E+02  0.7818608E-02  0.1305872E+00
          1   -1    0    0  501    0  0.00000000000E+00  0.00000000000E+00  0.95186094325E+02  0.95186094440E+02  0.46700000000E-02 0. -1.
         -1   -1    0    0    0  501 -0.00000000000E+00 -0.00000000000E+00 -0.20693937954E+02  0.20693938481E+02  0.46700000000E-02 0.  1.
         23    2    1    2    0    0  0.00000000000E+00  0.00000000000E+00  0.74492156372E+02  0.11588003292E+03  0.88764298391E+02 0.  0.
        -11    1    3    3    0    0 -0.29802211112E+02  0.32716878529E+02  0.32875304181E+02  0.55130314284E+02  0.51100000000E-03 0. -1.
         11    1    3    3    0    0  0.29802211112E+02 -0.32716878529E+02  0.41616852191E+02  0.60749718636E+02  0.51100000000E-03 0.  1.
<mgrwt>
<rscale>  0 0.88764298E+02</rscale>
<asrwt>0</asrwt>
<pdfrwt beam="1">  1        1 0.14644014E-01 0.88764298E+02</pdfrwt>
<pdfrwt beam="2">  1       -1 0.31836829E-02 0.88764298E+02</pdfrwt>
<totfact> 0.11145174E+05</totfact>
</mgrwt>
</event>
<event>
 5    1  0.2718303E+000  0.9147793E+02  0.7818608E-02  0.1299312E+00
         -1   -1    0    0    0  501 -0.00000000000E+00  0.00000000000E+00  0.22297414817E+02  0.22297415306E+02  0.46700000000E-02 0.  1.
          1   -1    0    0  501    0  0.00000000000E+00 -0.00000000000E+00 -0.93824911765E+02  0.93824911881E+02  0.46700000000E-02 0. -1.
         23    2    1    2    0    0  0.00000000000E+00  0.00000000000E+00 -0.71527496948E+02  0.11612232719E+03  0.91477932048E+02 0.  0.
        -11    1    3    3    0    0  0.43390361061E+02  0.14223408535E+02 -0.32399417361E+02  0.55988847363E+02  0.51100000000E-03 0. -1.
         11    1    3    3    0    0 -0.43390361061E+02 -0.14223408535E+02 -0.39128079587E+02  0.60133479825E+02  0.51100000000E-03 0.  1.
<mgrwt>
<rscale>  0 0.91477932E+02</rscale>
<asrwt>0</asrwt>
<pdfrwt beam="2">  1        1 0.14434602E-01 0.91477932E+02</pdfrwt>
<pdfrwt beam="1">  1       -1 0.34303716E-02 0.91477932E+02</pdfrwt>
<totfact> 0.10243143E+05</totfact>
</mgrwt>
</event>
<event>
 5    1  0.2718303E+000  0.9481376E+02  0.7818608E-02  0.1291596E+00
         -1   -1    0    0    0  501 -0.00000000000E+00  0.00000000000E+00  0.65975364333E+01  0.65975380861E+01  0.46700000000E-02 0.  1.
          1   -1    0    0  501    0  0.00000000000E+00 -0.00000000000E+00 -0.34064412255E+03  0.34064412258E+03  0.46700000000E-02 0. -1.
         23    2    1    2    0    0  0.00000000000E+00  0.00000000000E+00 -0.33404658612E+03  0.34724166067E+03  0.94813760643E+02 0.  0.
        -11    1    3    3    0    0  0.15762206087E+02 -0.39713058730E+02 -0.24224329964E+03  0.24598250018E+03  0.51100000000E-03 0. -1.
         11    1    3    3    0    0 -0.15762206087E+02  0.39713058730E+02 -0.91803286480E+02  0.10125916049E+03  0.51100000000E-03 0.  1.
<mgrwt>
<rscale>  0 0.94813761E+02</rscale>
<asrwt>0</asrwt>
<pdfrwt beam="2">  1        1 0.52406775E-01 0.94813761E+02</pdfrwt>
<pdfrwt beam="1">  1       -1 0.10150060E-02 0.94813761E+02</pdfrwt>
<totfact> 0.11819639E+05</totfact>
</mgrwt>
</event>
<event>
 5    1  0.2718303E+000  0.8251017E+02  0.7818608E-02  0.1322075E+00
         -1   -1    0    0    0  501 -0.00000000000E+00  0.00000000000E+00  0.82458017086E+01  0.82458030311E+01  0.46700000000E-02 0.  1.
          1   -1    0    0  501    0  0.00000000000E+00 -0.00000000000E+00 -0.20640588919E+03  0.20640588924E+03  0.46700000000E-02 0. -1.
         23    2    1    2    0    0  0.00000000000E+00  0.00000000000E+00 -0.19816008748E+03  0.21465169227E+03  0.82510173466E+02 0.  0.
        -11    1    3    3    0    0  0.34431416430E+02 -0.21832871616E+02 -0.82670783138E+02  0.92177302550E+02  0.51100000000E-03 0.  1.
         11    1    3    3    0    0 -0.34431416430E+02  0.21832871616E+02 -0.11548930434E+03  0.12247438972E+03  0.51100000000E-03 0. -1.
<mgrwt>
<rscale>  0 0.82510173E+02</rscale>
<asrwt>0</asrwt>
<pdfrwt beam="2">  1        1 0.31754748E-01 0.82510173E+02</pdfrwt>
<pdfrwt beam="1">  1       -1 0.12685851E-02 0.82510173E+02</pdfrwt>
<totfact> 0.15545383E+05</totfact>
</mgrwt>
</event>
<event>
 5    1  0.2718303E+000  0.8927398E+02  0.7818608E-02  0.1304619E+00
         -1   -1    0    0    0  501 -0.00000000000E+00  0.00000000000E+00  0.24250905370E+02  0.24250905820E+02  0.46700000000E-02 0.  1.
          1   -1    0    0  501    0  0.00000000000E+00 -0.00000000000E+00 -0.82160272522E+02  0.82160272654E+02  0.46700000000E-02 0. -1.
         23    2    1    2    0    0  0.00000000000E+00  0.00000000000E+00 -0.57909367151E+02  0.10641117847E+03  0.89273983335E+02 0.  0.
        -11    1    3    3    0    0 -0.36202883808E+02 -0.31126329374E+01 -0.59856709969E+02  0.70022589272E+02  0.51100000000E-03 0. -1.
         11    1    3    3    0    0  0.36202883808E+02  0.31126329374E+01  0.19473428181E+01  0.36388589202E+02  0.51100000000E-03 0.  1.
<mgrwt>
<rscale>  0 0.89273983E+02</rscale>
<asrwt>0</asrwt>
<pdfrwt beam="2">  1        1 0.12640042E-01 0.89273983E+02</pdfrwt>
<pdfrwt beam="1">  1       -1 0.37309086E-02 0.89273983E+02</pdfrwt>
<totfact> 0.10718013E+05</totfact>
</mgrwt>
</event>
<event>
 5    1  0.2718303E+000  0.9009904E+02  0.7818608E-02  0.1302612E+00
          1   -1    0    0  501    0  0.00000000000E+00  0.00000000000E+00  0.14350911507E+03  0.14350911515E+03  0.46700000000E-02 0. -1.
         -1   -1    0    0    0  501 -0.00000000000E+00 -0.00000000000E+00 -0.14141674691E+02  0.14141675462E+02  0.46700000000E-02 0.  1.
         23    2    1    2    0    0  0.00000000000E+00  0.00000000000E+00  0.12936744038E+03  0.15765079061E+03  0.90099040779E+02 0.  0.
        -11    1    3    3    0    0 -0.26690509189E+01 -0.24092135476E+02 -0.17585141519E+01  0.24303234289E+02  0.51100000000E-03 0.  1.
         11    1    3    3    0    0  0.26690509189E+01  0.24092135476E+02  0.13112595453E+03  0.13334755632E+03  0.51100000000E-03 0. -1.
<mgrwt>
<rscale>  0 0.90099041E+02</rscale>
<asrwt>0</asrwt>
<pdfrwt beam="1">  1        1 0.22078325E-01 0.90099041E+02</pdfrwt>
<pdfrwt beam="2">  1       -1 0.21756423E-02 0.90099041E+02</pdfrwt>
<totfact> 0.11485363E+05</totfact>
</mgrwt>
</event>
<event>
 5    1  0.2718303E+000  0.9811125E+02  0.7818608E-02  0.1284319E+00
          1   -1    0    0  501    0  0.00000000000E+00  0.00000000000E+00  0.14799752361E+02  0.14799753098E+02  0.46700000000E-02 0. -1.
         -1   -1    0    0    0  501 -0.00000000000E+00 -0.00000000000E+00 -0.16260098070E+03  0.16260098077E+03  0.46700000000E-02 0.  1.
         23    2    1    2    0    0  0.00000000000E+00  0.00000000000E+00 -0.14780122834E+03  0.17740073387E+03  0.98111249496E+02 0.  0.
        -11    1    3    3    0    0  0.44641198038E+02  0.13552870828E+01 -0.37208753729E+02  0.58130583342E+02  0.51100000000E-03 0. -1.
         11    1    3    3    0    0 -0.44641198038E+02 -0.13552870828E+01 -0.11059247461E+03  0.11927015053E+03  0.51100000000E-03 0.  1.
<mgrwt>
<rscale>  0 0.98111249E+02</rscale>
<asrwt>0</asrwt>
<pdfrwt beam="1">  1        1 0.22768852E-02 0.98111249E+02</pdfrwt>
<pdfrwt beam="2">  1       -1 0.25015534E-01 0.98111249E+02</pdfrwt>
<totfact> 0.60601005E+04</totfact>
</mgrwt>
</event>
<event>
 5    1  0.2718303E+000  0.9127002E+02  0.7818608E-02  0.1299805E+00
          1   -1    0    0  501    0  0.00000000000E+00  0.00000000000E+00  0.75525077898E+02  0.75525078042E+02  0.46700000000E-02 0. -1.
         -1   -1    0    0    0  501 -0.00000000000E+00 -0.00000000000E+00 -0.27574341986E+02  0.27574342381E+02  0.46700000000E-02 0.  1.
         23    2    1    2    0    0  0.00000000000E+00  0.00000000000E+00  0.47950735913E+02  0.10309942042E+03  0.91270024746E+02 0.  0.
        -11    1    3    3    0    0  0.24363565025E+02 -0.18649078027E+02  0.62135132937E+02  0.69297519128E+02  0.51100000000E-03 0. -1.
         11    1    3    3    0    0 -0.24363565025E+02  0.18649078027E+02 -0.14184397024E+02  0.33801901295E+02  0.51100000000E-03 0.  1.
<mgrwt>
<rscale>  0 0.91270025E+02</rscale>
<asrwt>0</asrwt>
<pdfrwt beam="1">  1        1 0.11619243E-01 0.91270025E+02</pdfrwt>
<pdfrwt beam="2">  1       -1 0.42422066E-02 0.91270025E+02</pdfrwt>
<totfact> 0.99557632E+04</totfact>
</mgrwt>
</event>
<event>
 5    1  0.2718303E+000  0.9786794E+02  0.7818608E-02  0.1284844E+00
          1   -1    0    0  501    0  0.00000000000E+00  0.00000000000E+00  0.78050807294E+02  0.78050807434E+02  0.46700000000E-02 0. -1.
         -1   -1    0    0    0  501 -0.00000000000E+00 -0.00000000000E+00 -0.30679160948E+02  0.30679161304E+02  0.46700000000E-02 0.  1.
         23    2    1    2    0    0  0.00000000000E+00  0.00000000000E+00  0.47371646346E+02  0.10872996874E+03  0.97867937672E+02 0.  0.
        -11    1    3    3    0    0 -0.27629438497E+02 -0.39467160158E+02  0.33209946881E+02  0.58514469790E+02  0.51100000000E-03 0.  1.
         11    1    3    3    0    0  0.27629438497E+02  0.39467160158E+02  0.14161699465E+02  0.50215498948E+02  0.51100000000E-03 0. -1.
<mgrwt>
<rscale>  0 0.97867938E+02</rscale>
<asrwt>0</asrwt>
<pdfrwt beam="1">  1        1 0.12007816E-01 0.97867938E+02</pdfrwt>
<pdfrwt beam="2">  1       -1 0.47198710E-02 0.97867938E+02</pdfrwt>
<totfact> 0.82518267E+04</totfact>
</mgrwt>
</event>
<event>
 5    1  0.2718303E+000  0.9275149E+02  0.7818608E-02  0.1296322E+00
         -1   -1    0    0    0  501 -0.00000000000E+00  0.00000000000E+00  0.73805342648E+02  0.73805342796E+02  0.46700000000E-02 0.  1.
          1   -1    0    0  501    0  0.00000000000E+00 -0.00000000000E+00 -0.29140297917E+02  0.29140298291E+02  0.46700000000E-02 0. -1.
         23    2    1    2    0    0  0.00000000000E+00  0.00000000000E+00  0.44665044731E+02  0.10294564109E+03  0.92751489465E+02 0.  0.
        -11    1    3    3    0    0 -0.36060103915E+02 -0.17812234884E+02  0.47959216754E+02  0.62591479275E+02  0.51100000000E-03 0.  1.
         11    1    3    3    0    0  0.36060103915E+02  0.17812234884E+02 -0.32941720225E+01  0.40354161812E+02  0.51100000000E-03 0. -1.
<mgrwt>
<rscale>  0 0.92751489E+02</rscale>
<asrwt>0</asrwt>
<pdfrwt beam="2">  1        1 0.44831229E-02 0.92751489E+02</pdfrwt>
<pdfrwt beam="1">  1       -1 0.11354668E-01 0.92751489E+02</pdfrwt>
<totfact> 0.82120634E+04</totfact>
</mgrwt>
</event>
<event>
 5    1  0.2718303E+000  0.8668232E+02  0.7818608E-02  0.1311091E+00
         -1   -1    0    0    0  501 -0.00000000000E+00  0.00000000000E+00  0.62296127936E+01  0.62296145440E+01  0.46700000000E-02 0.  1.
          1   -1    0    0  501    0  0.00000000000E+00 -0.00000000000E+00 -0.30153656714E+03  0.30153656717E+03  0.46700000000E-02 0. -1.
         23    2    1    2    0    0  0.00000000000E+00  0.00000000000E+00 -0.29530695434E+03  0.30776618172E+03  0.86682324179E+02 0.  0.
        -11    1    3    3    0    0 -0.35263011740E+02 -0.24027188177E+02 -0.12069052494E+03  0.12801167361E+03  0.51100000000E-03 0.  1.
         11    1    3    3    0    0  0.35263011740E+02  0.24027188177E+02 -0.17461642940E+03  0.17975450811E+03  0.51100000000E-03 0. -1.
<mgrwt>
<rscale>  0 0.86682324E+02</rscale>
<asrwt>0</asrwt>
<pdfrwt beam="2">  1        1 0.46390230E-01 0.86682324E+02</pdfrwt>
<pdfrwt beam="1">  1       -1 0.95840234E-03 0.86682324E+02</pdfrwt>
<totfact> 0.14667541E+05</totfact>
</mgrwt>
</event>
<event>
 5    1  0.2718303E+000  0.9040558E+02  0.7818608E-02  0.1301872E+00
          1   -1    0    0  501    0  0.00000000000E+00  0.00000000000E+00  0.12978170225E+03  0.12978170233E+03  0.46700000000E-02 0. -1.
         -1   -1    0    0    0  501 -0.00000000000E+00 -0.00000000000E+00 -0.15744069299E+02  0.15744069992E+02  0.46700000000E-02 0.  1.
         23    2    1    2    0    0  0.00000000000E+00  0.00000000000E+00  0.11403763295E+03  0.14552577232E+03  0.90405578820E+02 0.  0.
        -11    1    3    3    0    0  0.21032036680E+02 -0.63715084717E+01  0.12060395510E+03  0.12258979024E+03  0.51100000000E-03 0. -1.
         11    1    3    3    0    0 -0.21032036680E+02  0.63715084717E+01 -0.65663221476E+01  0.22935982079E+02  0.51100000000E-03 0.  1.
<mgrwt>
<rscale>  0 0.90405579E+02</rscale>
<asrwt>0</asrwt>
<pdfrwt beam="1">  1        1 0.19966416E-01 0.90405579E+02</pdfrwt>
<pdfrwt beam="2">  1       -1 0.24221646E-02 0.90405579E+02</pdfrwt>
<totfact> 0.11177260E+05</totfact>
</mgrwt>
</event>
<event>
 5    1  0.2718303E+000  0.9476575E+02  0.7818608E-02  0.1291705E+00
         -1   -1    0    0    0  501 -0.00000000000E+00  0.00000000000E+00  0.40794847654E+02  0.40794847921E+02  0.46700000000E-02 0.  1.
          1   -1    0    0  501    0  0.00000000000E+00 -0.00000000000E+00 -0.55034817653E+02  0.55034817852E+02  0.46700000000E-02 0. -1.
         23    2    1    2    0    0  0.00000000000E+00  0.00000000000E+00 -0.14239969999E+02  0.95829665773E+02  0.94765753817E+02 0.  0.
        -11    1    3    3    0    0  0.16781183572E+01  0.28180860070E+02  0.31361944172E+02  0.42196546044E+02  0.51100000000E-03 0.  1.
         11    1    3    3    0    0 -0.16781183572E+01 -0.28180860070E+02 -0.45601914171E+02  0.53633119729E+02  0.51100000000E-03 0. -1.
<mgrwt>
<rscale>  0 0.94765754E+02</rscale>
<asrwt>0</asrwt>
<pdfrwt beam="2">  1        1 0.84668950E-02 0.94765754E+02</pdfrwt>
<pdfrwt beam="1">  1       -1 0.62761305E-02 0.94765754E+02</pdfrwt>
<totfact> 0.85396210E+04</totfact>
</mgrwt>
</event>
<event>
 5    1  0.2718303E+000  0.9334724E+02  0.7818608E-02  0.1294943E+00
         -1   -1    0    0    0  501 -0.00000000000E+00  0.00000000000E+00  0.79896973303E+02  0.79896973439E+02  0.46700000000E-02 0.  1.
          1   -1    0    0  501    0  0.00000000000E+00 -0.00000000000E+00 -0.27265445606E+02  0.27265446006E+02  0.46700000000E-02 0. -1.
         23    2    1    2    0    0  0.00000000000E+00  0.00000000000E+00  0.52631527697E+02  0.10716241945E+03  0.93347235812E+02 0.  0.
        -11    1    3    3    0    0  0.72745237880E+01  0.29290732682E+02 -0.14556196053E+02  0.33507440385E+02  0.51100000000E-03 0. -1.
         11    1    3    3    0    0 -0.72745237880E+01 -0.29290732682E+02  0.67187723750E+02  0.73654979060E+02  0.51100000000E-03 0.  1.
<mgrwt>
<rscale>  0 0.93347236E+02</rscale>
<asrwt>0</asrwt>
<pdfrwt beam="2">  1        1 0.41946839E-02 0.93347236E+02</pdfrwt>
<pdfrwt beam="1">  1       -1 0.12291842E-01 0.93347236E+02</pdfrwt>
<totfact> 0.79715024E+04</totfact>
</mgrwt>
</event>
<event>
 5    1  0.2718303E+000  0.9076585E+02  0.7818608E-02  0.1301008E+00
         -1   -1    0    0    0  501 -0.00000000000E+00  0.00000000000E+00  0.23440744146E+03  0.23440744151E+03  0.46700000000E-02 0.  1.
          1   -1    0    0  501    0  0.00000000000E+00 -0.00000000000E+00 -0.87864512686E+01  0.87864525097E+01  0.46700000000E-02 0. -1.
         23    2    1    2    0    0  0.00000000000E+00  0.00000000000E+00  0.22562099020E+03  0.24319389402E+03  0.90765846396E+02 0.  0.
        -11    1    3    3    0    0  0.47994279982E+01  0.39716980471E+02  0.55398690861E+02  0.68333652004E+02  0.51100000000E-03 0. -1.
         11    1    3    3    0    0 -0.47994279982E+01 -0.39716980471E+02  0.17022229933E+03  0.17486024202E+03  0.51100000000E-03 0.  1.
<mgrwt>
<rscale>  0 0.90765846E+02</rscale>
<asrwt>0</asrwt>
<pdfrwt beam="2">  1        1 0.13517618E-02 0.90765846E+02</pdfrwt>
<pdfrwt beam="1">  1       -1 0.36062684E-01 0.90765846E+02</pdfrwt>
<totfact> 0.66942403E+04</totfact>
</mgrwt>
</event>
<event>
 5    1  0.2718303E+000  0.8574458E+02  0.7818608E-02  0.1313497E+00
          1   -1    0    0  501    0  0.00000000000E+00  0.00000000000E+00  0.10622147678E+03  0.10622147689E+03  0.46700000000E-02 0. -1.
         -1   -1    0    0    0  501 -0.00000000000E+00 -0.00000000000E+00 -0.17303782487E+02  0.17303783117E+02  0.46700000000E-02 0.  1.
         23    2    1    2    0    0  0.00000000000E+00  0.00000000000E+00  0.88917694296E+02  0.12352526000E+03  0.85744582918E+02 0.  0.
        -11    1    3    3    0    0 -0.35160017730E+02 -0.24530053852E+02  0.44873850184E+02  0.62061363338E+02  0.51100000000E-03 0. -1.
         11    1    3    3    0    0  0.35160017730E+02  0.24530053852E+02  0.44043844112E+02  0.61463896664E+02  0.51100000000E-03 0.  1.
<mgrwt>
<rscale>  0 0.85744583E+02</rscale>
<asrwt>0</asrwt>
<pdfrwt beam="1">  1        1 0.16341765E-01 0.85744583E+02</pdfrwt>
<pdfrwt beam="2">  1       -1 0.26621205E-02 0.85744583E+02</pdfrwt>
<totfact> 0.12461258E+05</totfact>
</mgrwt>
</event>
<event>
 5    1  0.2718303E+000  0.9121886E+02  0.7818608E-02  0.1299927E+00
          1   -1    0    0  501    0  0.00000000000E+00  0.00000000000E+00  0.90970923166E+02  0.90970923286E+02  0.46700000000E-02 0. -1.
         -1   -1    0    0    0  501 -0.00000000000E+00 -0.00000000000E+00 -0.22866867158E+02  0.22866867635E+02  0.46700000000E-02 0.  1.
         23    2    1    2    0    0  0.00000000000E+00  0.00000000000E+00  0.68104056008E+02  0.11383779092E+03  0.91218858779E+02 0.  0.
        -11    1    3    3    0    0  0.44806385507E+02 -0.30250270460E+01  0.24110758202E+02  0.50971478615E+02  0.51100000000E-03 0. -1.
         11    1    3    3    0    0 -0.44806385507E+02  0.30250270460E+01  0.43993297806E+02  0.62866312306E+02  0.51100000000E-03 0.  1.
<mgrwt>
<rscale>  0 0.91218859E+02</rscale>
<asrwt>0</asrwt>
<pdfrwt beam="1">  1        1 0.13995527E-01 0.91218859E+02</pdfrwt>
<pdfrwt beam="2">  1       -1 0.35179796E-02 0.91218859E+02</pdfrwt>
<totfact> 0.10270982E+05</totfact>
</mgrwt>
</event>
<event>
 5    1  0.2718303E+000  0.9079267E+02  0.7818608E-02  0.1300943E+00
          1   -1    0    0  501    0  0.00000000000E+00  0.00000000000E+00  0.10616545030E+02  0.10616546057E+02  0.46700000000E-02 0. -1.
         -1   -1    0    0    0  501 -0.00000000000E+00 -0.00000000000E+00 -0.19411465297E+03  0.19411465303E+03  0.46700000000E-02 0.  1.
         23    2    1    2    0    0  0.00000000000E+00  0.00000000000E+00 -0.18349810794E+03  0.20473119908E+03  0.90792666338E+02 0.  0.
        -11    1    3    3    0    0  0.14374114202E+02  0.35997739412E+02 -0.38465140865E+02  0.54607869981E+02  0.51100000000E-03 0. -1.
         11    1    3    3    0    0 -0.14374114202E+02 -0.35997739412E+02 -0.14503296708E+03  0.15012332910E+03  0.51100000000E-03 0.  1.
<mgrwt>
<rscale>  0 0.90792666E+02</rscale>
<asrwt>0</asrwt>
<pdfrwt beam="1">  1        1 0.16333148E-02 0.90792666E+02</pdfrwt>
<pdfrwt beam="2">  1       -1 0.29863790E-01 0.90792666E+02</pdfrwt>
<totfact> 0.70787835E+04</totfact>
</mgrwt>
</event>
<event>
 5    1  0.2718303E+000  0.8873121E+02  0.7818608E-02  0.1305954E+00
          1   -1    0    0  501    0  0.00000000000E+00  0.00000000000E+00  0.83884995808E+02  0.83884995938E+02  0.46700000000E-02 0. -1.
         -1   -1    0    0    0  501 -0.00000000000E+00 -0.00000000000E+00 -0.23464347377E+02  0.23464347841E+02  0.46700000000E-02 0.  1.
         23    2    1    2    0    0  0.00000000000E+00  0.00000000000E+00  0.60420648431E+02  0.10734934378E+03  0.88731205632E+02 0.  0.
        -11    1    3    3    0    0 -0.21583700993E+02 -0.37454783796E+02  0.18136904449E+02  0.46879252138E+02  0.51100000000E-03 0. -1.
         11    1    3    3    0    0  0.21583700993E+02  0.37454783796E+02  0.42283743982E+02  0.60470091641E+02  0.51100000000E-03 0.  1.
<mgrwt>
<rscale>  0 0.88731206E+02</rscale>
<asrwt>0</asrwt>
<pdfrwt beam="1">  1        1 0.12905384E-01 0.88731206E+02</pdfrwt>
<pdfrwt beam="2">  1       -1 0.36098997E-02 0.88731206E+02</pdfrwt>
<totfact> 0.10933556E+05</totfact>
</mgrwt>
</event>
<event>
 5    1  0.2718303E+000  0.9146648E+02  0.7818608E-02  0.1299339E+00
          1   -1    0    0  501    0  0.00000000000E+00  0.00000000000E+00  0.32387939895E+02  0.32387940232E+02  0.46700000000E-02 0. -1.
         -1   -1    0    0    0  501 -0.00000000000E+00 -0.00000000000E+00 -0.64577414224E+02  0.64577414393E+02  0.46700000000E-02 0.  1.
         23    2    1    2    0    0  0.00000000000E+00  0.00000000000E+00 -0.32189474329E+02  0.96965354625E+02  0.91466484244E+02 0.  0.
        -11    1    3    3    0    0  0.27419258190E+02 -0.30838486325E+02 -0.36995527033E+02  0.55421087856E+02  0.51100000000E-03 0.  1.
         11    1    3    3    0    0 -0.27419258190E+02  0.30838486325E+02  0.48060527040E+01  0.41544266769E+02  0.51100000000E-03 0. -1.
<mgrwt>
<rscale>  0 0.91466484E+02</rscale>
<asrwt>0</asrwt>
<pdfrwt beam="1">  1        1 0.49827600E-02 0.91466484E+02</pdfrwt>
<pdfrwt beam="2">  1       -1 0.99349868E-02 0.91466484E+02</pdfrwt>
<totfact> 0.86958063E+04</totfact>
</mgrwt>
</event>
<event>
 5    1  0.2718303E+000  0.8912749E+02  0.7818608E-02  0.1304978E+00
         -1   -1    0    0    0  501 -0.00000000000E+00  0.00000000000E+00  0.11624008429E+02  0.11624009367E+02  0.46700000000E-02 0.  1.
          1   -1    0    0  501    0  0.00000000000E+00 -0.00000000000E+00 -0.17084701616E+03  0.17084701623E+03  0.46700000000E-02 0. -1.
         23    2    1    2    0    0  0.00000000000E+00  0.00000000000E+00 -0.15922300774E+03  0.18247102560E+03  0.89127487283E+02 0.  0.
        -11    1    3    3    0    0  0.35036537379E+00  0.26379999979E+02 -0.60822283215E+01  0.27074354219E+02  0.51100000000E-03 0.  1.
         11    1    3    3    0    0 -0.35036537379E+00 -0.26379999979E+02 -0.15314077941E+03  0.15539667138E+03  0.51100000000E-03 0. -1.
<mgrwt>
<rscale>  0 0.89127487E+02</rscale>
<asrwt>0</asrwt>
<pdfrwt beam="2">  1        1 0.26284155E-01 0.89127487E+02</pdfrwt>
<pdfrwt beam="1">  1       -1 0.17883092E-02 0.89127487E+02</pdfrwt>
<totfact> 0.12211269E+05</totfact>
</mgrwt>
</event>
<event>
 5    1  0.2718303E+000  0.9230351E+02  0.7818608E-02  0.1297367E+00
          1   -1    0    0  501    0  0.00000000000E+00  0.00000000000E+00  0.92494617588E+02  0.92494617705E+02  0.46700000000E-02 0. -1.
         -1   -1    0    0    0  501 -0.00000000000E+00 -0.00000000000E+00 -0.23028200616E+02  0.23028201089E+02  0.46700000000E-02 0.  1.
         23    2    1    2    0    0  0.00000000000E+00  0.00000000000E+00  0.69466416972E+02  0.11552281879E+03  0.92303513343E+02 0.  0.
        -11    1    3    3    0    0 -0.16735899612E+02 -0.36057351018E+02  0.64078390238E+02  0.75407313929E+02  0.51100000000E-03 0. -1.
         11    1    3    3    0    0  0.16735899612E+02  0.36057351018E+02  0.53880267339E+01  0.40115504866E+02  0.51100000000E-03 0.  1.
<mgrwt>
<rscale>  0 0.92303513E+02</rscale>
<asrwt>0</asrwt>
<pdfrwt beam="1">  1        1 0.14229941E-01 0.92303513E+02</pdfrwt>
<pdfrwt beam="2">  1       -1 0.35428001E-02 0.92303513E+02</pdfrwt>
<totfact> 0.99709310E+04</totfact>
</mgrwt>
</event>
<event>
 4    1  0.2718303E+000  0.4199377E+02  0.7818608E-02  0.1494032E+00
          1   -1    0    0  501    0  0.00000000000E+00  0.00000000000E+00  0.22393243453E+02  0.22393243940E+02  0.46700000000E-02 0. -1.
         -1   -1    0    0    0  501 -0.00000000000E+00 -0.00000000000E+00 -0.19687595087E+02  0.19687595641E+02  0.46700000000E-02 0.  1.
        -11    1    1    2    0    0 -0.16953971061E+02  0.36564970445E+01  0.13212143332E+02  0.21802931846E+02  0.51100000000E-03 0. -1.
         11    1    1    2    0    0  0.16953971061E+02 -0.36564970445E+01 -0.10506494966E+02  0.20277907735E+02  0.51100000000E-03 0.  1.
<mgrwt>
<rscale>  0 0.41993768E+02</rscale>
<asrwt>0</asrwt>
<pdfrwt beam="1">  1        1 0.34451145E-02 0.41993768E+02</pdfrwt>
<pdfrwt beam="2">  1       -1 0.30288609E-02 0.41993768E+02</pdfrwt>
<totfact> 0.67859218E+05</totfact>
</mgrwt>
</event>
<event>
 5    1  0.2718303E+000  0.9182648E+02  0.7818608E-02  0.1298488E+00
          1   -1    0    0  501    0  0.00000000000E+00  0.00000000000E+00  0.65911756956E+01  0.65911773500E+01  0.46700000000E-02 0. -1.
         -1   -1    0    0    0  501 -0.00000000000E+00 -0.00000000000E+00 -0.31982541227E+03  0.31982541230E+03  0.46700000000E-02 0.  1.
         23    2    1    2    0    0  0.00000000000E+00  0.00000000000E+00 -0.31323423657E+03  0.32641658965E+03  0.91826483321E+02 0.  0.
        -11    1    3    3    0    0  0.44381446260E+02  0.30046163095E+01 -0.19703548789E+03  0.20199436621E+03  0.51100000000E-03 0.  1.
         11    1    3    3    0    0 -0.44381446260E+02 -0.30046163095E+01 -0.11619874868E+03  0.12442222344E+03  0.51100000000E-03 0. -1.
<mgrwt>
<rscale>  0 0.91826483E+02</rscale>
<asrwt>0</asrwt>
<pdfrwt beam="1">  1        1 0.10140274E-02 0.91826483E+02</pdfrwt>
<pdfrwt beam="2">  1       -1 0.49203898E-01 0.91826483E+02</pdfrwt>
<totfact> 0.57951388E+04</totfact>
</mgrwt>
</event>
<event>
 5    1  0.2718303E+000  0.9112449E+02  0.7818608E-02  0.1300151E+00
          1   -1    0    0  501    0  0.00000000000E+00  0.00000000000E+00  0.24131664951E+03  0.24131664955E+03  0.46700000000E-02 0. -1.
         -1   -1    0    0    0  501 -0.00000000000E+00 -0.00000000000E+00 -0.86024648383E+01  0.86024661059E+01  0.46700000000E-02 0.  1.
         23    2    1    2    0    0  0.00000000000E+00  0.00000000000E+00  0.23271418467E+03  0.24991911566E+03  0.91124489713E+02 0.  0.
        -11    1    3    3    0    0  0.26470965471E+02  0.29308258712E+02  0.54042913665E+02  0.66935211655E+02  0.51100000000E-03 0.  1.
         11    1    3    3    0    0 -0.26470965471E+02 -0.29308258712E+02  0.17867127101E+03  0.18298390401E+03  0.51100000000E-03 0. -1.
<mgrwt>
<rscale>  0 0.91124490E+02</rscale>
<asrwt>0</asrwt>
<pdfrwt beam="1">  1        1 0.37125641E-01 0.91124490E+02</pdfrwt>
<pdfrwt beam="2">  1       -1 0.13234561E-02 0.91124490E+02</pdfrwt>
<totfact> 0.12300967E+05</totfact>
</mgrwt>
</event>
<event>
 5    1  0.2718303E+000  0.7212003E+02  0.7818608E-02  0.1353029E+00
          1   -1    0    0  501    0  0.00000000000E+00  0.00000000000E+00  0.48108808259E+02  0.48108808486E+02  0.46700000000E-02 0. -1.
         -1   -1    0    0    0  501 -0.00000000000E+00 -0.00000000000E+00 -0.27028826883E+02  0.27028827286E+02  0.46700000000E-02 0.  1.
         23    2    1    2    0    0  0.00000000000E+00  0.00000000000E+00  0.21079981377E+02  0.75137635772E+02  0.72120029774E+02 0.  0.
        -11    1    3    3    0    0 -0.18741340018E+02  0.39930765376E+01  0.42365513050E+02  0.46497518021E+02  0.51100000000E-03 0. -1.
         11    1    3    3    0    0  0.18741340018E+02 -0.39930765376E+01 -0.21285531673E+02  0.28640117751E+02  0.51100000000E-03 0.  1.
<mgrwt>
<rscale>  0 0.72120030E+02</rscale>
<asrwt>0</asrwt>
<pdfrwt beam="1">  1        1 0.74013551E-02 0.72120030E+02</pdfrwt>
<pdfrwt beam="2">  1       -1 0.41582811E-02 0.72120030E+02</pdfrwt>
<totfact> 0.17753332E+05</totfact>
</mgrwt>
</event>
<event>
 5    1  0.2718303E+000  0.9187380E+02  0.7818608E-02  0.1298376E+00
          1   -1    0    0  501    0  0.00000000000E+00  0.00000000000E+00  0.79201574633E+02  0.79201574771E+02  0.46700000000E-02 0.  1.
         -1   -1    0    0    0  501 -0.00000000000E+00 -0.00000000000E+00 -0.26643391523E+02  0.26643391932E+02  0.46700000000E-02 0. -1.
         23    2    1    2    0    0  0.00000000000E+00  0.00000000000E+00  0.52558183110E+02  0.10584496670E+03  0.91873795853E+02 0.  0.
        -11    1    3    3    0    0 -0.15262523226E+02 -0.46112157778E+01 -0.23353441937E+02  0.28277043282E+02  0.51100000000E-03 0. -1.
         11    1    3    3    0    0  0.15262523226E+02  0.46112157778E+01  0.75911625048E+02  0.77567923421E+02  0.51100000000E-03 0.  1.
<mgrwt>
<rscale>  0 0.91873796E+02</rscale>
<asrwt>0</asrwt>
<pdfrwt beam="1">  1        1 0.12184857E-01 0.91873796E+02</pdfrwt>
<pdfrwt beam="2">  1       -1 0.40989835E-02 0.91873796E+02</pdfrwt>
<totfact> 0.98500647E+04</totfact>
</mgrwt>
</event>
<event>
 5    1  0.2718303E+000  0.9105170E+02  0.7818608E-02  0.1300325E+00
         -1   -1    0    0    0  501 -0.00000000000E+00  0.00000000000E+00  0.33334861560E+03  0.33334861563E+03  0.46700000000E-02 0.  1.
          1   -1    0    0  501    0  0.00000000000E+00 -0.00000000000E+00 -0.62175231554E+01  0.62175249092E+01  0.46700000000E-02 0. -1.
         23    2    1    2    0    0  0.00000000000E+00  0.00000000000E+00  0.32713109244E+03  0.33956614054E+03  0.91051700470E+02 0.  0.
        -11    1    3    3    0    0 -0.30694818675E+02  0.32316728297E+02  0.12896861816E+03  0.13645309558E+03  0.51100000000E-03 0. -1.
         11    1    3    3    0    0  0.30694818675E+02 -0.32316728297E+02  0.19816247428E+03  0.20311304496E+03  0.51100000000E-03 0.  1.
<mgrwt>
<rscale>  0 0.91051700E+02</rscale>
<asrwt>0</asrwt>
<pdfrwt beam="2">  1        1 0.95654229E-03 0.91051700E+02</pdfrwt>
<pdfrwt beam="1">  1       -1 0.51284396E-01 0.91051700E+02</pdfrwt>
<totfact> 0.58224162E+04</totfact>
</mgrwt>
</event>
<event>
 5    1  0.2718303E+000  0.9223758E+02  0.7818608E-02  0.1297522E+00
          1   -1    0    0  501    0  0.00000000000E+00  0.00000000000E+00  0.85380528629E+02  0.85380528757E+02  0.46700000000E-02 0. -1.
         -1   -1    0    0    0  501 -0.00000000000E+00 -0.00000000000E+00 -0.24911330286E+02  0.24911330724E+02  0.46700000000E-02 0.  1.
         23    2    1    2    0    0  0.00000000000E+00  0.00000000000E+00  0.60469198343E+02  0.11029185948E+03  0.92237575421E+02 0.  0.
        -11    1    3    3    0    0 -0.71557387922E+01  0.39550279344E+02  0.31910254311E+01  0.40318876936E+02  0.51100000000E-03 0.  1.
         11    1    3    3    0    0  0.71557387922E+01 -0.39550279344E+02  0.57278172912E+02  0.69972982545E+02  0.51100000000E-03 0. -1.
<mgrwt>
<rscale>  0 0.92237575E+02</rscale>
<asrwt>0</asrwt>
<pdfrwt beam="1">  1        1 0.13135466E-01 0.92237575E+02</pdfrwt>
<pdfrwt beam="2">  1       -1 0.38325124E-02 0.92237575E+02</pdfrwt>
<totfact> 0.98612271E+04</totfact>
</mgrwt>
</event>
<event>
 5    1  0.2718303E+000  0.9805422E+02  0.7818608E-02  0.1284442E+00
         -1   -1    0    0    0  501 -0.00000000000E+00  0.00000000000E+00  0.86151698067E+01  0.86151710724E+01  0.46700000000E-02 0.  1.
          1   -1    0    0  501    0  0.00000000000E+00 -0.00000000000E+00 -0.27900287509E+03  0.27900287513E+03  0.46700000000E-02 0. -1.
         23    2    1    2    0    0  0.00000000000E+00  0.00000000000E+00 -0.27038770528E+03  0.28761804620E+03  0.98054216291E+02 0.  0.
        -11    1    3    3    0    0 -0.24557057821E+02 -0.36520753971E+02 -0.71816341671E+02  0.84228270140E+02  0.51100000000E-03 0.  1.
         11    1    3    3    0    0  0.24557057821E+02  0.36520753971E+02 -0.19857136361E+03  0.20338977606E+03  0.51100000000E-03 0. -1.
<mgrwt>
<rscale>  0 0.98054216E+02</rscale>
<asrwt>0</asrwt>
<pdfrwt beam="2">  1        1 0.42923512E-01 0.98054216E+02</pdfrwt>
<pdfrwt beam="1">  1       -1 0.13254111E-02 0.98054216E+02</pdfrwt>
<totfact> 0.10398326E+05</totfact>
</mgrwt>
</event>
<event>
 5    1  0.2718303E+000  0.9116207E+02  0.7818608E-02  0.1300062E+00
          1   -1    0    0  501    0  0.00000000000E+00  0.00000000000E+00  0.37730788085E+02  0.37730788374E+02  0.46700000000E-02 0.  1.
         -1   -1    0    0    0  501 -0.00000000000E+00 -0.00000000000E+00 -0.55064600710E+02  0.55064600908E+02  0.46700000000E-02 0. -1.
         23    2    1    2    0    0  0.00000000000E+00  0.00000000000E+00 -0.17333812625E+02  0.92795389281E+02  0.91162071125E+02 0.  0.
        -11    1    3    3    0    0  0.72161357212E+01 -0.44925482085E+02 -0.59243344795E+01  0.45885393042E+02  0.51100000000E-03 0. -1.
         11    1    3    3    0    0 -0.72161357212E+01  0.44925482085E+02 -0.11409478146E+02  0.46909996239E+02  0.51100000000E-03 0.  1.
<mgrwt>
<rscale>  0 0.91162071E+02</rscale>
<asrwt>0</asrwt>
<pdfrwt beam="1">  1        1 0.58047366E-02 0.91162071E+02</pdfrwt>
<pdfrwt beam="2">  1       -1 0.84714771E-02 0.91162071E+02</pdfrwt>
<totfact> 0.89900614E+04</totfact>
</mgrwt>
</event>
<event>
 5    1  0.2718303E+000  0.7919158E+02  0.7818608E-02  0.1331361E+00
         -1   -1    0    0    0  501 -0.00000000000E+00  0.00000000000E+00  0.10166279854E+03  0.10166279864E+03  0.46700000000E-02 0.  1.
          1   -1    0    0  501    0  0.00000000000E+00 -0.00000000000E+00 -0.15421830242E+02  0.15421830949E+02  0.46700000000E-02 0. -1.
         23    2    1    2    0    0  0.00000000000E+00  0.00000000000E+00  0.86240968295E+02  0.11708462959E+03  0.79191577042E+02 0.  0.
        -11    1    3    3    0    0  0.16828059404E+02 -0.16847921031E+02 -0.36522189139E+01  0.24090967802E+02  0.51100000000E-03 0. -1.
         11    1    3    3    0    0 -0.16828059404E+02  0.16847921031E+02  0.89893187209E+02  0.92993661790E+02  0.51100000000E-03 0.  1.
<mgrwt>
<rscale>  0 0.79191577E+02</rscale>
<asrwt>0</asrwt>
<pdfrwt beam="2">  1        1 0.23725893E-02 0.79191577E+02</pdfrwt>
<pdfrwt beam="1">  1       -1 0.15640431E-01 0.79191577E+02</pdfrwt>
<totfact> 0.11648907E+05</totfact>
</mgrwt>
</event>
<event>
 5    1  0.2718303E+000  0.9165165E+02  0.7818608E-02  0.1298901E+00
          1   -1    0    0  501    0  0.00000000000E+00  0.00000000000E+00  0.83951526714E+02  0.83951526844E+02  0.46700000000E-02 0. -1.
         -1   -1    0    0    0  501 -0.00000000000E+00 -0.00000000000E+00 -0.25014507767E+02  0.25014508203E+02  0.46700000000E-02 0.  1.
         23    2    1    2    0    0  0.00000000000E+00  0.00000000000E+00  0.58937018946E+02  0.10896603505E+03  0.91651648057E+02 0.  0.
        -11    1    3    3    0    0  0.28368254890E+02 -0.11217498562E+02 -0.11188495543E+02  0.32492654435E+02  0.51100000000E-03 0. -1.
         11    1    3    3    0    0 -0.28368254890E+02  0.11217498562E+02  0.70125514489E+02  0.76473380611E+02  0.51100000000E-03 0.  1.
<mgrwt>
<rscale>  0 0.91651648E+02</rscale>
<asrwt>0</asrwt>
<pdfrwt beam="1">  1        1 0.12915619E-01 0.91651648E+02</pdfrwt>
<pdfrwt beam="2">  1       -1 0.38483859E-02 0.91651648E+02</pdfrwt>
<totfact> 0.10008092E+05</totfact>
</mgrwt>
</event>
<event>
 5    1  0.2718303E+000  0.9172086E+02  0.7818608E-02  0.1298737E+00
          1   -1    0    0  501    0  0.00000000000E+00  0.00000000000E+00  0.16984699665E+02  0.16984700307E+02  0.46700000000E-02 0. -1.
         -1   -1    0    0    0  501 -0.00000000000E+00 -0.00000000000E+00 -0.12382785829E+03  0.12382785838E+03  0.46700000000E-02 0.  1.
         23    2    1    2    0    0  0.00000000000E+00  0.00000000000E+00 -0.10684315863E+03  0.14081255869E+03  0.91720859888E+02 0.  0.
        -11    1    3    3    0    0 -0.17805666973E+02 -0.23308870201E+02  0.70116446400E+00  0.29340021102E+02  0.51100000000E-03 0. -1.
         11    1    3    3    0    0  0.17805666973E+02  0.23308870201E+02 -0.10754432309E+03  0.11147253758E+03  0.51100000000E-03 0.  1.
<mgrwt>
<rscale>  0 0.91720860E+02</rscale>
<asrwt>0</asrwt>
<pdfrwt beam="1">  1        1 0.26130309E-02 0.91720860E+02</pdfrwt>
<pdfrwt beam="2">  1       -1 0.19050439E-01 0.91720860E+02</pdfrwt>
<totfact> 0.76830382E+04</totfact>
</mgrwt>
</event>
<event>
 5    1  0.2718303E+000  0.9595496E+02  0.7818608E-02  0.1289040E+00
          1   -1    0    0  501    0  0.00000000000E+00  0.00000000000E+00  0.14756285079E+03  0.14756285086E+03  0.46700000000E-02 0. -1.
         -1   -1    0    0    0  501 -0.00000000000E+00 -0.00000000000E+00 -0.15599037787E+02  0.15599038486E+02  0.46700000000E-02 0.  1.
         23    2    1    2    0    0  0.00000000000E+00  0.00000000000E+00  0.13196381300E+03  0.16316188935E+03  0.95954959193E+02 0.  0.
        -11    1    3    3    0    0 -0.37379934506E+02 -0.13445449330E+01  0.14891405799E+02  0.40259424632E+02  0.51100000000E-03 0.  1.
         11    1    3    3    0    0  0.37379934506E+02  0.13445449330E+01  0.11707240720E+03  0.12290246472E+03  0.51100000000E-03 0. -1.
<mgrwt>
<rscale>  0 0.95954959E+02</rscale>
<asrwt>0</asrwt>
<pdfrwt beam="1">  1        1 0.22701977E-01 0.95954959E+02</pdfrwt>
<pdfrwt beam="2">  1       -1 0.23998520E-02 0.95954959E+02</pdfrwt>
<totfact> 0.97349881E+04</totfact>
</mgrwt>
</event>
<event>
 5    1  0.2718303E+000  0.9106968E+02  0.7818608E-02  0.1300282E+00
          1   -1    0    0  501    0  0.00000000000E+00  0.00000000000E+00  0.19904655203E+03  0.19904655208E+03  0.46700000000E-02 0. -1.
         -1   -1    0    0    0  501 -0.00000000000E+00 -0.00000000000E+00 -0.10416767528E+02  0.10416768575E+02  0.46700000000E-02 0.  1.
         23    2    1    2    0    0  0.00000000000E+00  0.00000000000E+00  0.18862978450E+03  0.20946332066E+03  0.91069682663E+02 0.  0.
        -11    1    3    3    0    0 -0.17848235291E+02  0.27626556844E+02  0.21886270330E+02  0.39506897818E+02  0.51100000000E-03 0.  1.
         11    1    3    3    0    0  0.17848235291E+02 -0.27626556844E+02  0.16674351417E+03  0.16995642284E+03  0.51100000000E-03 0. -1.
<mgrwt>
<rscale>  0 0.91069683E+02</rscale>
<asrwt>0</asrwt>
<pdfrwt beam="1">  1        1 0.30622546E-01 0.91069683E+02</pdfrwt>
<pdfrwt beam="2">  1       -1 0.16025797E-02 0.91069683E+02</pdfrwt>
<totfact> 0.11867034E+05</totfact>
</mgrwt>
</event>
<event>
 5    1  0.2718303E+000  0.9282246E+02  0.7818608E-02  0.1296157E+00
         -1   -1    0    0    0  501 -0.00000000000E+00  0.00000000000E+00  0.50357391238E+02  0.50357391455E+02  0.46700000000E-02 0.  1.
          1   -1    0    0  501    0  0.00000000000E+00 -0.00000000000E+00 -0.42774301844E+02  0.42774302099E+02  0.46700000000E-02 0. -1.
         23    2    1    2    0    0  0.00000000000E+00  0.00000000000E+00  0.75830893940E+01  0.93131693554E+02  0.92822460103E+02 0.  0.
        -11    1    3    3    0    0 -0.16260455886E+02  0.43460899010E+02  0.46605167660E+01  0.46636601347E+02  0.51100000000E-03 0. -1.
         11    1    3    3    0    0  0.16260455886E+02 -0.43460899010E+02  0.29225726280E+01  0.46495092208E+02  0.51100000000E-03 0.  1.
<mgrwt>
<rscale>  0 0.92822460E+02</rscale>
<asrwt>0</asrwt>
<pdfrwt beam="2">  1        1 0.65806618E-02 0.92822460E+02</pdfrwt>
<pdfrwt beam="1">  1       -1 0.77472910E-02 0.92822460E+02</pdfrwt>
<totfact> 0.87079908E+04</totfact>
</mgrwt>
</event>
<event>
 5    1  0.2718303E+000  0.9324972E+02  0.7818608E-02  0.1295168E+00
         -1   -1    0    0    0  501 -0.00000000000E+00  0.00000000000E+00  0.17223134223E+02  0.17223134856E+02  0.46700000000E-02 0.  1.
          1   -1    0    0  501    0  0.00000000000E+00 -0.00000000000E+00 -0.12621846678E+03  0.12621846686E+03  0.46700000000E-02 0. -1.
         23    2    1    2    0    0  0.00000000000E+00  0.00000000000E+00 -0.10899533255E+03  0.14344160172E+03  0.93249721637E+02 0.  0.
        -11    1    3    3    0    0  0.38333586638E+02 -0.16632829498E+02 -0.22682875547E+02  0.47546058984E+02  0.51100000000E-03 0.  1.
         11    1    3    3    0    0 -0.38333586638E+02  0.16632829498E+02 -0.86312457008E+02  0.95895542736E+02  0.51100000000E-03 0. -1.
<mgrwt>
<rscale>  0 0.93249722E+02</rscale>
<asrwt>0</asrwt>
<pdfrwt beam="2">  1        1 0.19418225E-01 0.93249722E+02</pdfrwt>
<pdfrwt beam="1">  1       -1 0.26497131E-02 0.93249722E+02</pdfrwt>
<totfact> 0.10226190E+05</totfact>
</mgrwt>
</event>
<event>
 5    1  0.2718303E+000  0.8996831E+02  0.7818608E-02  0.1302928E+00
         -1   -1    0    0    0  501 -0.00000000000E+00  0.00000000000E+00  0.25473445228E+02  0.25473445656E+02  0.46700000000E-02 0.  1.
          1   -1    0    0  501    0  0.00000000000E+00 -0.00000000000E+00 -0.79438572851E+02  0.79438572988E+02  0.46700000000E-02 0. -1.
         23    2    1    2    0    0  0.00000000000E+00  0.00000000000E+00 -0.53965127623E+02  0.10491201864E+03  0.89968309179E+02 0.  0.
        -11    1    3    3    0    0 -0.67758500505E+01  0.42127071699E+02 -0.10369352467E+02  0.43910429111E+02  0.51100000000E-03 0.  1.
         11    1    3    3    0    0  0.67758500505E+01 -0.42127071699E+02 -0.43595775156E+02  0.61001589533E+02  0.51100000000E-03 0. -1.
<mgrwt>
<rscale>  0 0.89968309E+02</rscale>
<asrwt>0</asrwt>
<pdfrwt beam="2">  1        1 0.12221319E-01 0.89968309E+02</pdfrwt>
<pdfrwt beam="1">  1       -1 0.39189917E-02 0.89968309E+02</pdfrwt>
<totfact> 0.10438079E+05</totfact>
</mgrwt>
</event>
<event>
 5    1  0.2718303E+000  0.9426405E+02  0.7818608E-02  0.1292842E+00
          1   -1    0    0  501    0  0.00000000000E+00  0.00000000000E+00  0.20702000754E+02  0.20702001281E+02  0.46700000000E-02 0. -1.
         -1   -1    0    0    0  501 -0.00000000000E+00 -0.00000000000E+00 -0.10730498674E+03  0.10730498684E+03  0.46700000000E-02 0.  1.
         23    2    1    2    0    0  0.00000000000E+00  0.00000000000E+00 -0.86602985985E+02  0.12800698812E+03  0.94264053735E+02 0.  0.
        -11    1    3    3    0    0 -0.19830416717E+02 -0.82001063369E+01 -0.10028641301E+03  0.10255657856E+03  0.51100000000E-03 0.  1.
         11    1    3    3    0    0  0.19830416717E+02  0.82001063369E+01  0.13683427030E+02  0.25450409558E+02  0.51100000000E-03 0. -1.
<mgrwt>
<rscale>  0 0.94264054E+02</rscale>
<asrwt>0</asrwt>
<pdfrwt beam="1">  1        1 0.31849233E-02 0.94264054E+02</pdfrwt>
<pdfrwt beam="2">  1       -1 0.16508459E-01 0.94264054E+02</pdfrwt>
<totfact> 0.73674529E+04</totfact>
</mgrwt>
</event>
<event>
 5    1  0.2718303E+000  0.9182442E+02  0.7818608E-02  0.1298493E+00
          1   -1    0    0  501    0  0.00000000000E+00  0.00000000000E+00  0.15001951242E+03  0.15001951249E+03  0.46700000000E-02 0. -1.
         -1   -1    0    0    0  501 -0.00000000000E+00 -0.00000000000E+00 -0.14051044462E+02  0.14051045238E+02  0.46700000000E-02 0.  1.
         23    2    1    2    0    0  0.00000000000E+00  0.00000000000E+00  0.13596846795E+03  0.16407055773E+03  0.91824417423E+02 0.  0.
        -11    1    3    3    0    0 -0.17634550200E+02 -0.17582726431E+02 -0.93571330956E+00  0.24919975705E+02  0.51100000000E-03 0.  1.
         11    1    3    3    0    0  0.17634550200E+02  0.17582726431E+02  0.13690418126E+03  0.13915058202E+03  0.51100000000E-03 0. -1.
<mgrwt>
<rscale>  0 0.91824417E+02</rscale>
<asrwt>0</asrwt>
<pdfrwt beam="1">  1        1 0.23079924E-01 0.91824417E+02</pdfrwt>
<pdfrwt beam="2">  1       -1 0.21616993E-02 0.91824417E+02</pdfrwt>
<totfact> 0.11001200E+05</totfact>
</mgrwt>
</event>
<event>
 5    1  0.2718303E+000  0.9120860E+02  0.7818608E-02  0.1299951E+00
          1   -1    0    0  501    0  0.00000000000E+00  0.00000000000E+00  0.29003784049E+02  0.29003784425E+02  0.46700000000E-02 0. -1.
         -1   -1    0    0    0  501 -0.00000000000E+00 -0.00000000000E+00 -0.71706235010E+02  0.71706235162E+02  0.46700000000E-02 0.  1.
         23    2    1    2    0    0  0.00000000000E+00  0.00000000000E+00 -0.42702450962E+02  0.10071001959E+03  0.91208600072E+02 0.  0.
        -11    1    3    3    0    0 -0.47490480112E+01  0.38787653089E+02  0.46077878124E+01  0.39348026608E+02  0.51100000000E-03 0.  1.
         11    1    3    3    0    0  0.47490480112E+01 -0.38787653089E+02 -0.47310238774E+02  0.61361992979E+02  0.51100000000E-03 0. -1.
<mgrwt>
<rscale>  0 0.91208600E+02</rscale>
<asrwt>0</asrwt>
<pdfrwt beam="1">  1        1 0.44621207E-02 0.91208600E+02</pdfrwt>
<pdfrwt beam="2">  1       -1 0.11031728E-01 0.91208600E+02</pdfrwt>
<totfact> 0.86124990E+04</totfact>
</mgrwt>
</event>
<event>
 5    1  0.2718303E+000  0.9132908E+02  0.7818608E-02  0.1299665E+00
         -1   -1    0    0    0  501 -0.00000000000E+00  0.00000000000E+00  0.14726305231E+02  0.14726305972E+02  0.46700000000E-02 0.  1.
          1   -1    0    0  501    0  0.00000000000E+00 -0.00000000000E+00 -0.14160034885E+03  0.14160034893E+03  0.46700000000E-02 0. -1.
         23    2    1    2    0    0  0.00000000000E+00  0.00000000000E+00 -0.12687404362E+03  0.15632665490E+03  0.91329075808E+02 0.  0.
        -11    1    3    3    0    0 -0.44224197118E+01 -0.23920837329E+02  0.27121659777E+01  0.24476929938E+02  0.51100000000E-03 0.  1.
         11    1    3    3    0    0  0.44224197118E+01  0.23920837329E+02 -0.12958620960E+03  0.13184972496E+03  0.51100000000E-03 0. -1.
<mgrwt>
<rscale>  0 0.91329076E+02</rscale>
<asrwt>0</asrwt>
<pdfrwt beam="2">  1        1 0.21784668E-01 0.91329076E+02</pdfrwt>
<pdfrwt beam="1">  1       -1 0.22655856E-02 0.91329076E+02</pdfrwt>
<totfact> 0.11045900E+05</totfact>
</mgrwt>
</event>
<event>
 5    1  0.2718303E+000  0.8783231E+02  0.7818608E-02  0.1308188E+00
          1   -1    0    0  501    0  0.00000000000E+00  0.00000000000E+00  0.56675739288E+01  0.56675758528E+01  0.46700000000E-02 0. -1.
         -1   -1    0    0    0  501 -0.00000000000E+00 -0.00000000000E+00 -0.34029171647E+03  0.34029171650E+03  0.46700000000E-02 0.  1.
         23    2    1    2    0    0  0.00000000000E+00  0.00000000000E+00 -0.33462414254E+03  0.34595929235E+03  0.87832312933E+02 0.  0.
        -11    1    3    3    0    0 -0.16262696435E+02 -0.38667256976E+02 -0.11610736895E+03  0.12345263538E+03  0.51100000000E-03 0. -1.
         11    1    3    3    0    0  0.16262696435E+02  0.38667256976E+02 -0.21851677359E+03  0.22250665698E+03  0.51100000000E-03 0.  1.
<mgrwt>
<rscale>  0 0.87832313E+02</rscale>
<asrwt>0</asrwt>
<pdfrwt beam="1">  1        1 0.87193487E-03 0.87832313E+02</pdfrwt>
<pdfrwt beam="2">  1       -1 0.52352556E-01 0.87832313E+02</pdfrwt>
<totfact> 0.63395767E+04</totfact>
</mgrwt>
</event>
<event>
 5    1  0.2718303E+000  0.9425158E+02  0.7818608E-02  0.1292871E+00
         -1   -1    0    0    0  501 -0.00000000000E+00  0.00000000000E+00  0.15457356740E+02  0.15457357445E+02  0.46700000000E-02 0.  1.
          1   -1    0    0  501    0  0.00000000000E+00 -0.00000000000E+00 -0.14367527125E+03  0.14367527132E+03  0.46700000000E-02 0. -1.
         23    2    1    2    0    0  0.00000000000E+00  0.00000000000E+00 -0.12821791451E+03  0.15913262877E+03  0.94251577909E+02 0.  0.
        -11    1    3    3    0    0 -0.33524402392E+02  0.20746674656E+02 -0.20519603343E+02  0.44445069317E+02  0.51100000000E-03 0. -1.
         11    1    3    3    0    0  0.33524402392E+02 -0.20746674656E+02 -0.10769831117E+03  0.11468755945E+03  0.51100000000E-03 0.  1.
<mgrwt>
<rscale>  0 0.94251578E+02</rscale>
<asrwt>0</asrwt>
<pdfrwt beam="2">  1        1 0.22103887E-01 0.94251578E+02</pdfrwt>
<pdfrwt beam="1">  1       -1 0.23780550E-02 0.94251578E+02</pdfrwt>
<totfact> 0.10169617E+05</totfact>
</mgrwt>
</event>
<event>
 5    1  0.2718303E+000  0.9209193E+02  0.7818608E-02  0.1297863E+00
          1   -1    0    0  501    0  0.00000000000E+00  0.00000000000E+00  0.10177711194E+02  0.10177712265E+02  0.46700000000E-02 0. -1.
         -1   -1    0    0    0  501 -0.00000000000E+00 -0.00000000000E+00 -0.20832096979E+03  0.20832096984E+03  0.46700000000E-02 0.  1.
         23    2    1    2    0    0  0.00000000000E+00  0.00000000000E+00 -0.19814325860E+03  0.21849868211E+03  0.92091927744E+02 0.  0.
        -11    1    3    3    0    0 -0.40094246315E+02 -0.14354185847E+02 -0.14061878926E+03  0.14692595119E+03  0.51100000000E-03 0.  1.
         11    1    3    3    0    0  0.40094246315E+02  0.14354185847E+02 -0.57524469336E+02  0.71572730921E+02  0.51100000000E-03 0. -1.
<mgrwt>
<rscale>  0 0.92091928E+02</rscale>
<asrwt>0</asrwt>
<pdfrwt beam="1">  1        1 0.15658020E-02 0.92091928E+02</pdfrwt>
<pdfrwt beam="2">  1       -1 0.32049377E-01 0.92091928E+02</pdfrwt>
<totfact> 0.66842860E+04</totfact>
</mgrwt>
</event>
<event>
 5    1  0.2718303E+000  0.9134193E+02  0.7818608E-02  0.1299634E+00
          1   -1    0    0  501    0  0.00000000000E+00  0.00000000000E+00  0.33816963803E+03  0.33816963806E+03  0.46700000000E-02 0. -1.
         -1   -1    0    0    0  501 -0.00000000000E+00 -0.00000000000E+00 -0.61680195796E+01  0.61680213475E+01  0.46700000000E-02 0.  1.
         23    2    1    2    0    0  0.00000000000E+00  0.00000000000E+00  0.33200161845E+03  0.34433765941E+03  0.91341934696E+02 0.  0.
        -11    1    3    3    0    0 -0.99042188477E+01  0.44216006231E+02  0.18755401198E+03  0.19294987994E+03  0.51100000000E-03 0. -1.
         11    1    3    3    0    0  0.99042188477E+01 -0.44216006231E+02  0.14444760646E+03  0.15138777947E+03  0.51100000000E-03 0.  1.
<mgrwt>
<rscale>  0 0.91341935E+02</rscale>
<asrwt>0</asrwt>
<pdfrwt beam="1">  1        1 0.52026110E-01 0.91341935E+02</pdfrwt>
<pdfrwt beam="2">  1       -1 0.94892601E-03 0.91341935E+02</pdfrwt>
<totfact> 0.13038854E+05</totfact>
</mgrwt>
</event>
<event>
 5    1  0.2718303E+000  0.9159732E+02  0.7818608E-02  0.1299029E+00
         -1   -1    0    0    0  501 -0.00000000000E+00  0.00000000000E+00  0.43712099221E+02  0.43712099471E+02  0.46700000000E-02 0.  1.
          1   -1    0    0  501    0  0.00000000000E+00 -0.00000000000E+00 -0.47984822278E+02  0.47984822505E+02  0.46700000000E-02 0. -1.
         23    2    1    2    0    0  0.00000000000E+00  0.00000000000E+00 -0.42727230564E+01  0.91696921976E+02  0.91597321672E+02 0.  0.
        -11    1    3    3    0    0 -0.40618786403E+02 -0.16132913828E+02  0.11566495816E+02  0.45209960663E+02  0.51100000000E-03 0.  1.
         11    1    3    3    0    0  0.40618786403E+02  0.16132913828E+02 -0.15839218872E+02  0.46486961313E+02  0.51100000000E-03 0. -1.
<mgrwt>
<rscale>  0 0.91597322E+02</rscale>
<asrwt>0</asrwt>
<pdfrwt beam="2">  1        1 0.73822804E-02 0.91597322E+02</pdfrwt>
<pdfrwt beam="1">  1       -1 0.67249384E-02 0.91597322E+02</pdfrwt>
<totfact> 0.91992104E+04</totfact>
</mgrwt>
</event>
<event>
 5    1  0.2718303E+000  0.9106572E+02  0.7818608E-02  0.1300291E+00
         -1   -1    0    0    0  501 -0.00000000000E+00  0.00000000000E+00  0.94688594500E+02  0.94688594615E+02  0.46700000000E-02 0.  1.
          1   -1    0    0  501    0  0.00000000000E+00 -0.00000000000E+00 -0.21895366184E+02  0.21895366682E+02  0.46700000000E-02 0. -1.
         23    2    1    2    0    0  0.00000000000E+00  0.00000000000E+00  0.72793228315E+02  0.11658396130E+03  0.91065723207E+02 0.  0.
        -11    1    3    3    0    0  0.16230495575E+02 -0.37403171554E+02  0.62344808902E+02  0.74493633461E+02  0.51100000000E-03 0.  1.
         11    1    3    3    0    0 -0.16230495575E+02  0.37403171554E+02  0.10448419413E+02  0.42090327836E+02  0.51100000000E-03 0. -1.
<mgrwt>
<rscale>  0 0.91065723E+02</rscale>
<asrwt>0</asrwt>
<pdfrwt beam="2">  1        1 0.33685179E-02 0.91065723E+02</pdfrwt>
<pdfrwt beam="1">  1       -1 0.14567476E-01 0.91065723E+02</pdfrwt>
<totfact> 0.82448585E+04</totfact>
</mgrwt>
</event>
<event>
 5    1  0.2718303E+000  0.8941798E+02  0.7818608E-02  0.1304267E+00
         -1   -1    0    0    0  501 -0.00000000000E+00  0.00000000000E+00  0.22346122453E+02  0.22346122941E+02  0.46700000000E-02 0.  1.
          1   -1    0    0  501    0  0.00000000000E+00 -0.00000000000E+00 -0.89451476031E+02  0.89451476153E+02  0.46700000000E-02 0. -1.
         23    2    1    2    0    0  0.00000000000E+00  0.00000000000E+00 -0.67105353578E+02  0.11179759909E+03  0.89417977411E+02 0.  0.
        -11    1    3    3    0    0  0.16881007004E+02 -0.38543955854E+02 -0.52443456376E+02  0.67237794783E+02  0.51100000000E-03 0. -1.
         11    1    3    3    0    0 -0.16881007004E+02  0.38543955854E+02 -0.14661897202E+02  0.44559804310E+02  0.51100000000E-03 0.  1.
<mgrwt>
<rscale>  0 0.89417977E+02</rscale>
<asrwt>0</asrwt>
<pdfrwt beam="2">  1        1 0.13761765E-01 0.89417977E+02</pdfrwt>
<pdfrwt beam="1">  1       -1 0.34378651E-02 0.89417977E+02</pdfrwt>
<totfact> 0.10815889E+05</totfact>
</mgrwt>
</event>
<event>
 5    1  0.2718303E+000  0.8969281E+02  0.7818608E-02  0.1303597E+00
          1   -1    0    0  501    0  0.00000000000E+00  0.00000000000E+00  0.82551810282E+02  0.82551810414E+02  0.46700000000E-02 0. -1.
         -1   -1    0    0    0  501 -0.00000000000E+00 -0.00000000000E+00 -0.24362879742E+02  0.24362880190E+02  0.46700000000E-02 0.  1.
         23    2    1    2    0    0  0.00000000000E+00  0.00000000000E+00  0.58188930540E+02  0.10691469060E+03  0.89692805896E+02 0.  0.
        -11    1    3    3    0    0  0.15564511294E+01  0.21492947186E+02  0.75975926744E+02  0.78972848269E+02  0.51100000000E-03 0. -1.
         11    1    3    3    0    0 -0.15564511294E+01 -0.21492947186E+02 -0.17786996204E+02  0.27941842335E+02  0.51100000000E-03 0.  1.
<mgrwt>
<rscale>  0 0.89692806E+02</rscale>
<asrwt>0</asrwt>
<pdfrwt beam="1">  1        1 0.12700279E-01 0.89692806E+02</pdfrwt>
<pdfrwt beam="2">  1       -1 0.37481354E-02 0.89692806E+02</pdfrwt>
<totfact> 0.10589708E+05</totfact>
</mgrwt>
</event>
<event>
 5    1  0.2718303E+000  0.9067432E+02  0.7818608E-02  0.1301227E+00
          1   -1    0    0  501    0  0.00000000000E+00  0.00000000000E+00  0.12705044538E+03  0.12705044547E+03  0.46700000000E-02 0. -1.
         -1   -1    0    0    0  501 -0.00000000000E+00 -0.00000000000E+00 -0.16178283680E+02  0.16178284354E+02  0.46700000000E-02 0.  1.
         23    2    1    2    0    0  0.00000000000E+00  0.00000000000E+00  0.11087216170E+03  0.14322872982E+03  0.90674322750E+02 0.  0.
        -11    1    3    3    0    0  0.30165907023E+02  0.27724721237E+02  0.86098791007E+02  0.95350112361E+02  0.51100000000E-03 0. -1.
         11    1    3    3    0    0 -0.30165907023E+02 -0.27724721237E+02  0.24773370697E+02  0.47878617463E+02  0.51100000000E-03 0.  1.
<mgrwt>
<rscale>  0 0.90674323E+02</rscale>
<asrwt>0</asrwt>
<pdfrwt beam="1">  1        1 0.19546222E-01 0.90674323E+02</pdfrwt>
<pdfrwt beam="2">  1       -1 0.24889668E-02 0.90674323E+02</pdfrwt>
<totfact> 0.11046317E+05</totfact>
</mgrwt>
</event>
<event>
 5    1  0.2718303E+000  0.9053374E+02  0.7818608E-02  0.1301564E+00
         -1   -1    0    0    0  501 -0.00000000000E+00  0.00000000000E+00  0.25527494427E+02  0.25527494854E+02  0.46700000000E-02 0.  1.
          1   -1    0    0  501    0  0.00000000000E+00 -0.00000000000E+00 -0.80269901043E+02  0.80269901179E+02  0.46700000000E-02 0. -1.
         23    2    1    2    0    0  0.00000000000E+00  0.00000000000E+00 -0.54742406616E+02  0.10579739603E+03  0.90533739154E+02 0.  0.
        -11    1    3    3    0    0  0.33360018728E+02  0.17557081886E+02 -0.56654919648E+02  0.68050877250E+02  0.51100000000E-03 0. -1.
         11    1    3    3    0    0 -0.33360018728E+02 -0.17557081886E+02  0.19125130324E+01  0.37746518783E+02  0.51100000000E-03 0.  1.
<mgrwt>
<rscale>  0 0.90533739E+02</rscale>
<asrwt>0</asrwt>
<pdfrwt beam="2">  1        1 0.12349215E-01 0.90533739E+02</pdfrwt>
<pdfrwt beam="1">  1       -1 0.39273069E-02 0.90533739E+02</pdfrwt>
<totfact> 0.10277295E+05</totfact>
</mgrwt>
</event>
<event>
 5    1  0.2718303E+000  0.9052522E+02  0.7818608E-02  0.1301585E+00
         -1   -1    0    0    0  501 -0.00000000000E+00  0.00000000000E+00  0.53627311767E+01  0.53627332101E+01  0.46700000000E-02 0.  1.
          1   -1    0    0  501    0  0.00000000000E+00 -0.00000000000E+00 -0.38202613320E+03  0.38202613323E+03  0.46700000000E-02 0. -1.
         23    2    1    2    0    0  0.00000000000E+00  0.00000000000E+00 -0.37666340203E+03  0.38738886644E+03  0.90525219784E+02 0.  0.
        -11    1    3    3    0    0  0.20314660048E+02  0.39277560545E+02 -0.14699850371E+03  0.15350560989E+03  0.51100000000E-03 0.  1.
         11    1    3    3    0    0 -0.20314660048E+02 -0.39277560545E+02 -0.22966489832E+03  0.23388325655E+03  0.51100000000E-03 0. -1.
<mgrwt>
<rscale>  0 0.90525220E+02</rscale>
<asrwt>0</asrwt>
<pdfrwt beam="2">  1        1 0.58773230E-01 0.90525220E+02</pdfrwt>
<pdfrwt beam="1">  1       -1 0.82503602E-03 0.90525220E+02</pdfrwt>
<totfact> 0.13643276E+05</totfact>
</mgrwt>
</event>
<event>
 5    1  0.2718303E+000  0.9042835E+02  0.7818608E-02  0.1301818E+00
          1   -1    0    0  501    0  0.00000000000E+00  0.00000000000E+00  0.87128848484E+01  0.87128860999E+01  0.46700000000E-02 0. -1.
         -1   -1    0    0    0  501 -0.00000000000E+00 -0.00000000000E+00 -0.23463196223E+03  0.23463196227E+03  0.46700000000E-02 0.  1.
         23    2    1    2    0    0  0.00000000000E+00  0.00000000000E+00 -0.22591907738E+03  0.24334484837E+03  0.90428345701E+02 0.  0.
        -11    1    3    3    0    0 -0.18376914124E+02 -0.36206006447E+02 -0.59426720870E+02  0.71973057662E+02  0.51100000000E-03 0. -1.
         11    1    3    3    0    0  0.18376914124E+02  0.36206006447E+02 -0.16649235651E+03  0.17137179071E+03  0.51100000000E-03 0.  1.
<mgrwt>
<rscale>  0 0.90428346E+02</rscale>
<asrwt>0</asrwt>
<pdfrwt beam="1">  1        1 0.13404441E-02 0.90428346E+02</pdfrwt>
<pdfrwt beam="2">  1       -1 0.36097220E-01 0.90428346E+02</pdfrwt>
<totfact> 0.67574720E+04</totfact>
</mgrwt>
</event>
<event>
 5    1  0.2718303E+000  0.9240887E+02  0.7818608E-02  0.1297121E+00
         -1   -1    0    0    0  501 -0.00000000000E+00  0.00000000000E+00  0.73302690424E+02  0.73302690573E+02  0.46700000000E-02 0.  1.
          1   -1    0    0  501    0  0.00000000000E+00 -0.00000000000E+00 -0.29123758394E+02  0.29123758769E+02  0.46700000000E-02 0. -1.
         23    2    1    2    0    0  0.00000000000E+00  0.00000000000E+00  0.44178932030E+02  0.10242644934E+03  0.92408871270E+02 0.  0.
        -11    1    3    3    0    0  0.41636270469E+02 -0.61669004343E+01  0.96453005929E+00  0.42101543892E+02  0.51100000000E-03 0.  1.
         11    1    3    3    0    0 -0.41636270469E+02  0.61669004343E+01  0.43214401970E+02  0.60324905449E+02  0.51100000000E-03 0. -1.
<mgrwt>
<rscale>  0 0.92408871E+02</rscale>
<asrwt>0</asrwt>
<pdfrwt beam="2">  1        1 0.44805783E-02 0.92408871E+02</pdfrwt>
<pdfrwt beam="1">  1       -1 0.11277337E-01 0.92408871E+02</pdfrwt>
<totfact> 0.82995073E+04</totfact>
</mgrwt>
</event>
<event>
 5    1  0.2718303E+000  0.9088350E+02  0.7818608E-02  0.1300726E+00
          1   -1    0    0  501    0  0.00000000000E+00  0.00000000000E+00  0.73715351459E+02  0.73715351607E+02  0.46700000000E-02 0. -1.
         -1   -1    0    0    0  501 -0.00000000000E+00 -0.00000000000E+00 -0.28012518708E+02  0.28012519097E+02  0.46700000000E-02 0.  1.
         23    2    1    2    0    0  0.00000000000E+00  0.00000000000E+00  0.45702832751E+02  0.10172787070E+03  0.90883501014E+02 0.  0.
        -11    1    3    3    0    0  0.31250569561E+02  0.55235964821E+01 -0.13553984390E+02  0.34508241176E+02  0.51100000000E-03 0. -1.
         11    1    3    3    0    0 -0.31250569561E+02 -0.55235964821E+01  0.59256817140E+02  0.67219629528E+02  0.51100000000E-03 0.  1.
<mgrwt>
<rscale>  0 0.90883501E+02</rscale>
<asrwt>0</asrwt>
<pdfrwt beam="1">  1        1 0.11340823E-01 0.90883501E+02</pdfrwt>
<pdfrwt beam="2">  1       -1 0.43096184E-02 0.90883501E+02</pdfrwt>
<totfact> 0.10034704E+05</totfact>
</mgrwt>
</event>
<event>
 5    1  0.2718303E+000  0.8381024E+02  0.7818608E-02  0.1318574E+00
          1   -1    0    0  501    0  0.00000000000E+00  0.00000000000E+00  0.33934560386E+02  0.33934560708E+02  0.46700000000E-02 0. -1.
         -1   -1    0    0    0  501 -0.00000000000E+00 -0.00000000000E+00 -0.51747802153E+02  0.51747802364E+02  0.46700000000E-02 0.  1.
         23    2    1    2    0    0  0.00000000000E+00  0.00000000000E+00 -0.17813241767E+02  0.85682363071E+02  0.83810236602E+02 0.  0.
        -11    1    3    3    0    0  0.17265124413E+02 -0.33644737226E+02  0.95517723441E+01  0.39003707762E+02  0.51100000000E-03 0. -1.
         11    1    3    3    0    0 -0.17265124413E+02  0.33644737226E+02 -0.27365014111E+02  0.46678655310E+02  0.51100000000E-03 0.  1.
<mgrwt>
<rscale>  0 0.83810237E+02</rscale>
<asrwt>0</asrwt>
<pdfrwt beam="1">  1        1 0.52207016E-02 0.83810237E+02</pdfrwt>
<pdfrwt beam="2">  1       -1 0.79612004E-02 0.83810237E+02</pdfrwt>
<totfact> 0.11216077E+05</totfact>
</mgrwt>
</event>
<event>
 5    1  0.2718303E+000  0.9273965E+02  0.7818608E-02  0.1296350E+00
          1   -1    0    0  501    0  0.00000000000E+00  0.00000000000E+00  0.21043424392E+02  0.21043424910E+02  0.46700000000E-02 0. -1.
         -1   -1    0    0    0  501 -0.00000000000E+00 -0.00000000000E+00 -0.10217730917E+03  0.10217730927E+03  0.46700000000E-02 0.  1.
         23    2    1    2    0    0  0.00000000000E+00  0.00000000000E+00 -0.81133884775E+02  0.12322073418E+03  0.92739646723E+02 0.  0.
        -11    1    3    3    0    0  0.34496460638E+01  0.34156079801E+02  0.84896446550E+00  0.34340334685E+02  0.51100000000E-03 0.  1.
         11    1    3    3    0    0 -0.34496460638E+01 -0.34156079801E+02 -0.81982849240E+02  0.88880399499E+02  0.51100000000E-03 0. -1.
<mgrwt>
<rscale>  0 0.92739647E+02</rscale>
<asrwt>0</asrwt>
<pdfrwt beam="1">  1        1 0.32374500E-02 0.92739647E+02</pdfrwt>
<pdfrwt beam="2">  1       -1 0.15719586E-01 0.92739647E+02</pdfrwt>
<totfact> 0.77567187E+04</totfact>
</mgrwt>
</event>
<event>
 5    1  0.2718303E+000  0.7707913E+02  0.7818608E-02  0.1337551E+00
         -1   -1    0    0    0  501 -0.00000000000E+00  0.00000000000E+00  0.43639433496E+01  0.43639458484E+01  0.46700000000E-02 0.  1.
          1   -1    0    0  501    0  0.00000000000E+00 -0.00000000000E+00 -0.34035675067E+03  0.34035675070E+03  0.46700000000E-02 0. -1.
         23    2    1    2    0    0  0.00000000000E+00  0.00000000000E+00 -0.33599280732E+03  0.34472069655E+03  0.77079128557E+02 0.  0.
        -11    1    3    3    0    0 -0.25448772381E+02 -0.28012130494E+02 -0.20054862065E+03  0.20408838457E+03  0.51100000000E-03 0. -1.
         11    1    3    3    0    0  0.25448772381E+02  0.28012130494E+02 -0.13544418667E+03  0.14063231198E+03  0.51100000000E-03 0.  1.
<mgrwt>
<rscale>  0 0.77079129E+02</rscale>
<asrwt>0</asrwt>
<pdfrwt beam="2">  1        1 0.52362557E-01 0.77079129E+02</pdfrwt>
<pdfrwt beam="1">  1       -1 0.67137636E-03 0.77079129E+02</pdfrwt>
<totfact> 0.20426272E+05</totfact>
</mgrwt>
</event>
<event>
 5    1  0.2718303E+000  0.7283714E+02  0.7818608E-02  0.1350703E+00
          1   -1    0    0  501    0  0.00000000000E+00  0.00000000000E+00  0.43016381362E+02  0.43016381615E+02  0.46700000000E-02 0. -1.
         -1   -1    0    0    0  501 -0.00000000000E+00 -0.00000000000E+00 -0.30832726960E+02  0.30832727314E+02  0.46700000000E-02 0.  1.
         23    2    1    2    0    0  0.00000000000E+00  0.00000000000E+00  0.12183654402E+02  0.73849108929E+02  0.72837143375E+02 0.  0.
        -11    1    3    3    0    0 -0.27509532671E+02 -0.14898037470E+02  0.24994524379E+02  0.40043128717E+02  0.51100000000E-03 0. -1.
         11    1    3    3    0    0  0.27509532671E+02  0.14898037470E+02 -0.12810869978E+02  0.33805980212E+02  0.51100000000E-03 0.  1.
<mgrwt>
<rscale>  0 0.72837143E+02</rscale>
<asrwt>0</asrwt>
<pdfrwt beam="1">  1        1 0.66179049E-02 0.72837143E+02</pdfrwt>
<pdfrwt beam="2">  1       -1 0.47434965E-02 0.72837143E+02</pdfrwt>
<totfact> 0.17045694E+05</totfact>
</mgrwt>
</event>
<event>
 5    1  0.2718303E+000  0.9165736E+02  0.7818608E-02  0.1298887E+00
          1   -1    0    0  501    0  0.00000000000E+00  0.00000000000E+00  0.14342480451E+02  0.14342481211E+02  0.46700000000E-02 0. -1.
         -1   -1    0    0    0  501 -0.00000000000E+00 -0.00000000000E+00 -0.14643686616E+03  0.14643686623E+03  0.46700000000E-02 0.  1.
         23    2    1    2    0    0  0.00000000000E+00  0.00000000000E+00 -0.13209438571E+03  0.16077934745E+03  0.91657361021E+02 0.  0.
        -11    1    3    3    0    0 -0.18797512660E+02 -0.35032520253E+02 -0.26060464617E+02  0.47537056848E+02  0.51100000000E-03 0. -1.
         11    1    3    3    0    0  0.18797512660E+02  0.35032520253E+02 -0.10603392109E+03  0.11324229060E+03  0.51100000000E-03 0.  1.
<mgrwt>
<rscale>  0 0.91657361E+02</rscale>
<asrwt>0</asrwt>
<pdfrwt beam="1">  1        1 0.22065356E-02 0.91657361E+02</pdfrwt>
<pdfrwt beam="2">  1       -1 0.22528748E-01 0.91657361E+02</pdfrwt>
<totfact> 0.74187655E+04</totfact>
</mgrwt>
</event>
<event>
 5    1  0.2718303E+000  0.8255326E+02  0.7818608E-02  0.1321958E+00
         -1   -1    0    0    0  501 -0.00000000000E+00  0.00000000000E+00  0.29732124765E+03  0.29732124768E+03  0.46700000000E-02 0.  1.
          1   -1    0    0  501    0  0.00000000000E+00 -0.00000000000E+00 -0.57303665219E+01  0.57303684248E+01  0.46700000000E-02 0. -1.
         23    2    1    2    0    0  0.00000000000E+00  0.00000000000E+00  0.29159088113E+03  0.30305161611E+03  0.82553255966E+02 0.  0.
        -11    1    3    3    0    0 -0.39373834356E+02 -0.12181746227E+02  0.15405820673E+03  0.15947609487E+03  0.51100000000E-03 0.  1.
         11    1    3    3    0    0  0.39373834356E+02  0.12181746227E+02  0.13753267439E+03  0.14357552124E+03  0.51100000000E-03 0. -1.
<mgrwt>
<rscale>  0 0.82553256E+02</rscale>
<asrwt>0</asrwt>
<pdfrwt beam="2">  1        1 0.88159498E-03 0.82553256E+02</pdfrwt>
<pdfrwt beam="1">  1       -1 0.45741731E-01 0.82553256E+02</pdfrwt>
<totfact> 0.78758789E+04</totfact>
</mgrwt>
</event>
<event>
 5    1  0.2718303E+000  0.9292436E+02  0.7818608E-02  0.1295921E+00
         -1   -1    0    0    0  501 -0.00000000000E+00  0.00000000000E+00  0.44918407866E+02  0.44918408108E+02  0.46700000000E-02 0.  1.
          1   -1    0    0  501    0  0.00000000000E+00 -0.00000000000E+00 -0.48059010179E+02  0.48059010406E+02  0.46700000000E-02 0. -1.
         23    2    1    2    0    0  0.00000000000E+00  0.00000000000E+00 -0.31406023139E+01  0.92977418515E+02  0.92924361557E+02 0.  0.
        -11    1    3    3    0    0  0.97563541640E+01  0.32171602561E+02  0.30518803607E+02  0.45404799656E+02  0.51100000000E-03 0.  1.
         11    1    3    3    0    0 -0.97563541640E+01 -0.32171602561E+02 -0.33659405921E+02  0.47572618859E+02  0.51100000000E-03 0. -1.
<mgrwt>
<rscale>  0 0.92924362E+02</rscale>
<asrwt>0</asrwt>
<pdfrwt beam="2">  1        1 0.73936940E-02 0.92924362E+02</pdfrwt>
<pdfrwt beam="1">  1       -1 0.69105243E-02 0.92924362E+02</pdfrwt>
<totfact> 0.88371010E+04</totfact>
</mgrwt>
</event>
