<event>
 5    1  0.1197825E+001  0.9176640E+02  0.7546771E-02  0.1298630E+00
         -1   -1    0    0    0  501 -0.00000000000E+00  0.00000000000E+00  0.14939322697E+03  0.14939322697E+03  0.00000000000E+00 0.  1.
          1   -1    0    0  501    0  0.00000000000E+00 -0.00000000000E+00 -0.14092125783E+02  0.14092125783E+02  0.00000000000E+00 0. -1.
         23    2    1    2    0    0  0.00000000000E+00  0.00000000000E+00  0.13530110119E+03  0.16348535276E+03  0.91766402254E+02 0.  0.
        -11    1    3    3    0    0  0.43451300658E+02 -0.94446303455E+01  0.47490686287E+02  0.65058295822E+02  0.00000000000E+00 0.  1.
         11    1    3    3    0    0 -0.43451300658E+02  0.94446303455E+01  0.87810414904E+02  0.98427056935E+02  0.00000000000E+00 0. -1.
<mgrwt>
<rscale>  0 0.91766402E+02</rscale>
<asrwt>0</asrwt>
<pdfrwt beam="2">  1        1 0.21680195E-02 0.91766402E+02</pdfrwt>
<pdfrwt beam="1">  1       -1 0.22983572E-01 0.91766402E+02</pdfrwt>
<totfact> 0.73616245E+04</totfact>
</mgrwt>
</event>
<event>
 5    1  0.1197825E+001  0.9181718E+02  0.7546771E-02  0.1298510E+00
         -1   -1    0    0    0  501 -0.00000000000E+00  0.00000000000E+00  0.72843026262E+02  0.72843026262E+02  0.00000000000E+00 0.  1.
          1   -1    0    0  501    0  0.00000000000E+00 -0.00000000000E+00 -0.28933427902E+02  0.28933427902E+02  0.00000000000E+00 0. -1.
         23    2    1    2    0    0  0.00000000000E+00  0.00000000000E+00  0.43909598360E+02  0.10177645416E+03  0.91817175920E+02 0.  0.
        -13    1    3    3    0    0 -0.22366973758E+02  0.17884404644E+02  0.61728051179E+02  0.68047672605E+02  0.00000000000E+00 0.  1.
         13    1    3    3    0    0  0.22366973758E+02 -0.17884404644E+02 -0.17818452819E+02  0.33728781558E+02  0.00000000000E+00 0. -1.
<mgrwt>
<rscale>  0 0.91817176E+02</rscale>
<asrwt>0</asrwt>
<pdfrwt beam="2">  1        1 0.44512966E-02 0.91817176E+02</pdfrwt>
<pdfrwt beam="1">  1       -1 0.11206619E-01 0.91817176E+02</pdfrwt>
<totfact> 0.84456412E+04</totfact>
</mgrwt>
</event>
<event>
 5    1  0.1197825E+001  0.8583760E+02  0.7546771E-02  0.1313257E+00
          3   -1    0    0  501    0  0.00000000000E+00  0.00000000000E+00  0.10458084670E+03  0.10458084670E+03  0.00000000000E+00 0. -1.
         -3   -1    0    0    0  501 -0.00000000000E+00 -0.00000000000E+00 -0.17613390986E+02  0.17613390986E+02  0.00000000000E+00 0.  1.
         23    2    1    2    0    0  0.00000000000E+00  0.00000000000E+00  0.86967455710E+02  0.12219423768E+03  0.85837598812E+02 0.  0.
        -13    1    3    3    0    0 -0.92594088132E+01  0.40444389728E+02  0.27854583179E+02  0.49973624205E+02  0.00000000000E+00 0. -1.
         13    1    3    3    0    0  0.92594088132E+01 -0.40444389728E+02  0.59112872531E+02  0.72220613476E+02  0.00000000000E+00 0.  1.
<mgrwt>
<rscale>  0 0.85837599E+02</rscale>
<asrwt>0</asrwt>
<pdfrwt beam="1">  1        3 0.16089361E-01 0.85837599E+02</pdfrwt>
<pdfrwt beam="2">  1       -3 0.27097525E-02 0.85837599E+02</pdfrwt>
<totfact> 0.38957080E+04</totfact>
</mgrwt>
</event>
<event>
 5    1  0.1197825E+001  0.8760602E+02  0.7546771E-02  0.1308755E+00
          1   -1    0    0  501    0  0.00000000000E+00  0.00000000000E+00  0.28696656023E+03  0.28696656023E+03  0.00000000000E+00 0. -1.
         -1   -1    0    0    0  501 -0.00000000000E+00 -0.00000000000E+00 -0.66861570779E+01  0.66861570779E+01  0.00000000000E+00 0.  1.
         23    2    1    2    0    0  0.00000000000E+00  0.00000000000E+00  0.28028040315E+03  0.29365271731E+03  0.87606015725E+02 0.  0.
        -13    1    3    3    0    0  0.11509774877E+02 -0.36232326447E+02  0.21307517434E+03  0.21644002938E+03  0.00000000000E+00 0. -1.
         13    1    3    3    0    0 -0.11509774877E+02  0.36232326447E+02  0.67205228811E+02  0.77212687928E+02  0.00000000000E+00 0.  1.
<mgrwt>
<rscale>  0 0.87606016E+02</rscale>
<asrwt>0</asrwt>
<pdfrwt beam="1">  1        1 0.44148692E-01 0.87606016E+02</pdfrwt>
<pdfrwt beam="2">  1       -1 0.10286398E-02 0.87606016E+02</pdfrwt>
<totfact> 0.14127412E+05</totfact>
</mgrwt>
</event>
<event>
 5    1  0.1197825E+001  0.8921543E+02  0.7546771E-02  0.1304763E+00
         -1   -1    0    0    0  501 -0.00000000000E+00  0.00000000000E+00  0.10477884666E+02  0.10477884666E+02  0.00000000000E+00 0.  1.
          1   -1    0    0  501    0  0.00000000000E+00 -0.00000000000E+00 -0.18990936214E+03  0.18990936214E+03  0.00000000000E+00 0. -1.
         23    2    1    2    0    0  0.00000000000E+00  0.00000000000E+00 -0.17943147747E+03  0.20038724681E+03  0.89215433495E+02 0.  0.
        -11    1    3    3    0    0 -0.26934207130E+02  0.14652700513E+02 -0.16944175586E+02  0.35032245608E+02  0.00000000000E+00 0.  1.
         11    1    3    3    0    0  0.26934207130E+02 -0.14652700513E+02 -0.16248730189E+03  0.16535500120E+03  0.00000000000E+00 0. -1.
<mgrwt>
<rscale>  0 0.89215433E+02</rscale>
<asrwt>0</asrwt>
<pdfrwt beam="2">  1        1 0.29216823E-01 0.89215433E+02</pdfrwt>
<pdfrwt beam="1">  1       -1 0.16119824E-02 0.89215433E+02</pdfrwt>
<totfact> 0.12426003E+05</totfact>
</mgrwt>
</event>
<event>
 5    1  0.1197825E+001  0.9060391E+02  0.7546771E-02  0.1301396E+00
         -1   -1    0    0    0  501 -0.00000000000E+00  0.00000000000E+00  0.77180769280E+01  0.77180769280E+01  0.00000000000E+00 0.  1.
          1   -1    0    0  501    0  0.00000000000E+00 -0.00000000000E+00 -0.26590397162E+03  0.26590397162E+03  0.00000000000E+00 0. -1.
         23    2    1    2    0    0  0.00000000000E+00  0.00000000000E+00 -0.25818589469E+03  0.27362204855E+03  0.90603914008E+02 0.  0.
        -13    1    3    3    0    0 -0.44987502940E+02  0.14128890008E+01 -0.11357729051E+03  0.12217066995E+03  0.00000000000E+00 0. -1.
         13    1    3    3    0    0  0.44987502940E+02 -0.14128890008E+01 -0.14460860418E+03  0.15145137860E+03  0.00000000000E+00 0.  1.
<mgrwt>
<rscale>  0 0.90603914E+02</rscale>
<asrwt>0</asrwt>
<pdfrwt beam="2">  1        1 0.40908310E-01 0.90603914E+02</pdfrwt>
<pdfrwt beam="1">  1       -1 0.11873963E-02 0.90603914E+02</pdfrwt>
<totfact> 0.12729053E+05</totfact>
</mgrwt>
</event>
<event>
 5    1  0.1197825E+001  0.8736917E+02  0.7546771E-02  0.1309351E+00
          4   -1    0    0  501    0  0.00000000000E+00  0.00000000000E+00  0.92063172630E+02  0.92063172630E+02  0.00000000000E+00 0. -1.
         -4   -1    0    0    0  501 -0.00000000000E+00 -0.00000000000E+00 -0.20728624851E+02  0.20728624851E+02  0.00000000000E+00 0.  1.
         23    2    1    2    0    0  0.00000000000E+00  0.00000000000E+00  0.71334547779E+02  0.11279179748E+03  0.87369170033E+02 0.  0.
        -13    1    3    3    0    0 -0.39204934720E+02 -0.18652088300E+02  0.29420258963E+02  0.52445008740E+02  0.00000000000E+00 0. -1.
         13    1    3    3    0    0  0.39204934720E+02  0.18652088300E+02  0.41914288816E+02  0.60346788741E+02  0.00000000000E+00 0.  1.
<mgrwt>
<rscale>  0 0.87369170E+02</rscale>
<asrwt>0</asrwt>
<pdfrwt beam="1">  1        4 0.14163565E-01 0.87369170E+02</pdfrwt>
<pdfrwt beam="2">  1       -4 0.31890193E-02 0.87369170E+02</pdfrwt>
<totfact> 0.28813790E+04</totfact>
</mgrwt>
</event>
<event>
 5    1  0.1197825E+001  0.8748033E+02  0.7546771E-02  0.1309071E+00
         -2   -1    0    0    0  501 -0.00000000000E+00  0.00000000000E+00  0.95563445367E+02  0.95563445367E+02  0.00000000000E+00 0.  1.
          2   -1    0    0  501    0  0.00000000000E+00 -0.00000000000E+00 -0.20020229488E+02  0.20020229488E+02  0.00000000000E+00 0. -1.
         23    2    1    2    0    0  0.00000000000E+00  0.00000000000E+00  0.75543215879E+02  0.11558367486E+03  0.87480331662E+02 0.  0.
        -11    1    3    3    0    0  0.35085607798E+02  0.20806861127E+02  0.58632216562E+02  0.71425920809E+02  0.00000000000E+00 0. -1.
         11    1    3    3    0    0 -0.35085607798E+02 -0.20806861127E+02  0.16910999317E+02  0.44157754046E+02  0.00000000000E+00 0.  1.
<mgrwt>
<rscale>  0 0.87480332E+02</rscale>
<asrwt>0</asrwt>
<pdfrwt beam="2">  1        2 0.30800354E-02 0.87480332E+02</pdfrwt>
<pdfrwt beam="1">  1       -2 0.14702068E-01 0.87480332E+02</pdfrwt>
<totfact> 0.89632617E+04</totfact>
</mgrwt>
</event>
<event>
 5    1  0.1197825E+001  0.9264208E+02  0.7546771E-02  0.1296577E+00
         -1   -1    0    0    0  501 -0.00000000000E+00  0.00000000000E+00  0.81298599339E+02  0.81298599339E+02  0.00000000000E+00 0.  1.
          1   -1    0    0  501    0  0.00000000000E+00 -0.00000000000E+00 -0.26392075664E+02  0.26392075664E+02  0.00000000000E+00 0. -1.
         23    2    1    2    0    0  0.00000000000E+00  0.00000000000E+00  0.54906523675E+02  0.10769067500E+03  0.92642080830E+02 0.  0.
        -13    1    3    3    0    0  0.81381628807E+01  0.39880694244E+02  0.17494650786E+01  0.40740153369E+02  0.00000000000E+00 0. -1.
         13    1    3    3    0    0 -0.81381628807E+01 -0.39880694244E+02  0.53157058596E+02  0.66950521634E+02  0.00000000000E+00 0.  1.
<mgrwt>
<rscale>  0 0.92642081E+02</rscale>
<asrwt>0</asrwt>
<pdfrwt beam="2">  1        1 0.40603194E-02 0.92642081E+02</pdfrwt>
<pdfrwt beam="1">  1       -1 0.12507477E-01 0.92642081E+02</pdfrwt>
<totfact> 0.81038448E+04</totfact>
</mgrwt>
</event>
<event>
 5    1  0.1197825E+001  0.9053835E+02  0.7546771E-02  0.1301553E+00
         -2   -1    0    0    0  501 -0.00000000000E+00  0.00000000000E+00  0.80079968549E+02  0.80079968549E+02  0.00000000000E+00 0. -1.
          2   -1    0    0  501    0  0.00000000000E+00 -0.00000000000E+00 -0.25590647971E+02  0.25590647971E+02  0.00000000000E+00 0.  1.
         23    2    1    2    0    0  0.00000000000E+00  0.00000000000E+00  0.54489320578E+02  0.10567061652E+03  0.90538351756E+02 0.  0.
        -11    1    3    3    0    0  0.25125129151E+02 -0.33178410326E+02  0.64572001319E+01  0.42116201873E+02  0.00000000000E+00 0.  1.
         11    1    3    3    0    0 -0.25125129151E+02  0.33178410326E+02  0.48032120446E+02  0.63554414648E+02  0.00000000000E+00 0. -1.
<mgrwt>
<rscale>  0 0.90538352E+02</rscale>
<asrwt>0</asrwt>
<pdfrwt beam="2">  1        2 0.39370228E-02 0.90538352E+02</pdfrwt>
<pdfrwt beam="1">  1       -2 0.12319995E-01 0.90538352E+02</pdfrwt>
<totfact> 0.86535852E+04</totfact>
</mgrwt>
</event>
<event>
 5    1  0.1197825E+001  0.9104019E+02  0.7546771E-02  0.1300352E+00
          3   -1    0    0  501    0  0.00000000000E+00  0.00000000000E+00  0.10073903614E+03  0.10073903614E+03  0.00000000000E+00 0. -1.
         -3   -1    0    0    0  501 -0.00000000000E+00 -0.00000000000E+00 -0.20568779355E+02  0.20568779355E+02  0.00000000000E+00 0.  1.
         23    2    1    2    0    0  0.00000000000E+00  0.00000000000E+00  0.80170256780E+02  0.12130781549E+03  0.91040189076E+02 0.  0.
        -13    1    3    3    0    0  0.19495377612E+01  0.42907492314E+02  0.60170694710E+02  0.73928114382E+02  0.00000000000E+00 0. -1.
         13    1    3    3    0    0 -0.19495377612E+01 -0.42907492314E+02  0.19999562070E+02  0.47379701109E+02  0.00000000000E+00 0.  1.
<mgrwt>
<rscale>  0 0.91040189E+02</rscale>
<asrwt>0</asrwt>
<pdfrwt beam="1">  1        3 0.15498313E-01 0.91040189E+02</pdfrwt>
<pdfrwt beam="2">  1       -3 0.31644277E-02 0.91040189E+02</pdfrwt>
<totfact> 0.33292603E+04</totfact>
</mgrwt>
</event>
<event>
 5    1  0.1197825E+001  0.9285882E+02  0.7546771E-02  0.1296073E+00
         -4   -1    0    0    0  501 -0.00000000000E+00  0.00000000000E+00  0.11624464807E+02  0.11624464807E+02  0.00000000000E+00 0.  1.
          4   -1    0    0  501    0  0.00000000000E+00 -0.00000000000E+00 -0.18544425624E+03  0.18544425624E+03  0.00000000000E+00 0. -1.
         23    2    1    2    0    0  0.00000000000E+00  0.00000000000E+00 -0.17381979143E+03  0.19706872104E+03  0.92858822526E+02 0.  0.
        -11    1    3    3    0    0  0.30467063832E+02 -0.31251790918E+01 -0.12853702988E+02  0.33214852151E+02  0.00000000000E+00 0.  1.
         11    1    3    3    0    0 -0.30467063832E+02  0.31251790918E+01 -0.16096608844E+03  0.16385386889E+03  0.00000000000E+00 0. -1.
<mgrwt>
<rscale>  0 0.92858823E+02</rscale>
<asrwt>0</asrwt>
<pdfrwt beam="2">  1        4 0.28529884E-01 0.92858823E+02</pdfrwt>
<pdfrwt beam="1">  1       -4 0.17883793E-02 0.92858823E+02</pdfrwt>
<totfact> 0.20478806E+04</totfact>
</mgrwt>
</event>
<event>
 5    1  0.1197825E+001  0.9089616E+02  0.7546771E-02  0.1300696E+00
          1   -1    0    0  501    0  0.00000000000E+00  0.00000000000E+00  0.21101372044E+02  0.21101372044E+02  0.00000000000E+00 0.  1.
         -1   -1    0    0    0  501 -0.00000000000E+00 -0.00000000000E+00 -0.97885945812E+02  0.97885945812E+02  0.00000000000E+00 0. -1.
         23    2    1    2    0    0  0.00000000000E+00  0.00000000000E+00 -0.76784573768E+02  0.11898731786E+03  0.90896155264E+02 0.  0.
        -11    1    3    3    0    0  0.19139358033E+01  0.43826561332E+02 -0.22842864735E+02  0.49459347931E+02  0.00000000000E+00 0. -1.
         11    1    3    3    0    0 -0.19139358033E+01 -0.43826561332E+02 -0.53941709033E+02  0.69527969925E+02  0.00000000000E+00 0.  1.
<mgrwt>
<rscale>  0 0.90896155E+02</rscale>
<asrwt>0</asrwt>
<pdfrwt beam="1">  1        1 0.32463649E-02 0.90896155E+02</pdfrwt>
<pdfrwt beam="2">  1       -1 0.15059376E-01 0.90896155E+02</pdfrwt>
<totfact> 0.82343801E+04</totfact>
</mgrwt>
</event>
<event>
 5    1  0.1197825E+001  0.8898343E+02  0.7546771E-02  0.1305332E+00
         -2   -1    0    0    0  501 -0.00000000000E+00  0.00000000000E+00  0.43880653147E+02  0.43880653147E+02  0.00000000000E+00 0. -1.
          2   -1    0    0  501    0  0.00000000000E+00 -0.00000000000E+00 -0.45111281966E+02  0.45111281966E+02  0.00000000000E+00 0.  1.
         23    2    1    2    0    0  0.00000000000E+00  0.00000000000E+00 -0.12306288187E+01  0.88991935112E+02  0.88983425804E+02 0.  0.
        -13    1    3    3    0    0 -0.24425285213E+02 -0.44724840831E+00 -0.37803785659E+02  0.45010229937E+02  0.00000000000E+00 0.  1.
         13    1    3    3    0    0  0.24425285213E+02  0.44724840831E+00  0.36573156840E+02  0.43981705175E+02  0.00000000000E+00 0. -1.
<mgrwt>
<rscale>  0 0.88983426E+02</rscale>
<asrwt>0</asrwt>
<pdfrwt beam="2">  1        2 0.69401972E-02 0.88983426E+02</pdfrwt>
<pdfrwt beam="1">  1       -2 0.67508697E-02 0.88983426E+02</pdfrwt>
<totfact> 0.10550917E+05</totfact>
</mgrwt>
</event>
<event>
 5    1  0.1197825E+001  0.9295326E+02  0.7546771E-02  0.1295854E+00
          3   -1    0    0  501    0  0.00000000000E+00  0.00000000000E+00  0.97559101318E+02  0.97559101318E+02  0.00000000000E+00 0. -1.
         -3   -1    0    0    0  501 -0.00000000000E+00 -0.00000000000E+00 -0.22141216657E+02  0.22141216657E+02  0.00000000000E+00 0.  1.
         23    2    1    2    0    0  0.00000000000E+00  0.00000000000E+00  0.75417884661E+02  0.11970031798E+03  0.92953261356E+02 0.  0.
        -13    1    3    3    0    0  0.30924144280E+02  0.31844541453E+02  0.19972603758E+02  0.48675275250E+02  0.00000000000E+00 0.  1.
         13    1    3    3    0    0 -0.30924144280E+02 -0.31844541453E+02  0.55445280903E+02  0.71025042726E+02  0.00000000000E+00 0. -1.
<mgrwt>
<rscale>  0 0.92953261E+02</rscale>
<asrwt>0</asrwt>
<pdfrwt beam="1">  1        3 0.15009092E-01 0.92953261E+02</pdfrwt>
<pdfrwt beam="2">  1       -3 0.34063411E-02 0.92953261E+02</pdfrwt>
<totfact> 0.31563828E+04</totfact>
</mgrwt>
</event>
<event>
 5    1  0.1197825E+001  0.8907273E+02  0.7546771E-02  0.1305113E+00
         -1   -1    0    0    0  501 -0.00000000000E+00  0.00000000000E+00  0.63329407770E+02  0.63329407770E+02  0.00000000000E+00 0.  1.
          1   -1    0    0  501    0  0.00000000000E+00 -0.00000000000E+00 -0.31320168261E+02  0.31320168261E+02  0.00000000000E+00 0. -1.
         23    2    1    2    0    0  0.00000000000E+00  0.00000000000E+00  0.32009239509E+02  0.94649576032E+02  0.89072727751E+02 0.  0.
        -11    1    3    3    0    0  0.15681035968E+01 -0.34811336257E+02  0.45475523430E+02  0.57291459330E+02  0.00000000000E+00 0.  1.
         11    1    3    3    0    0 -0.15681035968E+01  0.34811336257E+02 -0.13466283921E+02  0.37358116702E+02  0.00000000000E+00 0. -1.
<mgrwt>
<rscale>  0 0.89072728E+02</rscale>
<asrwt>0</asrwt>
<pdfrwt beam="2">  1        1 0.48184874E-02 0.89072728E+02</pdfrwt>
<pdfrwt beam="1">  1       -1 0.97429858E-02 0.89072728E+02</pdfrwt>
<totfact> 0.93301297E+04</totfact>
</mgrwt>
</event>
<event>
 5    1  0.1197825E+001  0.8792582E+02  0.7546771E-02  0.1307954E+00
          2   -1    0    0  501    0  0.00000000000E+00  0.00000000000E+00  0.11928205377E+03  0.11928205377E+03  0.00000000000E+00 0. -1.
         -2   -1    0    0    0  501 -0.00000000000E+00 -0.00000000000E+00 -0.16203088066E+02  0.16203088066E+02  0.00000000000E+00 0.  1.
         23    2    1    2    0    0  0.00000000000E+00  0.00000000000E+00  0.10307896571E+03  0.13548514184E+03  0.87925823782E+02 0.  0.
        -13    1    3    3    0    0 -0.20839520299E+02 -0.36528669994E+02  0.71279179607E+02  0.82760804632E+02  0.00000000000E+00 0.  1.
         13    1    3    3    0    0  0.20839520299E+02  0.36528669994E+02  0.31799786099E+02  0.52724337206E+02  0.00000000000E+00 0. -1.
<mgrwt>
<rscale>  0 0.87925824E+02</rscale>
<asrwt>0</asrwt>
<pdfrwt beam="1">  1        2 0.18351085E-01 0.87925824E+02</pdfrwt>
<pdfrwt beam="2">  1       -2 0.24927829E-02 0.87925824E+02</pdfrwt>
<totfact> 0.14309785E+05</totfact>
</mgrwt>
</event>
<event>
 5    1  0.1197825E+001  0.9525273E+02  0.7546771E-02  0.1290608E+00
         -2   -1    0    0    0  501 -0.00000000000E+00  0.00000000000E+00  0.55729476856E+02  0.55729476856E+02  0.00000000000E+00 0.  1.
          2   -1    0    0  501    0  0.00000000000E+00 -0.00000000000E+00 -0.40701456088E+02  0.40701456088E+02  0.00000000000E+00 0. -1.
         23    2    1    2    0    0  0.00000000000E+00  0.00000000000E+00  0.15028020768E+02  0.96430932944E+02  0.95252734450E+02 0.  0.
        -11    1    3    3    0    0 -0.19962070617E+02  0.18618221104E+02 -0.31996262641E+02  0.42058093672E+02  0.00000000000E+00 0. -1.
         11    1    3    3    0    0  0.19962070617E+02 -0.18618221104E+02  0.47024283409E+02  0.54372839272E+02  0.00000000000E+00 0.  1.
<mgrwt>
<rscale>  0 0.95252734E+02</rscale>
<asrwt>0</asrwt>
<pdfrwt beam="2">  1        2 0.62617625E-02 0.95252734E+02</pdfrwt>
<pdfrwt beam="1">  1       -2 0.85737656E-02 0.95252734E+02</pdfrwt>
<totfact> 0.84371517E+04</totfact>
</mgrwt>
</event>
<event>
 5    1  0.1197825E+001  0.8587060E+02  0.7546771E-02  0.1313171E+00
         -3   -1    0    0    0  501 -0.00000000000E+00  0.00000000000E+00  0.30775568079E+02  0.30775568079E+02  0.00000000000E+00 0.  1.
          3   -1    0    0  501    0  0.00000000000E+00 -0.00000000000E+00 -0.59899462708E+02  0.59899462708E+02  0.00000000000E+00 0. -1.
         23    2    1    2    0    0  0.00000000000E+00  0.00000000000E+00 -0.29123894629E+02  0.90675030787E+02  0.85870600148E+02 0.  0.
        -13    1    3    3    0    0 -0.80669912996E+01  0.32380532269E+02  0.13965598743E+02  0.36174758698E+02  0.00000000000E+00 0.  1.
         13    1    3    3    0    0  0.80669912996E+01 -0.32380532269E+02 -0.43089493372E+02  0.54500272088E+02  0.00000000000E+00 0. -1.
<mgrwt>
<rscale>  0 0.85870600E+02</rscale>
<asrwt>0</asrwt>
<pdfrwt beam="2">  1        3 0.92153018E-02 0.85870600E+02</pdfrwt>
<pdfrwt beam="1">  1       -3 0.47347029E-02 0.85870600E+02</pdfrwt>
<totfact> 0.41621824E+04</totfact>
</mgrwt>
</event>
<event>
 5    1  0.1197825E+001  0.9683032E+02  0.7546771E-02  0.1287106E+00
          2   -1    0    0  501    0  0.00000000000E+00  0.00000000000E+00  0.10741582276E+03  0.10741582276E+03  0.00000000000E+00 0. -1.
         -2   -1    0    0    0  501 -0.00000000000E+00 -0.00000000000E+00 -0.21821998597E+02  0.21821998597E+02  0.00000000000E+00 0.  1.
         23    2    1    2    0    0  0.00000000000E+00  0.00000000000E+00  0.85593824167E+02  0.12923782136E+03  0.96830324457E+02 0.  0.
        -13    1    3    3    0    0  0.46598824425E+01  0.31982248140E+02  0.90909409385E+02  0.96483674345E+02  0.00000000000E+00 0. -1.
         13    1    3    3    0    0 -0.46598824425E+01 -0.31982248140E+02 -0.53155852181E+01  0.32754147015E+02  0.00000000000E+00 0.  1.
<mgrwt>
<rscale>  0 0.96830324E+02</rscale>
<asrwt>0</asrwt>
<pdfrwt beam="1">  1        2 0.16525511E-01 0.96830324E+02</pdfrwt>
<pdfrwt beam="2">  1       -2 0.33572306E-02 0.96830324E+02</pdfrwt>
<totfact> 0.10622328E+05</totfact>
</mgrwt>
</event>
<event>
 5    1  0.1197825E+001  0.8859595E+02  0.7546771E-02  0.1306288E+00
          2   -1    0    0  501    0  0.00000000000E+00  0.00000000000E+00  0.14153649410E+03  0.14153649410E+03  0.00000000000E+00 0.  1.
         -2   -1    0    0    0  501 -0.00000000000E+00 -0.00000000000E+00 -0.13864344938E+02  0.13864344938E+02  0.00000000000E+00 0. -1.
         23    2    1    2    0    0  0.00000000000E+00  0.00000000000E+00  0.12767214916E+03  0.15540083904E+03  0.88595954209E+02 0.  0.
        -13    1    3    3    0    0  0.29832868142E+02  0.28462169797E+02  0.35432776676E+02  0.54365216767E+02  0.00000000000E+00 0. -1.
         13    1    3    3    0    0 -0.29832868142E+02 -0.28462169797E+02  0.92239372488E+02  0.10103562227E+03  0.00000000000E+00 0.  1.
<mgrwt>
<rscale>  0 0.88595954E+02</rscale>
<asrwt>0</asrwt>
<pdfrwt beam="1">  1        2 0.21774844E-01 0.88595954E+02</pdfrwt>
<pdfrwt beam="2">  1       -2 0.21329762E-02 0.88595954E+02</pdfrwt>
<totfact> 0.14819623E+05</totfact>
</mgrwt>
</event>
<event>
 5    1  0.1197825E+001  0.9783499E+02  0.7546771E-02  0.1284916E+00
         -1   -1    0    0    0  501 -0.00000000000E+00  0.00000000000E+00  0.26629303473E+02  0.26629303473E+02  0.00000000000E+00 0.  1.
          1   -1    0    0  501    0  0.00000000000E+00 -0.00000000000E+00 -0.89860458791E+02  0.89860458791E+02  0.00000000000E+00 0. -1.
         23    2    1    2    0    0  0.00000000000E+00  0.00000000000E+00 -0.63231155318E+02  0.11648976226E+03  0.97834992254E+02 0.  0.
        -11    1    3    3    0    0 -0.26049787382E+02 -0.39183678868E+02 -0.15686786000E+02  0.49598662959E+02  0.00000000000E+00 0.  1.
         11    1    3    3    0    0  0.26049787382E+02  0.39183678868E+02 -0.47544369318E+02  0.66891099304E+02  0.00000000000E+00 0. -1.
<mgrwt>
<rscale>  0 0.97834992E+02</rscale>
<asrwt>0</asrwt>
<pdfrwt beam="2">  1        1 0.13824686E-01 0.97834992E+02</pdfrwt>
<pdfrwt beam="1">  1       -1 0.40968160E-02 0.97834992E+02</pdfrwt>
<totfact> 0.84552378E+04</totfact>
</mgrwt>
</event>
<event>
 5    1  0.1197825E+001  0.9107213E+02  0.7546771E-02  0.1300276E+00
          1   -1    0    0  501    0  0.00000000000E+00  0.00000000000E+00  0.63468933007E+02  0.63468933007E+02  0.00000000000E+00 0. -1.
         -1   -1    0    0    0  501 -0.00000000000E+00 -0.00000000000E+00 -0.32670048050E+02  0.32670048050E+02  0.00000000000E+00 0.  1.
         23    2    1    2    0    0  0.00000000000E+00  0.00000000000E+00  0.30798884957E+02  0.96138981057E+02  0.91072127262E+02 0.  0.
        -13    1    3    3    0    0  0.14918636350E+02 -0.14546374989E+02  0.58141219337E+02  0.61762157684E+02  0.00000000000E+00 0. -1.
         13    1    3    3    0    0 -0.14918636350E+02  0.14546374989E+02 -0.27342334379E+02  0.34376823372E+02  0.00000000000E+00 0.  1.
<mgrwt>
<rscale>  0 0.91072127E+02</rscale>
<asrwt>0</asrwt>
<pdfrwt beam="1">  1        1 0.97644512E-02 0.91072127E+02</pdfrwt>
<pdfrwt beam="2">  1       -1 0.50261612E-02 0.91072127E+02</pdfrwt>
<totfact> 0.97506883E+04</totfact>
</mgrwt>
</event>
<event>
 5    1  0.1197825E+001  0.9288586E+02  0.7546771E-02  0.1296010E+00
          2   -1    0    0  501    0  0.00000000000E+00  0.00000000000E+00  0.19488251972E+03  0.19488251972E+03  0.00000000000E+00 0.  1.
         -2   -1    0    0    0  501 -0.00000000000E+00 -0.00000000000E+00 -0.11067927151E+02  0.11067927151E+02  0.00000000000E+00 0. -1.
         23    2    1    2    0    0  0.00000000000E+00  0.00000000000E+00  0.18381459256E+03  0.20595044687E+03  0.92885855355E+02 0.  0.
        -13    1    3    3    0    0  0.45792313542E+02 -0.49825492949E+01  0.78755525132E+02  0.91237023821E+02  0.00000000000E+00 0.  1.
         13    1    3    3    0    0 -0.45792313542E+02  0.49825492949E+01  0.10505906743E+03  0.11471342305E+03  0.00000000000E+00 0. -1.
<mgrwt>
<rscale>  0 0.92885855E+02</rscale>
<asrwt>0</asrwt>
<pdfrwt beam="1">  1        2 0.29981923E-01 0.92885855E+02</pdfrwt>
<pdfrwt beam="2">  1       -2 0.17027582E-02 0.92885855E+02</pdfrwt>
<totfact> 0.14574761E+05</totfact>
</mgrwt>
</event>
<event>
 5    1  0.1197825E+001  0.8980686E+02  0.7546771E-02  0.1303320E+00
          2   -1    0    0  501    0  0.00000000000E+00  0.00000000000E+00  0.75794630629E+02  0.75794630629E+02  0.00000000000E+00 0. -1.
         -2   -1    0    0    0  501 -0.00000000000E+00 -0.00000000000E+00 -0.26602386362E+02  0.26602386362E+02  0.00000000000E+00 0.  1.
         23    2    1    2    0    0  0.00000000000E+00  0.00000000000E+00  0.49192244267E+02  0.10239701699E+03  0.89806860498E+02 0.  0.
        -13    1    3    3    0    0  0.30729128121E+02  0.32203495393E+02  0.17853201175E+02  0.47959162032E+02  0.00000000000E+00 0.  1.
         13    1    3    3    0    0 -0.30729128121E+02 -0.32203495393E+02  0.31339043092E+02  0.54437854959E+02  0.00000000000E+00 0. -1.
<mgrwt>
<rscale>  0 0.89806860E+02</rscale>
<asrwt>0</asrwt>
<pdfrwt beam="1">  1        2 0.11660712E-01 0.89806860E+02</pdfrwt>
<pdfrwt beam="2">  1       -2 0.40926749E-02 0.89806860E+02</pdfrwt>
<totfact> 0.11797071E+05</totfact>
</mgrwt>
</event>
<event>
 5    1  0.1197825E+001  0.8864905E+02  0.7546771E-02  0.1306157E+00
          1   -1    0    0  501    0  0.00000000000E+00  0.00000000000E+00  0.10559553721E+03  0.10559553721E+03  0.00000000000E+00 0. -1.
         -1   -1    0    0    0  501 -0.00000000000E+00 -0.00000000000E+00 -0.18605552749E+02  0.18605552749E+02  0.00000000000E+00 0.  1.
         23    2    1    2    0    0  0.00000000000E+00  0.00000000000E+00  0.86989984459E+02  0.12420108996E+03  0.88649045965E+02 0.  0.
        -11    1    3    3    0    0 -0.15047558138E+02 -0.34964445036E+02  0.11677999090E+02  0.39816040554E+02  0.00000000000E+00 0.  1.
         11    1    3    3    0    0  0.15047558138E+02  0.34964445036E+02  0.75311985370E+02  0.84385049404E+02  0.00000000000E+00 0. -1.
<mgrwt>
<rscale>  0 0.88649046E+02</rscale>
<asrwt>0</asrwt>
<pdfrwt beam="1">  1        1 0.16245467E-01 0.88649046E+02</pdfrwt>
<pdfrwt beam="2">  1       -1 0.28623928E-02 0.88649046E+02</pdfrwt>
<totfact> 0.11376811E+05</totfact>
</mgrwt>
</event>
<event>
 5    1  0.1197825E+001  0.9070165E+02  0.7546771E-02  0.1301161E+00
          1   -1    0    0  501    0  0.00000000000E+00  0.00000000000E+00  0.78113876751E+01  0.78113876751E+01  0.00000000000E+00 0. -1.
         -1   -1    0    0    0  501 -0.00000000000E+00 -0.00000000000E+00 -0.26329475884E+03  0.26329475884E+03  0.00000000000E+00 0.  1.
         23    2    1    2    0    0  0.00000000000E+00  0.00000000000E+00 -0.25548337117E+03  0.27110614652E+03  0.90701652336E+02 0.  0.
        -13    1    3    3    0    0 -0.37939194888E+02 -0.23862053767E+02 -0.10705121328E+03  0.11605491107E+03  0.00000000000E+00 0. -1.
         13    1    3    3    0    0  0.37939194888E+02  0.23862053767E+02 -0.14843215788E+03  0.15505123544E+03  0.00000000000E+00 0.  1.
<mgrwt>
<rscale>  0 0.90701652E+02</rscale>
<asrwt>0</asrwt>
<pdfrwt beam="1">  1        1 0.12017522E-02 0.90701652E+02</pdfrwt>
<pdfrwt beam="2">  1       -1 0.40506878E-01 0.90701652E+02</pdfrwt>
<totfact> 0.64486694E+04</totfact>
</mgrwt>
</event>
<event>
 5    1  0.1197825E+001  0.8488486E+02  0.7546771E-02  0.1315734E+00
         -1   -1    0    0    0  501 -0.00000000000E+00  0.00000000000E+00  0.11686372714E+03  0.11686372714E+03  0.00000000000E+00 0.  1.
          1   -1    0    0  501    0  0.00000000000E+00 -0.00000000000E+00 -0.15414190295E+02  0.15414190295E+02  0.00000000000E+00 0. -1.
         23    2    1    2    0    0  0.00000000000E+00  0.00000000000E+00  0.10144953684E+03  0.13227791743E+03  0.84884856805E+02 0.  0.
        -13    1    3    3    0    0 -0.12262316967E+02  0.37753084989E+02  0.27313615733E+02  0.48183954259E+02  0.00000000000E+00 0.  1.
         13    1    3    3    0    0  0.12262316967E+02 -0.37753084989E+02  0.74135921110E+02  0.84093963175E+02  0.00000000000E+00 0. -1.
<mgrwt>
<rscale>  0 0.84884857E+02</rscale>
<asrwt>0</asrwt>
<pdfrwt beam="2">  1        1 0.23714140E-02 0.84884857E+02</pdfrwt>
<pdfrwt beam="1">  1       -1 0.17979034E-01 0.84884857E+02</pdfrwt>
<totfact> 0.94936264E+04</totfact>
</mgrwt>
</event>
<event>
 5    1  0.1197825E+001  0.9165159E+02  0.7546771E-02  0.1298901E+00
          2   -1    0    0  501    0  0.00000000000E+00  0.00000000000E+00  0.76364998535E+02  0.76364998535E+02  0.00000000000E+00 0. -1.
         -2   -1    0    0    0  501 -0.00000000000E+00 -0.00000000000E+00 -0.27499553803E+02  0.27499553803E+02  0.00000000000E+00 0.  1.
         23    2    1    2    0    0  0.00000000000E+00  0.00000000000E+00  0.48865444732E+02  0.10386455234E+03  0.91651587784E+02 0.  0.
        -11    1    3    3    0    0  0.15416239169E+02  0.14234135532E+02 -0.21735843983E+02  0.30211222387E+02  0.00000000000E+00 0.  1.
         11    1    3    3    0    0 -0.15416239169E+02 -0.14234135532E+02  0.70601288715E+02  0.73653329950E+02  0.00000000000E+00 0. -1.
<mgrwt>
<rscale>  0 0.91651588E+02</rscale>
<asrwt>0</asrwt>
<pdfrwt beam="1">  1        2 0.11748461E-01 0.91651588E+02</pdfrwt>
<pdfrwt beam="2">  1       -2 0.42307006E-02 0.91651588E+02</pdfrwt>
<totfact> 0.11171705E+05</totfact>
</mgrwt>
</event>
<event>
 5    1  0.1197825E+001  0.9072840E+02  0.7546771E-02  0.1301097E+00
         -1   -1    0    0    0  501 -0.00000000000E+00  0.00000000000E+00  0.10399755639E+03  0.10399755639E+03  0.00000000000E+00 0.  1.
          1   -1    0    0  501    0  0.00000000000E+00 -0.00000000000E+00 -0.19788068592E+02  0.19788068592E+02  0.00000000000E+00 0. -1.
         23    2    1    2    0    0  0.00000000000E+00  0.00000000000E+00  0.84209487799E+02  0.12378562498E+03  0.90728403034E+02 0.  0.
        -13    1    3    3    0    0  0.97820847872E+01 -0.29582338774E+02  0.87089260613E+02  0.92495098596E+02  0.00000000000E+00 0.  1.
         13    1    3    3    0    0 -0.97820847872E+01  0.29582338774E+02 -0.28797728137E+01  0.31290526387E+02  0.00000000000E+00 0. -1.
<mgrwt>
<rscale>  0 0.90728403E+02</rscale>
<asrwt>0</asrwt>
<pdfrwt beam="2">  1        1 0.30443183E-02 0.90728403E+02</pdfrwt>
<pdfrwt beam="1">  1       -1 0.15999624E-01 0.90728403E+02</pdfrwt>
<totfact> 0.81806582E+04</totfact>
</mgrwt>
</event>
<event>
 5    1  0.1197825E+001  0.1205020E+03  0.7546771E-02  0.1242271E+00
         -1   -1    0    0    0  501 -0.00000000000E+00  0.00000000000E+00  0.71281916904E+02  0.71281916904E+02  0.00000000000E+00 0.  1.
          1   -1    0    0  501    0  0.00000000000E+00 -0.00000000000E+00 -0.50927096599E+02  0.50927096599E+02  0.00000000000E+00 0. -1.
         23    2    1    2    0    0  0.00000000000E+00  0.00000000000E+00  0.20354820305E+02  0.12220901350E+03  0.12050196792E+03 0.  0.
        -11    1    3    3    0    0  0.79933484687E+01 -0.22813841331E+02 -0.45793315485E+02  0.51782166033E+02  0.00000000000E+00 0. -1.
         11    1    3    3    0    0 -0.79933484687E+01  0.22813841331E+02  0.66148135790E+02  0.70426847469E+02  0.00000000000E+00 0.  1.
<mgrwt>
<rscale>  0 0.12050197E+03</rscale>
<asrwt>0</asrwt>
<pdfrwt beam="2">  1        1 0.78349379E-02 0.12050197E+03</pdfrwt>
<pdfrwt beam="1">  1       -1 0.10966449E-01 0.12050197E+03</pdfrwt>
<totfact> 0.42339085E+04</totfact>
</mgrwt>
</event>
<event>
 5    1  0.1197825E+001  0.9681002E+02  0.7546771E-02  0.1287151E+00
          1   -1    0    0  501    0  0.00000000000E+00  0.00000000000E+00  0.94667326317E+02  0.94667326317E+02  0.00000000000E+00 0. -1.
         -1   -1    0    0    0  501 -0.00000000000E+00 -0.00000000000E+00 -0.24750303241E+02  0.24750303241E+02  0.00000000000E+00 0.  1.
         23    2    1    2    0    0  0.00000000000E+00  0.00000000000E+00  0.69917023076E+02  0.11941762956E+03  0.96810020832E+02 0.  0.
        -13    1    3    3    0    0  0.12988804228E+02 -0.35044492824E+02 -0.29855734452E+01  0.37493188199E+02  0.00000000000E+00 0.  1.
         13    1    3    3    0    0 -0.12988804228E+02  0.35044492824E+02  0.72902596521E+02  0.81924441359E+02  0.00000000000E+00 0. -1.
<mgrwt>
<rscale>  0 0.96810021E+02</rscale>
<asrwt>0</asrwt>
<pdfrwt beam="1">  1        1 0.14564204E-01 0.96810021E+02</pdfrwt>
<pdfrwt beam="2">  1       -1 0.38077390E-02 0.96810021E+02</pdfrwt>
<totfact> 0.87812961E+04</totfact>
</mgrwt>
</event>
<event>
 5    1  0.1197825E+001  0.8994352E+02  0.7546771E-02  0.1302989E+00
         -1   -1    0    0    0  501 -0.00000000000E+00  0.00000000000E+00  0.33284940656E+02  0.33284940656E+02  0.00000000000E+00 0.  1.
          1   -1    0    0  501    0  0.00000000000E+00 -0.00000000000E+00 -0.60761985844E+02  0.60761985844E+02  0.00000000000E+00 0. -1.
         23    2    1    2    0    0  0.00000000000E+00  0.00000000000E+00 -0.27477045188E+02  0.94046926501E+02  0.89943517676E+02 0.  0.
        -13    1    3    3    0    0 -0.11522389867E+02 -0.22433464472E+02 -0.52672092622E+02  0.58398417252E+02  0.00000000000E+00 0. -1.
         13    1    3    3    0    0  0.11522389867E+02  0.22433464472E+02  0.25195047434E+02  0.35648509248E+02  0.00000000000E+00 0.  1.
<mgrwt>
<rscale>  0 0.89943518E+02</rscale>
<asrwt>0</asrwt>
<pdfrwt beam="2">  1        1 0.93479977E-02 0.89943518E+02</pdfrwt>
<pdfrwt beam="1">  1       -1 0.51207602E-02 0.89943518E+02</pdfrwt>
<totfact> 0.10026429E+05</totfact>
</mgrwt>
</event>
<event>
 5    1  0.1197825E+001  0.9399555E+02  0.7546771E-02  0.1293455E+00
         -1   -1    0    0    0  501 -0.00000000000E+00  0.00000000000E+00  0.33311166912E+02  0.33311166912E+02  0.00000000000E+00 0.  1.
          1   -1    0    0  501    0  0.00000000000E+00 -0.00000000000E+00 -0.66307822607E+02  0.66307822607E+02  0.00000000000E+00 0. -1.
         23    2    1    2    0    0  0.00000000000E+00  0.00000000000E+00 -0.32996655695E+02  0.99618989519E+02  0.93995551947E+02 0.  0.
        -13    1    3    3    0    0  0.17191702829E+02 -0.93153889231E+00  0.29848565077E+02  0.34458079575E+02  0.00000000000E+00 0.  1.
         13    1    3    3    0    0 -0.17191702829E+02  0.93153889231E+00 -0.62845220772E+02  0.65160909944E+02  0.00000000000E+00 0. -1.
<mgrwt>
<rscale>  0 0.93995552E+02</rscale>
<asrwt>0</asrwt>
<pdfrwt beam="2">  1        1 0.10201204E-01 0.93995552E+02</pdfrwt>
<pdfrwt beam="1">  1       -1 0.51247949E-02 0.93995552E+02</pdfrwt>
<totfact> 0.89929317E+04</totfact>
</mgrwt>
</event>
<event>
 5    1  0.1197825E+001  0.8978793E+02  0.7546771E-02  0.1303366E+00
          1   -1    0    0  501    0  0.00000000000E+00  0.00000000000E+00  0.10152979709E+03  0.10152979709E+03  0.00000000000E+00 0. -1.
         -1   -1    0    0    0  501 -0.00000000000E+00 -0.00000000000E+00 -0.19851000025E+02  0.19851000025E+02  0.00000000000E+00 0.  1.
         23    2    1    2    0    0  0.00000000000E+00  0.00000000000E+00  0.81678797069E+02  0.12138079712E+03  0.89787928021E+02 0.  0.
        -13    1    3    3    0    0  0.19193048895E+02 -0.20376847527E+02 -0.66083986851E+01  0.28762127428E+02  0.00000000000E+00 0.  1.
         13    1    3    3    0    0 -0.19193048895E+02  0.20376847527E+02  0.88287195754E+02  0.92618669690E+02  0.00000000000E+00 0. -1.
<mgrwt>
<rscale>  0 0.89787928E+02</rscale>
<asrwt>0</asrwt>
<pdfrwt beam="1">  1        1 0.15619968E-01 0.89787928E+02</pdfrwt>
<pdfrwt beam="2">  1       -1 0.30540001E-02 0.89787928E+02</pdfrwt>
<totfact> 0.10918122E+05</totfact>
</mgrwt>
</event>
<event>
 5    1  0.1197825E+001  0.9111106E+02  0.7546771E-02  0.1300183E+00
          1   -1    0    0  501    0  0.00000000000E+00  0.00000000000E+00  0.39889626766E+02  0.39889626766E+02  0.00000000000E+00 0. -1.
         -1   -1    0    0    0  501 -0.00000000000E+00 -0.00000000000E+00 -0.52026212721E+02  0.52026212721E+02  0.00000000000E+00 0.  1.
         23    2    1    2    0    0  0.00000000000E+00  0.00000000000E+00 -0.12136585955E+02  0.91915839487E+02  0.91111057671E+02 0.  0.
        -11    1    3    3    0    0 -0.18041604433E+02 -0.12014760608E+02 -0.46490308608E+02  0.51295250827E+02  0.00000000000E+00 0.  1.
         11    1    3    3    0    0  0.18041604433E+02  0.12014760608E+02  0.34353722653E+02  0.40620588660E+02  0.00000000000E+00 0. -1.
<mgrwt>
<rscale>  0 0.91111058E+02</rscale>
<asrwt>0</asrwt>
<pdfrwt beam="1">  1        1 0.61368657E-02 0.91111058E+02</pdfrwt>
<pdfrwt beam="2">  1       -1 0.80040327E-02 0.91111058E+02</pdfrwt>
<totfact> 0.90810823E+04</totfact>
</mgrwt>
</event>
<event>
 5    1  0.1197825E+001  0.9171550E+02  0.7546771E-02  0.1298750E+00
         -1   -1    0    0    0  501 -0.00000000000E+00  0.00000000000E+00  0.21761831636E+02  0.21761831636E+02  0.00000000000E+00 0.  1.
          1   -1    0    0  501    0  0.00000000000E+00 -0.00000000000E+00 -0.96634011086E+02  0.96634011086E+02  0.00000000000E+00 0. -1.
         23    2    1    2    0    0  0.00000000000E+00  0.00000000000E+00 -0.74872179451E+02  0.11839584272E+03  0.91715496608E+02 0.  0.
        -13    1    3    3    0    0  0.32110501576E+02  0.44325623892E+01  0.44377820671E+01  0.32717362829E+02  0.00000000000E+00 0.  1.
         13    1    3    3    0    0 -0.32110501576E+02 -0.44325623892E+01 -0.79309961518E+02  0.85678479893E+02  0.00000000000E+00 0. -1.
<mgrwt>
<rscale>  0 0.91715497E+02</rscale>
<asrwt>0</asrwt>
<pdfrwt beam="2">  1        1 0.14866771E-01 0.91715497E+02</pdfrwt>
<pdfrwt beam="1">  1       -1 0.33479741E-02 0.91715497E+02</pdfrwt>
<totfact> 0.10220297E+05</totfact>
</mgrwt>
</event>
<event>
 5    1  0.1197825E+001  0.9523769E+02  0.7546771E-02  0.1290642E+00
         -1   -1    0    0    0  501 -0.00000000000E+00  0.00000000000E+00  0.83906413840E+02  0.83906413840E+02  0.00000000000E+00 0.  1.
          1   -1    0    0  501    0  0.00000000000E+00 -0.00000000000E+00 -0.27024806560E+02  0.27024806560E+02  0.00000000000E+00 0. -1.
         23    2    1    2    0    0  0.00000000000E+00  0.00000000000E+00  0.56881607280E+02  0.11093122040E+03  0.95237694285E+02 0.  0.
        -11    1    3    3    0    0  0.94465243325E+01  0.27023483895E+02  0.72764560335E+02  0.78193265340E+02  0.00000000000E+00 0.  1.
         11    1    3    3    0    0 -0.94465243325E+01 -0.27023483895E+02 -0.15882953055E+02  0.32737955060E+02  0.00000000000E+00 0. -1.
<mgrwt>
<rscale>  0 0.95237694E+02</rscale>
<asrwt>0</asrwt>
<pdfrwt beam="2">  1        1 0.41576626E-02 0.95237694E+02</pdfrwt>
<pdfrwt beam="1">  1       -1 0.12908679E-01 0.95237694E+02</pdfrwt>
<totfact> 0.75079536E+04</totfact>
</mgrwt>
</event>
<event>
 5    1  0.1197825E+001  0.9015735E+02  0.7546771E-02  0.1302471E+00
          1   -1    0    0  501    0  0.00000000000E+00  0.00000000000E+00  0.25737698014E+03  0.25737698014E+03  0.00000000000E+00 0. -1.
         -1   -1    0    0    0  501 -0.00000000000E+00 -0.00000000000E+00 -0.78953722806E+01  0.78953722806E+01  0.00000000000E+00 0.  1.
         23    2    1    2    0    0  0.00000000000E+00  0.00000000000E+00  0.24948160786E+03  0.26527235242E+03  0.90157352992E+02 0.  0.
        -13    1    3    3    0    0  0.18120353483E+00 -0.43911824007E+02  0.15471875627E+03  0.16082964485E+03  0.00000000000E+00 0. -1.
         13    1    3    3    0    0 -0.18120353483E+00  0.43911824007E+02  0.94762851589E+02  0.10444270757E+03  0.00000000000E+00 0.  1.
<mgrwt>
<rscale>  0 0.90157353E+02</rscale>
<asrwt>0</asrwt>
<pdfrwt beam="1">  1        1 0.39596452E-01 0.90157353E+02</pdfrwt>
<pdfrwt beam="2">  1       -1 0.12146729E-02 0.90157353E+02</pdfrwt>
<totfact> 0.12815922E+05</totfact>
</mgrwt>
</event>
<event>
 5    1  0.1197825E+001  0.9285534E+02  0.7546771E-02  0.1296081E+00
          2   -1    0    0  501    0  0.00000000000E+00  0.00000000000E+00  0.24730464406E+03  0.24730464406E+03  0.00000000000E+00 0. -1.
         -2   -1    0    0    0  501 -0.00000000000E+00 -0.00000000000E+00 -0.87160852640E+01  0.87160852640E+01  0.00000000000E+00 0.  1.
         23    2    1    2    0    0  0.00000000000E+00  0.00000000000E+00  0.23858855880E+03  0.25602072933E+03  0.92855336171E+02 0.  0.
        -11    1    3    3    0    0 -0.39539830475E+02  0.20587393075E+02  0.83526113950E+02  0.94677614351E+02  0.00000000000E+00 0. -1.
         11    1    3    3    0    0  0.39539830475E+02 -0.20587393075E+02  0.15506244485E+03  0.16134311498E+03  0.00000000000E+00 0.  1.
<mgrwt>
<rscale>  0 0.92855336E+02</rscale>
<asrwt>0</asrwt>
<pdfrwt beam="1">  1        2 0.38046863E-01 0.92855336E+02</pdfrwt>
<pdfrwt beam="2">  1       -2 0.13409364E-02 0.92855336E+02</pdfrwt>
<totfact> 0.15920195E+05</totfact>
</mgrwt>
</event>
<event>
 5    1  0.1197825E+001  0.9156503E+02  0.7546771E-02  0.1299105E+00
         -2   -1    0    0    0  501 -0.00000000000E+00  0.00000000000E+00  0.20704829889E+02  0.20704829889E+02  0.00000000000E+00 0.  1.
          2   -1    0    0  501    0  0.00000000000E+00 -0.00000000000E+00 -0.10123429364E+03  0.10123429364E+03  0.00000000000E+00 0. -1.
         23    2    1    2    0    0  0.00000000000E+00  0.00000000000E+00 -0.80529463747E+02  0.12193912352E+03  0.91565033252E+02 0.  0.
        -13    1    3    3    0    0 -0.22355516779E+02  0.85613805285E+01  0.11706072288E+02  0.26647673358E+02  0.00000000000E+00 0.  1.
         13    1    3    3    0    0  0.22355516779E+02 -0.85613805285E+01 -0.92235536036E+02  0.95291450166E+02  0.00000000000E+00 0. -1.
<mgrwt>
<rscale>  0 0.91565033E+02</rscale>
<asrwt>0</asrwt>
<pdfrwt beam="2">  1        2 0.15574507E-01 0.91565033E+02</pdfrwt>
<pdfrwt beam="1">  1       -2 0.31853585E-02 0.91565033E+02</pdfrwt>
<totfact> 0.12170316E+05</totfact>
</mgrwt>
</event>
<event>
 5    1  0.1197825E+001  0.8892084E+02  0.7546771E-02  0.1305486E+00
         -2   -1    0    0    0  501 -0.00000000000E+00  0.00000000000E+00  0.51258817877E+02  0.51258817877E+02  0.00000000000E+00 0.  1.
          2   -1    0    0  501    0  0.00000000000E+00 -0.00000000000E+00 -0.38563688455E+02  0.38563688455E+02  0.00000000000E+00 0. -1.
         23    2    1    2    0    0  0.00000000000E+00  0.00000000000E+00  0.12695129422E+02  0.89822506332E+02  0.88920843073E+02 0.  0.
        -11    1    3    3    0    0 -0.36683372797E+02  0.25006460072E+02  0.39282427445E+01  0.44569316532E+02  0.00000000000E+00 0. -1.
         11    1    3    3    0    0  0.36683372797E+02 -0.25006460072E+02  0.87668866778E+01  0.45253189800E+02  0.00000000000E+00 0.  1.
<mgrwt>
<rscale>  0 0.88920843E+02</rscale>
<asrwt>0</asrwt>
<pdfrwt beam="2">  1        2 0.59328752E-02 0.88920843E+02</pdfrwt>
<pdfrwt beam="1">  1       -2 0.78859720E-02 0.88920843E+02</pdfrwt>
<totfact> 0.10159600E+05</totfact>
</mgrwt>
</event>
<event>
 5    1  0.1197825E+001  0.9001585E+02  0.7546771E-02  0.1302813E+00
          1   -1    0    0  501    0  0.00000000000E+00  0.00000000000E+00  0.40006230376E+02  0.40006230376E+02  0.00000000000E+00 0. -1.
         -1   -1    0    0    0  501 -0.00000000000E+00 -0.00000000000E+00 -0.50634948878E+02  0.50634948878E+02  0.00000000000E+00 0.  1.
         23    2    1    2    0    0  0.00000000000E+00  0.00000000000E+00 -0.10628718502E+02  0.90641179254E+02  0.90015852602E+02 0.  0.
        -13    1    3    3    0    0 -0.39596792554E+02 -0.14362544385E+02 -0.21284065454E+02  0.47193220954E+02  0.00000000000E+00 0.  1.
         13    1    3    3    0    0  0.39596792554E+02  0.14362544385E+02  0.10655346952E+02  0.43447958300E+02  0.00000000000E+00 0. -1.
<mgrwt>
<rscale>  0 0.90015853E+02</rscale>
<asrwt>0</asrwt>
<pdfrwt beam="1">  1        1 0.61548047E-02 0.90015853E+02</pdfrwt>
<pdfrwt beam="2">  1       -1 0.77899921E-02 0.90015853E+02</pdfrwt>
<totfact> 0.94001738E+04</totfact>
</mgrwt>
</event>
<event>
 5    1  0.1197825E+001  0.9058796E+02  0.7546771E-02  0.1301434E+00
          3   -1    0    0  501    0  0.00000000000E+00  0.00000000000E+00  0.12611162643E+03  0.12611162643E+03  0.00000000000E+00 0. -1.
         -3   -1    0    0    0  501 -0.00000000000E+00 -0.00000000000E+00 -0.16267686551E+02  0.16267686551E+02  0.00000000000E+00 0.  1.
         23    2    1    2    0    0  0.00000000000E+00  0.00000000000E+00  0.10984393988E+03  0.14237931298E+03  0.90587955250E+02 0.  0.
        -13    1    3    3    0    0 -0.51787261476E+00 -0.43424509535E+02  0.34696849620E+02  0.55586217662E+02  0.00000000000E+00 0. -1.
         13    1    3    3    0    0  0.51787261476E+00  0.43424509535E+02  0.75147090258E+02  0.86793095317E+02  0.00000000000E+00 0.  1.
<mgrwt>
<rscale>  0 0.90587955E+02</rscale>
<asrwt>0</asrwt>
<pdfrwt beam="1">  1        3 0.19401788E-01 0.90587955E+02</pdfrwt>
<pdfrwt beam="2">  1       -3 0.25027211E-02 0.90587955E+02</pdfrwt>
<totfact> 0.32341982E+04</totfact>
</mgrwt>
</event>
<event>
 5    1  0.1197825E+001  0.9025339E+02  0.7546771E-02  0.1302239E+00
          2   -1    0    0  501    0  0.00000000000E+00  0.00000000000E+00  0.36011843474E+02  0.36011843474E+02  0.00000000000E+00 0. -1.
         -2   -1    0    0    0  501 -0.00000000000E+00 -0.00000000000E+00 -0.56548579407E+02  0.56548579407E+02  0.00000000000E+00 0.  1.
         23    2    1    2    0    0  0.00000000000E+00  0.00000000000E+00 -0.20536735933E+02  0.92560422882E+02  0.90253389749E+02 0.  0.
        -13    1    3    3    0    0 -0.32081823731E+02 -0.14069189882E+02 -0.39442545386E+02  0.52753198049E+02  0.00000000000E+00 0.  1.
         13    1    3    3    0    0  0.32081823731E+02  0.14069189882E+02  0.18905809453E+02  0.39807224833E+02  0.00000000000E+00 0. -1.
<mgrwt>
<rscale>  0 0.90253390E+02</rscale>
<asrwt>0</asrwt>
<pdfrwt beam="1">  1        2 0.55402837E-02 0.90253390E+02</pdfrwt>
<pdfrwt beam="2">  1       -2 0.86997814E-02 0.90253390E+02</pdfrwt>
<totfact> 0.95621062E+04</totfact>
</mgrwt>
</event>
<event>
 5    1  0.1197825E+001  0.8958380E+02  0.7546771E-02  0.1303863E+00
         -2   -1    0    0    0  501 -0.00000000000E+00  0.00000000000E+00  0.35697816019E+02  0.35697816019E+02  0.00000000000E+00 0.  1.
          2   -1    0    0  501    0  0.00000000000E+00 -0.00000000000E+00 -0.56202716265E+02  0.56202716265E+02  0.00000000000E+00 0. -1.
         23    2    1    2    0    0  0.00000000000E+00  0.00000000000E+00 -0.20504900246E+02  0.91900532285E+02  0.89583798201E+02 0.  0.
        -13    1    3    3    0    0  0.68575929838E+01  0.44113495785E+02 -0.65130305366E+01  0.45115924668E+02  0.00000000000E+00 0. -1.
         13    1    3    3    0    0 -0.68575929838E+01 -0.44113495785E+02 -0.13991869709E+02  0.46784607617E+02  0.00000000000E+00 0.  1.
<mgrwt>
<rscale>  0 0.89583798E+02</rscale>
<asrwt>0</asrwt>
<pdfrwt beam="2">  1        2 0.86465717E-02 0.89583798E+02</pdfrwt>
<pdfrwt beam="1">  1       -2 0.54919717E-02 0.89583798E+02</pdfrwt>
<totfact> 0.10955643E+05</totfact>
</mgrwt>
</event>
<event>
 5    1  0.1197825E+001  0.9361499E+02  0.7546771E-02  0.1294326E+00
         -2   -1    0    0    0  501 -0.00000000000E+00  0.00000000000E+00  0.17739727054E+03  0.17739727054E+03  0.00000000000E+00 0.  1.
          2   -1    0    0  501    0  0.00000000000E+00 -0.00000000000E+00 -0.12350481826E+02  0.12350481826E+02  0.00000000000E+00 0. -1.
         23    2    1    2    0    0  0.00000000000E+00  0.00000000000E+00  0.16504678872E+03  0.18974775237E+03  0.93614993794E+02 0.  0.
        -13    1    3    3    0    0 -0.37508521150E+02  0.20754501128E+02  0.12062164794E+03  0.12801257917E+03  0.00000000000E+00 0.  1.
         13    1    3    3    0    0  0.37508521150E+02 -0.20754501128E+02  0.44425140778E+02  0.61735173192E+02  0.00000000000E+00 0. -1.
<mgrwt>
<rscale>  0 0.93614994E+02</rscale>
<asrwt>0</asrwt>
<pdfrwt beam="2">  1        2 0.19000743E-02 0.93614994E+02</pdfrwt>
<pdfrwt beam="1">  1       -2 0.27291886E-01 0.93614994E+02</pdfrwt>
<totfact> 0.61257586E+04</totfact>
</mgrwt>
</event>
<event>
 5    1  0.1197825E+001  0.9367117E+02  0.7546771E-02  0.1294197E+00
          1   -1    0    0  501    0  0.00000000000E+00  0.00000000000E+00  0.26988076171E+03  0.26988076171E+03  0.00000000000E+00 0. -1.
         -1   -1    0    0    0  501 -0.00000000000E+00 -0.00000000000E+00 -0.81279301125E+01  0.81279301125E+01  0.00000000000E+00 0.  1.
         23    2    1    2    0    0  0.00000000000E+00  0.00000000000E+00  0.26175283159E+03  0.27800869182E+03  0.93671168881E+02 0.  0.
        -13    1    3    3    0    0 -0.40286175644E+02  0.10915136512E+02  0.67815530840E+02  0.79630787866E+02  0.00000000000E+00 0.  1.
         13    1    3    3    0    0  0.40286175644E+02 -0.10915136512E+02  0.19393730075E+03  0.19837790395E+03  0.00000000000E+00 0. -1.
<mgrwt>
<rscale>  0 0.93671169E+02</rscale>
<asrwt>0</asrwt>
<pdfrwt beam="1">  1        1 0.41520110E-01 0.93671169E+02</pdfrwt>
<pdfrwt beam="2">  1       -1 0.12504510E-02 0.93671169E+02</pdfrwt>
<totfact> 0.11679141E+05</totfact>
</mgrwt>
</event>
<event>
 4    1  0.1197825E+001  0.1587104E+03  0.7546771E-02  0.1190160E+00
         -1   -1    0    0    0  501 -0.00000000000E+00  0.00000000000E+00  0.66572515402E+02  0.66572515402E+02  0.00000000000E+00 0.  1.
          1   -1    0    0  501    0  0.00000000000E+00 -0.00000000000E+00 -0.94592350476E+02  0.94592350476E+02  0.00000000000E+00 0. -1.
        -11    1    1    2    0    0 -0.64796965957E+02 -0.23113571829E+02  0.26153824228E+02  0.73599636695E+02  0.00000000000E+00 0.  1.
         11    1    1    2    0    0  0.64796965957E+02  0.23113571829E+02 -0.54173659301E+02  0.87565229183E+02  0.00000000000E+00 0. -1.
<mgrwt>
<rscale>  0 0.15871044E+03</rscale>
<asrwt>0</asrwt>
<pdfrwt beam="2">  1        1 0.14552669E-01 0.15871044E+03</pdfrwt>
<pdfrwt beam="1">  1       -1 0.10241925E-01 0.15871044E+03</pdfrwt>
<totfact> 0.21392058E+04</totfact>
</mgrwt>
</event>
<event>
 5    1  0.1197825E+001  0.9088042E+02  0.7546771E-02  0.1300734E+00
          3   -1    0    0  501    0  0.00000000000E+00  0.00000000000E+00  0.23575305580E+03  0.23575305580E+03  0.00000000000E+00 0. -1.
         -3   -1    0    0    0  501 -0.00000000000E+00 -0.00000000000E+00 -0.87583710777E+01  0.87583710777E+01  0.00000000000E+00 0.  1.
         23    2    1    2    0    0  0.00000000000E+00  0.00000000000E+00  0.22699468472E+03  0.24451142688E+03  0.90880421333E+02 0.  0.
        -13    1    3    3    0    0 -0.24362750112E+02  0.34553530412E+02  0.68692853301E+02  0.80661007628E+02  0.00000000000E+00 0.  1.
         13    1    3    3    0    0  0.24362750112E+02 -0.34553530412E+02  0.15830183142E+03  0.16385041925E+03  0.00000000000E+00 0. -1.
<mgrwt>
<rscale>  0 0.90880421E+02</rscale>
<asrwt>0</asrwt>
<pdfrwt beam="1">  1        3 0.36269696E-01 0.90880421E+02</pdfrwt>
<pdfrwt beam="2">  1       -3 0.13474419E-02 0.90880421E+02</pdfrwt>
<totfact> 0.26581363E+04</totfact>
</mgrwt>
</event>
<event>
 5    1  0.1197825E+001  0.9386347E+02  0.7546771E-02  0.1293757E+00
         -1   -1    0    0    0  501 -0.00000000000E+00  0.00000000000E+00  0.96095840464E+01  0.96095840464E+01  0.00000000000E+00 0.  1.
          1   -1    0    0  501    0  0.00000000000E+00 -0.00000000000E+00 -0.22920739367E+03  0.22920739367E+03  0.00000000000E+00 0. -1.
         23    2    1    2    0    0  0.00000000000E+00  0.00000000000E+00 -0.21959780962E+03  0.23881697771E+03  0.93863469220E+02 0.  0.
        -13    1    3    3    0    0 -0.28346452750E+02 -0.37148354175E+02 -0.98689272968E+02  0.10919292193E+03  0.00000000000E+00 0. -1.
         13    1    3    3    0    0  0.28346452750E+02  0.37148354175E+02 -0.12090853665E+03  0.12962405578E+03  0.00000000000E+00 0.  1.
<mgrwt>
<rscale>  0 0.93863469E+02</rscale>
<asrwt>0</asrwt>
<pdfrwt beam="2">  1        1 0.35262672E-01 0.93863469E+02</pdfrwt>
<pdfrwt beam="1">  1       -1 0.14783977E-02 0.93863469E+02</pdfrwt>
<totfact> 0.11248347E+05</totfact>
</mgrwt>
</event>
<event>
 5    1  0.1197825E+001  0.9667496E+02  0.7546771E-02  0.1287448E+00
         -1   -1    0    0    0  501 -0.00000000000E+00  0.00000000000E+00  0.18787969790E+02  0.18787969790E+02  0.00000000000E+00 0.  1.
          1   -1    0    0  501    0  0.00000000000E+00 -0.00000000000E+00 -0.12436213527E+03  0.12436213527E+03  0.00000000000E+00 0. -1.
         23    2    1    2    0    0  0.00000000000E+00  0.00000000000E+00 -0.10557416548E+03  0.14315010506E+03  0.96674961402E+02 0.  0.
        -13    1    3    3    0    0  0.30212633363E+00 -0.39516969182E+02 -0.11569658215E+02  0.41176924665E+02  0.00000000000E+00 0.  1.
         13    1    3    3    0    0 -0.30212633363E+00  0.39516969182E+02 -0.94004507268E+02  0.10197318040E+03  0.00000000000E+00 0. -1.
<mgrwt>
<rscale>  0 0.96674961E+02</rscale>
<asrwt>0</asrwt>
<pdfrwt beam="2">  1        1 0.19132636E-01 0.96674961E+02</pdfrwt>
<pdfrwt beam="1">  1       -1 0.28904569E-02 0.96674961E+02</pdfrwt>
<totfact> 0.92443845E+04</totfact>
</mgrwt>
</event>
<event>
 5    1  0.1197825E+001  0.9226422E+02  0.7546771E-02  0.1297459E+00
         -2   -1    0    0    0  501 -0.00000000000E+00  0.00000000000E+00  0.83030905656E+01  0.83030905656E+01  0.00000000000E+00 0.  1.
          2   -1    0    0  501    0  0.00000000000E+00 -0.00000000000E+00 -0.25631074749E+03  0.25631074749E+03  0.00000000000E+00 0. -1.
         23    2    1    2    0    0  0.00000000000E+00  0.00000000000E+00 -0.24800765693E+03  0.26461383806E+03  0.92264215151E+02 0.  0.
        -11    1    3    3    0    0  0.24479618457E+02  0.25563236263E+02 -0.20886179051E+03  0.21183951073E+03  0.00000000000E+00 0. -1.
         11    1    3    3    0    0 -0.24479618457E+02 -0.25563236263E+02 -0.39145866411E+02  0.52774327330E+02  0.00000000000E+00 0.  1.
<mgrwt>
<rscale>  0 0.92264215E+02</rscale>
<asrwt>0</asrwt>
<pdfrwt beam="2">  1        2 0.39432415E-01 0.92264215E+02</pdfrwt>
<pdfrwt beam="1">  1       -2 0.12773988E-02 0.92264215E+02</pdfrwt>
<totfact> 0.16411852E+05</totfact>
</mgrwt>
</event>
<event>
 5    1  0.1197825E+001  0.9050706E+02  0.7546771E-02  0.1301628E+00
         -2   -1    0    0    0  501 -0.00000000000E+00  0.00000000000E+00  0.43899906012E+02  0.43899906012E+02  0.00000000000E+00 0.  1.
          2   -1    0    0  501    0  0.00000000000E+00 -0.00000000000E+00 -0.46648891708E+02  0.46648891708E+02  0.00000000000E+00 0. -1.
         23    2    1    2    0    0  0.00000000000E+00  0.00000000000E+00 -0.27489856968E+01  0.90548797720E+02  0.90507059648E+02 0.  0.
        -13    1    3    3    0    0  0.27349354186E+02 -0.62234410277E+01  0.34154749037E+02  0.44195760819E+02  0.00000000000E+00 0.  1.
         13    1    3    3    0    0 -0.27349354186E+02  0.62234410277E+01 -0.36903734734E+02  0.46353036901E+02  0.00000000000E+00 0. -1.
<mgrwt>
<rscale>  0 0.90507060E+02</rscale>
<asrwt>0</asrwt>
<pdfrwt beam="2">  1        2 0.71767526E-02 0.90507060E+02</pdfrwt>
<pdfrwt beam="1">  1       -2 0.67538317E-02 0.90507060E+02</pdfrwt>
<totfact> 0.10138235E+05</totfact>
</mgrwt>
</event>
<event>
 5    1  0.1197825E+001  0.9171585E+02  0.7546771E-02  0.1298749E+00
         -2   -1    0    0    0  501 -0.00000000000E+00  0.00000000000E+00  0.49819763655E+01  0.49819763655E+01  0.00000000000E+00 0.  1.
          2   -1    0    0  501    0  0.00000000000E+00 -0.00000000000E+00 -0.42211147708E+03  0.42211147708E+03  0.00000000000E+00 0. -1.
         23    2    1    2    0    0  0.00000000000E+00  0.00000000000E+00 -0.41712950071E+03  0.42709345344E+03  0.91715852554E+02 0.  0.
        -13    1    3    3    0    0 -0.17624464778E+02  0.42327510266E+02 -0.20464227405E+03  0.20971576052E+03  0.00000000000E+00 0.  1.
         13    1    3    3    0    0  0.17624464778E+02 -0.42327510266E+02 -0.21248722667E+03  0.21737769292E+03  0.00000000000E+00 0. -1.
<mgrwt>
<rscale>  0 0.91715853E+02</rscale>
<asrwt>0</asrwt>
<pdfrwt beam="2">  1        2 0.64940229E-01 0.91715853E+02</pdfrwt>
<pdfrwt beam="1">  1       -2 0.76645788E-03 0.91715853E+02</pdfrwt>
<totfact> 0.20031025E+05</totfact>
</mgrwt>
</event>
<event>
 5    1  0.1197825E+001  0.9047043E+02  0.7546771E-02  0.1301716E+00
         -1   -1    0    0    0  501 -0.00000000000E+00  0.00000000000E+00  0.11330325511E+02  0.11330325511E+02  0.00000000000E+00 0.  1.
          1   -1    0    0  501    0  0.00000000000E+00 -0.00000000000E+00 -0.18059717399E+03  0.18059717399E+03  0.00000000000E+00 0. -1.
         23    2    1    2    0    0  0.00000000000E+00  0.00000000000E+00 -0.16926684848E+03  0.19192749950E+03  0.90470432027E+02 0.  0.
        -11    1    3    3    0    0  0.60453239662E+01 -0.44672970757E+02 -0.76694448143E+02  0.88962119096E+02  0.00000000000E+00 0. -1.
         11    1    3    3    0    0 -0.60453239662E+01  0.44672970757E+02 -0.92572400338E+02  0.10296538041E+03  0.00000000000E+00 0.  1.
<mgrwt>
<rscale>  0 0.90470432E+02</rscale>
<asrwt>0</asrwt>
<pdfrwt beam="2">  1        1 0.27784179E-01 0.90470432E+02</pdfrwt>
<pdfrwt beam="1">  1       -1 0.17431271E-02 0.90470432E+02</pdfrwt>
<totfact> 0.11854930E+05</totfact>
</mgrwt>
</event>
<event>
 5    1  0.1197825E+001  0.9320052E+02  0.7546771E-02  0.1295281E+00
          1   -1    0    0  501    0  0.00000000000E+00  0.00000000000E+00  0.67602264552E+02  0.67602264552E+02  0.00000000000E+00 0. -1.
         -1   -1    0    0    0  501 -0.00000000000E+00 -0.00000000000E+00 -0.32122954040E+02  0.32122954040E+02  0.00000000000E+00 0.  1.
         23    2    1    2    0    0  0.00000000000E+00  0.00000000000E+00  0.35479310511E+02  0.99725218592E+02  0.93200524403E+02 0.  0.
        -13    1    3    3    0    0 -0.30987856743E+02 -0.18233611031E+02 -0.13981544411E+02  0.38577135986E+02  0.00000000000E+00 0.  1.
         13    1    3    3    0    0  0.30987856743E+02  0.18233611031E+02  0.49460854923E+02  0.61148082606E+02  0.00000000000E+00 0. -1.
<mgrwt>
<rscale>  0 0.93200524E+02</rscale>
<asrwt>0</asrwt>
<pdfrwt beam="1">  1        1 0.10400348E-01 0.93200524E+02</pdfrwt>
<pdfrwt beam="2">  1       -1 0.49419929E-02 0.93200524E+02</pdfrwt>
<totfact> 0.92352551E+04</totfact>
</mgrwt>
</event>
<event>
 5    1  0.1197825E+001  0.8414087E+02  0.7546771E-02  0.1317695E+00
         -1   -1    0    0    0  501 -0.00000000000E+00  0.00000000000E+00  0.24707574781E+02  0.24707574781E+02  0.00000000000E+00 0.  1.
          1   -1    0    0  501    0  0.00000000000E+00 -0.00000000000E+00 -0.71634774907E+02  0.71634774907E+02  0.00000000000E+00 0. -1.
         23    2    1    2    0    0  0.00000000000E+00  0.00000000000E+00 -0.46927200126E+02  0.96342349689E+02  0.84140871352E+02 0.  0.
        -13    1    3    3    0    0  0.21588267309E+02 -0.17748947014E+02  0.12542321754E+02  0.30633123257E+02  0.00000000000E+00 0.  1.
         13    1    3    3    0    0 -0.21588267309E+02  0.17748947014E+02 -0.59469521880E+02  0.65709226431E+02  0.00000000000E+00 0. -1.
<mgrwt>
<rscale>  0 0.84140871E+02</rscale>
<asrwt>0</asrwt>
<pdfrwt beam="2">  1        1 0.11020734E-01 0.84140871E+02</pdfrwt>
<pdfrwt beam="1">  1       -1 0.38011654E-02 0.84140871E+02</pdfrwt>
<totfact> 0.12336934E+05</totfact>
</mgrwt>
</event>
<event>
 5    1  0.1197825E+001  0.9151787E+02  0.7546771E-02  0.1299217E+00
          3   -1    0    0  501    0  0.00000000000E+00  0.00000000000E+00  0.20856424724E+02  0.20856424724E+02  0.00000000000E+00 0. -1.
         -3   -1    0    0    0  501 -0.00000000000E+00 -0.00000000000E+00 -0.10039498020E+03  0.10039498020E+03  0.00000000000E+00 0.  1.
         23    2    1    2    0    0  0.00000000000E+00  0.00000000000E+00 -0.79538555473E+02  0.12125140492E+03  0.91517874695E+02 0.  0.
        -11    1    3    3    0    0 -0.15881414317E+02  0.15320077681E+02  0.13341526698E+02  0.25786051181E+02  0.00000000000E+00 0. -1.
         11    1    3    3    0    0  0.15881414317E+02 -0.15320077681E+02 -0.92880082171E+02  0.95465353741E+02  0.00000000000E+00 0.  1.
<mgrwt>
<rscale>  0 0.91517875E+02</rscale>
<asrwt>0</asrwt>
<pdfrwt beam="1">  1        3 0.32086807E-02 0.91517875E+02</pdfrwt>
<pdfrwt beam="2">  1       -3 0.15445382E-01 0.91517875E+02</pdfrwt>
<totfact> 0.32827482E+04</totfact>
</mgrwt>
</event>
<event>
 5    1  0.1197825E+001  0.9137915E+02  0.7546771E-02  0.1299546E+00
         -1   -1    0    0    0  501 -0.00000000000E+00  0.00000000000E+00  0.14712116009E+02  0.14712116009E+02  0.00000000000E+00 0.  1.
          1   -1    0    0  501    0  0.00000000000E+00 -0.00000000000E+00 -0.14189239930E+03  0.14189239930E+03  0.00000000000E+00 0. -1.
         23    2    1    2    0    0  0.00000000000E+00  0.00000000000E+00 -0.12718028329E+03  0.15660451531E+03  0.91379153843E+02 0.  0.
        -11    1    3    3    0    0 -0.15382610568E+02 -0.31356718040E+02 -0.11407186580E+03  0.11929903202E+03  0.00000000000E+00 0. -1.
         11    1    3    3    0    0  0.15382610568E+02  0.31356718040E+02 -0.13108417490E+02  0.37305483286E+02  0.00000000000E+00 0.  1.
<mgrwt>
<rscale>  0 0.91379154E+02</rscale>
<asrwt>0</asrwt>
<pdfrwt beam="2">  1        1 0.21829601E-01 0.91379154E+02</pdfrwt>
<pdfrwt beam="1">  1       -1 0.22634024E-02 0.91379154E+02</pdfrwt>
<totfact> 0.11033667E+05</totfact>
</mgrwt>
</event>
<event>
 5    1  0.1197825E+001  0.8448365E+02  0.7546771E-02  0.1316788E+00
         -2   -1    0    0    0  501 -0.00000000000E+00  0.00000000000E+00  0.53200486493E+02  0.53200486493E+02  0.00000000000E+00 0. -1.
          2   -1    0    0  501    0  0.00000000000E+00 -0.00000000000E+00 -0.33540516898E+02  0.33540516898E+02  0.00000000000E+00 0.  1.
         23    2    1    2    0    0  0.00000000000E+00  0.00000000000E+00  0.19659969595E+02  0.86741003391E+02  0.84483650873E+02 0.  0.
        -13    1    3    3    0    0 -0.40708498040E+02 -0.73705023998E+01  0.18594206052E+02  0.45356924686E+02  0.00000000000E+00 0.  1.
         13    1    3    3    0    0  0.40708498040E+02  0.73705023998E+01  0.10657635432E+01  0.41384078705E+02  0.00000000000E+00 0. -1.
<mgrwt>
<rscale>  0 0.84483651E+02</rscale>
<asrwt>0</asrwt>
<pdfrwt beam="2">  1        2 0.51600795E-02 0.84483651E+02</pdfrwt>
<pdfrwt beam="1">  1       -2 0.81846902E-02 0.84483651E+02</pdfrwt>
<totfact> 0.11375066E+05</totfact>
</mgrwt>
</event>
<event>
 5    1  0.1197825E+001  0.8740814E+02  0.7546771E-02  0.1309252E+00
          2   -1    0    0  501    0  0.00000000000E+00  0.00000000000E+00  0.26594812497E+02  0.26594812497E+02  0.00000000000E+00 0. -1.
         -2   -1    0    0    0  501 -0.00000000000E+00 -0.00000000000E+00 -0.71820235215E+02  0.71820235215E+02  0.00000000000E+00 0.  1.
         23    2    1    2    0    0  0.00000000000E+00  0.00000000000E+00 -0.45225422718E+02  0.98415047711E+02  0.87408138958E+02 0.  0.
        -11    1    3    3    0    0  0.15630587215E+02 -0.22062731588E+02 -0.61272576143E+02  0.66973188434E+02  0.00000000000E+00 0.  1.
         11    1    3    3    0    0 -0.15630587215E+02  0.22062731588E+02  0.16047153425E+02  0.31441859278E+02  0.00000000000E+00 0. -1.
<mgrwt>
<rscale>  0 0.87408139E+02</rscale>
<asrwt>0</asrwt>
<pdfrwt beam="1">  1        2 0.40915096E-02 0.87408139E+02</pdfrwt>
<pdfrwt beam="2">  1       -2 0.11049267E-01 0.87408139E+02</pdfrwt>
<totfact> 0.97121113E+04</totfact>
</mgrwt>
</event>
<event>
 5    1  0.1197825E+001  0.7694899E+02  0.7546771E-02  0.1337940E+00
         -4   -1    0    0    0  501 -0.00000000000E+00  0.00000000000E+00  0.15913227081E+02  0.15913227081E+02  0.00000000000E+00 0. -1.
          4   -1    0    0  501    0  0.00000000000E+00 -0.00000000000E+00 -0.93022405346E+02  0.93022405346E+02  0.00000000000E+00 0.  1.
         23    2    1    2    0    0  0.00000000000E+00  0.00000000000E+00 -0.77109178265E+02  0.10893563243E+03  0.76948987255E+02 0.  0.
        -11    1    3    3    0    0  0.33793477488E+02  0.17633871592E+02 -0.45956085559E+02  0.59706903688E+02  0.00000000000E+00 0.  1.
         11    1    3    3    0    0 -0.33793477488E+02 -0.17633871592E+02 -0.31153092706E+02  0.49228728739E+02  0.00000000000E+00 0. -1.
<mgrwt>
<rscale>  0 0.76948987E+02</rscale>
<asrwt>0</asrwt>
<pdfrwt beam="2">  1        4 0.14311139E-01 0.76948987E+02</pdfrwt>
<pdfrwt beam="1">  1       -4 0.24481888E-02 0.76948987E+02</pdfrwt>
<totfact> 0.40775529E+04</totfact>
</mgrwt>
</event>
<event>
 5    1  0.1197825E+001  0.9035928E+02  0.7546771E-02  0.1301984E+00
         -1   -1    0    0    0  501 -0.00000000000E+00  0.00000000000E+00  0.12482607386E+03  0.12482607386E+03  0.00000000000E+00 0.  1.
          1   -1    0    0  501    0  0.00000000000E+00 -0.00000000000E+00 -0.16352350536E+02  0.16352350536E+02  0.00000000000E+00 0. -1.
         23    2    1    2    0    0  0.00000000000E+00  0.00000000000E+00  0.10847372333E+03  0.14117842440E+03  0.90359276578E+02 0.  0.
        -11    1    3    3    0    0 -0.36889714036E+02  0.66926840643E+01  0.14848063101E+02  0.40325029442E+02  0.00000000000E+00 0. -1.
         11    1    3    3    0    0  0.36889714036E+02 -0.66926840643E+01  0.93625660227E+02  0.10085339496E+03  0.00000000000E+00 0.  1.
<mgrwt>
<rscale>  0 0.90359277E+02</rscale>
<asrwt>0</asrwt>
<pdfrwt beam="2">  1        1 0.25157463E-02 0.90359277E+02</pdfrwt>
<pdfrwt beam="1">  1       -1 0.19204011E-01 0.90359277E+02</pdfrwt>
<totfact> 0.79727251E+04</totfact>
</mgrwt>
</event>
<event>
 5    1  0.1197825E+001  0.9310265E+02  0.7546771E-02  0.1295507E+00
         -4   -1    0    0    0  501 -0.00000000000E+00  0.00000000000E+00  0.65970870269E+01  0.65970870269E+01  0.00000000000E+00 0.  1.
          4   -1    0    0  501    0  0.00000000000E+00 -0.00000000000E+00 -0.32848222092E+03  0.32848222092E+03  0.00000000000E+00 0. -1.
         23    2    1    2    0    0  0.00000000000E+00  0.00000000000E+00 -0.32188513390E+03  0.33507930795E+03  0.93102648689E+02 0.  0.
        -11    1    3    3    0    0 -0.38122984508E+02 -0.22259103220E+02 -0.10777960871E+03  0.11647005485E+03  0.00000000000E+00 0.  1.
         11    1    3    3    0    0  0.38122984508E+02  0.22259103220E+02 -0.21410552519E+03  0.21860925310E+03  0.00000000000E+00 0. -1.
<mgrwt>
<rscale>  0 0.93102649E+02</rscale>
<asrwt>0</asrwt>
<pdfrwt beam="2">  1        4 0.50535744E-01 0.93102649E+02</pdfrwt>
<pdfrwt beam="1">  1       -4 0.10149361E-02 0.93102649E+02</pdfrwt>
<totfact> 0.15892115E+04</totfact>
</mgrwt>
</event>
<event>
 5    1  0.1197825E+001  0.9077973E+02  0.7546771E-02  0.1300974E+00
          1   -1    0    0  501    0  0.00000000000E+00  0.00000000000E+00  0.17929310720E+02  0.17929310720E+02  0.00000000000E+00 0. -1.
         -1   -1    0    0    0  501 -0.00000000000E+00 -0.00000000000E+00 -0.11490904970E+03  0.11490904970E+03  0.00000000000E+00 0.  1.
         23    2    1    2    0    0  0.00000000000E+00  0.00000000000E+00 -0.96979738984E+02  0.13283836042E+03  0.90779734669E+02 0.  0.
        -11    1    3    3    0    0 -0.19244617084E+02  0.27634570979E+01  0.11527867708E+02  0.22602736908E+02  0.00000000000E+00 0. -1.
         11    1    3    3    0    0  0.19244617084E+02 -0.27634570979E+01 -0.10850760669E+03  0.11023562352E+03  0.00000000000E+00 0.  1.
<mgrwt>
<rscale>  0 0.90779735E+02</rscale>
<asrwt>0</asrwt>
<pdfrwt beam="1">  1        1 0.27583554E-02 0.90779735E+02</pdfrwt>
<pdfrwt beam="2">  1       -1 0.17678316E-01 0.90779735E+02</pdfrwt>
<totfact> 0.80119502E+04</totfact>
</mgrwt>
</event>
<event>
 5    1  0.1197825E+001  0.9151204E+02  0.7546771E-02  0.1299231E+00
          2   -1    0    0  501    0  0.00000000000E+00  0.00000000000E+00  0.26787666679E+03  0.26787666679E+03  0.00000000000E+00 0.  1.
         -2   -1    0    0    0  501 -0.00000000000E+00 -0.00000000000E+00 -0.78155869301E+01  0.78155869301E+01  0.00000000000E+00 0. -1.
         23    2    1    2    0    0  0.00000000000E+00  0.00000000000E+00  0.26006107986E+03  0.27569225372E+03  0.91512040210E+02 0.  0.
        -13    1    3    3    0    0  0.14551464439E+02 -0.33908811154E+02  0.21154222989E+03  0.21473627457E+03  0.00000000000E+00 0.  1.
         13    1    3    3    0    0 -0.14551464439E+02  0.33908811154E+02  0.48518849968E+02  0.60955979144E+02  0.00000000000E+00 0. -1.
<mgrwt>
<rscale>  0 0.91512040E+02</rscale>
<asrwt>0</asrwt>
<pdfrwt beam="1">  1        2 0.41211788E-01 0.91512040E+02</pdfrwt>
<pdfrwt beam="2">  1       -2 0.12023982E-02 0.91512040E+02</pdfrwt>
<totfact> 0.17054501E+05</totfact>
</mgrwt>
</event>
<event>
 5    1  0.1197825E+001  0.9667241E+02  0.7546771E-02  0.1287453E+00
          1   -1    0    0  501    0  0.00000000000E+00  0.00000000000E+00  0.10981559979E+03  0.10981559979E+03  0.00000000000E+00 0. -1.
         -1   -1    0    0    0  501 -0.00000000000E+00 -0.00000000000E+00 -0.21275564706E+02  0.21275564706E+02  0.00000000000E+00 0.  1.
         23    2    1    2    0    0  0.00000000000E+00  0.00000000000E+00  0.88540035081E+02  0.13109116449E+03  0.96672413832E+02 0.  0.
        -13    1    3    3    0    0 -0.34959204021E+02 -0.32325836965E+02  0.55557182796E+02  0.73169025151E+02  0.00000000000E+00 0.  1.
         13    1    3    3    0    0  0.34959204021E+02  0.32325836965E+02  0.32982852285E+02  0.57922139343E+02  0.00000000000E+00 0. -1.
<mgrwt>
<rscale>  0 0.96672414E+02</rscale>
<asrwt>0</asrwt>
<pdfrwt beam="1">  1        1 0.16894707E-01 0.96672414E+02</pdfrwt>
<pdfrwt beam="2">  1       -1 0.32731639E-02 0.96672414E+02</pdfrwt>
<totfact> 0.90434417E+04</totfact>
</mgrwt>
</event>
<event>
 5    1  0.1197825E+001  0.9080780E+02  0.7546771E-02  0.1300907E+00
         -2   -1    0    0    0  501 -0.00000000000E+00  0.00000000000E+00  0.25338550558E+03  0.25338550558E+03  0.00000000000E+00 0.  1.
          2   -1    0    0  501    0  0.00000000000E+00 -0.00000000000E+00 -0.81358810814E+01  0.81358810814E+01  0.00000000000E+00 0. -1.
         23    2    1    2    0    0  0.00000000000E+00  0.00000000000E+00  0.24524962449E+03  0.26152138666E+03  0.90807804535E+02 0.  0.
        -11    1    3    3    0    0 -0.32703160791E+02 -0.27701408442E+02  0.16579031917E+03  0.17124045867E+03  0.00000000000E+00 0.  1.
         11    1    3    3    0    0  0.32703160791E+02  0.27701408442E+02  0.79459305326E+02  0.90280927988E+02  0.00000000000E+00 0. -1.
<mgrwt>
<rscale>  0 0.90807805E+02</rscale>
<asrwt>0</asrwt>
<pdfrwt beam="2">  1        2 0.12516742E-02 0.90807805E+02</pdfrwt>
<pdfrwt beam="1">  1       -2 0.38982379E-01 0.90807805E+02</pdfrwt>
<totfact> 0.56383409E+04</totfact>
</mgrwt>
</event>
<event>
 5    1  0.1197825E+001  0.9825291E+02  0.7546771E-02  0.1284013E+00
         -1   -1    0    0    0  501 -0.00000000000E+00  0.00000000000E+00  0.17938168968E+03  0.17938168968E+03  0.00000000000E+00 0.  1.
          1   -1    0    0  501    0  0.00000000000E+00 -0.00000000000E+00 -0.13454041932E+02  0.13454041932E+02  0.00000000000E+00 0. -1.
         23    2    1    2    0    0  0.00000000000E+00  0.00000000000E+00  0.16592764775E+03  0.19283573162E+03  0.98252913947E+02 0.  0.
        -13    1    3    3    0    0  0.65911920960E+01 -0.46056734223E+02  0.11391782550E+03  0.12305258042E+03  0.00000000000E+00 0. -1.
         13    1    3    3    0    0 -0.65911920960E+01  0.46056734223E+02  0.52009822253E+02  0.69783151199E+02  0.00000000000E+00 0.  1.
<mgrwt>
<rscale>  0 0.98252914E+02</rscale>
<asrwt>0</asrwt>
<pdfrwt beam="2">  1        1 0.20698527E-02 0.98252914E+02</pdfrwt>
<pdfrwt beam="1">  1       -1 0.27597181E-01 0.98252914E+02</pdfrwt>
<totfact> 0.58861566E+04</totfact>
</mgrwt>
</event>
<event>
 5    1  0.1197825E+001  0.9247793E+02  0.7546771E-02  0.1296960E+00
          1   -1    0    0  501    0  0.00000000000E+00  0.00000000000E+00  0.24895038467E+03  0.24895038467E+03  0.00000000000E+00 0. -1.
         -1   -1    0    0    0  501 -0.00000000000E+00 -0.00000000000E+00 -0.85882256706E+01  0.85882256706E+01  0.00000000000E+00 0.  1.
         23    2    1    2    0    0  0.00000000000E+00  0.00000000000E+00  0.24036215900E+03  0.25753861034E+03  0.92477934327E+02 0.  0.
        -13    1    3    3    0    0 -0.14044494871E+02 -0.42870681154E+02  0.14843050953E+03  0.15513464893E+03  0.00000000000E+00 0. -1.
         13    1    3    3    0    0  0.14044494871E+02  0.42870681154E+02  0.91931649474E+02  0.10240396142E+03  0.00000000000E+00 0.  1.
<mgrwt>
<rscale>  0 0.92477934E+02</rscale>
<asrwt>0</asrwt>
<pdfrwt beam="1">  1        1 0.38300054E-01 0.92477934E+02</pdfrwt>
<pdfrwt beam="2">  1       -1 0.13212657E-02 0.92477934E+02</pdfrwt>
<totfact> 0.11897191E+05</totfact>
</mgrwt>
</event>
<event>
 5    1  0.1197825E+001  0.9060117E+02  0.7546771E-02  0.1301402E+00
          1   -1    0    0  501    0  0.00000000000E+00  0.00000000000E+00  0.45668416099E+02  0.45668416099E+02  0.00000000000E+00 0. -1.
         -1   -1    0    0    0  501 -0.00000000000E+00 -0.00000000000E+00 -0.44935716906E+02  0.44935716906E+02  0.00000000000E+00 0.  1.
         23    2    1    2    0    0  0.00000000000E+00  0.00000000000E+00  0.73269919321E+00  0.90604133005E+02  0.90601170354E+02 0.  0.
        -11    1    3    3    0    0 -0.42820873093E+02 -0.14562726750E+02 -0.21720073391E+01  0.45281539270E+02  0.00000000000E+00 0. -1.
         11    1    3    3    0    0  0.42820873093E+02  0.14562726750E+02  0.29047065323E+01  0.45322593735E+02  0.00000000000E+00 0.  1.
<mgrwt>
<rscale>  0 0.90601170E+02</rscale>
<asrwt>0</asrwt>
<pdfrwt beam="1">  1        1 0.70259102E-02 0.90601170E+02</pdfrwt>
<pdfrwt beam="2">  1       -1 0.69131872E-02 0.90601170E+02</pdfrwt>
<totfact> 0.94153951E+04</totfact>
</mgrwt>
</event>
<event>
 5    1  0.1197825E+001  0.9167446E+02  0.7546771E-02  0.1298847E+00
          3   -1    0    0  501    0  0.00000000000E+00  0.00000000000E+00  0.12721667214E+03  0.12721667214E+03  0.00000000000E+00 0. -1.
         -3   -1    0    0    0  501 -0.00000000000E+00 -0.00000000000E+00 -0.16515538668E+02  0.16515538668E+02  0.00000000000E+00 0.  1.
         23    2    1    2    0    0  0.00000000000E+00  0.00000000000E+00  0.11070113348E+03  0.14373221081E+03  0.91674464666E+02 0.  0.
        -13    1    3    3    0    0 -0.31251988308E+01  0.43368451717E+02  0.32605198190E+02  0.54347846517E+02  0.00000000000E+00 0.  1.
         13    1    3    3    0    0  0.31251988308E+01 -0.43368451717E+02  0.78095935287E+02  0.89384364295E+02  0.00000000000E+00 0. -1.
<mgrwt>
<rscale>  0 0.91674465E+02</rscale>
<asrwt>0</asrwt>
<pdfrwt beam="1">  1        3 0.19571795E-01 0.91674465E+02</pdfrwt>
<pdfrwt beam="2">  1       -3 0.25408522E-02 0.91674465E+02</pdfrwt>
<totfact> 0.31230021E+04</totfact>
</mgrwt>
</event>
<event>
 5    1  0.1197825E+001  0.9318990E+02  0.7546771E-02  0.1295306E+00
         -2   -1    0    0    0  501 -0.00000000000E+00  0.00000000000E+00  0.15452390820E+02  0.15452390820E+02  0.00000000000E+00 0.  1.
          2   -1    0    0  501    0  0.00000000000E+00 -0.00000000000E+00 -0.14050185006E+03  0.14050185006E+03  0.00000000000E+00 0. -1.
         23    2    1    2    0    0  0.00000000000E+00  0.00000000000E+00 -0.12504945924E+03  0.15595424088E+03  0.93189902844E+02 0.  0.
        -11    1    3    3    0    0 -0.26919081036E+02  0.16580093103E+02 -0.52438977505E+01  0.32047384834E+02  0.00000000000E+00 0.  1.
         11    1    3    3    0    0  0.26919081036E+02 -0.16580093103E+02 -0.11980556149E+03  0.12390685605E+03  0.00000000000E+00 0. -1.
<mgrwt>
<rscale>  0 0.93189903E+02</rscale>
<asrwt>0</asrwt>
<pdfrwt beam="2">  1        2 0.21615669E-01 0.93189903E+02</pdfrwt>
<pdfrwt beam="1">  1       -2 0.23772909E-02 0.93189903E+02</pdfrwt>
<totfact> 0.12885370E+05</totfact>
</mgrwt>
</event>
<event>
 5    1  0.1197825E+001  0.8882693E+02  0.7546771E-02  0.1305718E+00
          1   -1    0    0  501    0  0.00000000000E+00  0.00000000000E+00  0.16418052112E+03  0.16418052112E+03  0.00000000000E+00 0. -1.
         -1   -1    0    0    0  501 -0.00000000000E+00 -0.00000000000E+00 -0.12014554333E+02  0.12014554333E+02  0.00000000000E+00 0.  1.
         23    2    1    2    0    0  0.00000000000E+00  0.00000000000E+00  0.15216596679E+03  0.17619507545E+03  0.88826928157E+02 0.  0.
        -13    1    3    3    0    0 -0.22893121397E+02  0.25723746084E+02  0.20445508968E+02  0.40047783420E+02  0.00000000000E+00 0.  1.
         13    1    3    3    0    0  0.22893121397E+02 -0.25723746084E+02  0.13172045782E+03  0.13614729203E+03  0.00000000000E+00 0. -1.
<mgrwt>
<rscale>  0 0.88826928E+02</rscale>
<asrwt>0</asrwt>
<pdfrwt beam="1">  1        1 0.25258540E-01 0.88826928E+02</pdfrwt>
<pdfrwt beam="2">  1       -1 0.18483931E-02 0.88826928E+02</pdfrwt>
<totfact> 0.12231272E+05</totfact>
</mgrwt>
</event>
<event>
 5    1  0.1197825E+001  0.8680200E+02  0.7546771E-02  0.1310786E+00
         -2   -1    0    0    0  501 -0.00000000000E+00  0.00000000000E+00  0.21346546111E+02  0.21346546111E+02  0.00000000000E+00 0.  1.
          2   -1    0    0  501    0  0.00000000000E+00 -0.00000000000E+00 -0.88241282240E+02  0.88241282240E+02  0.00000000000E+00 0. -1.
         23    2    1    2    0    0  0.00000000000E+00  0.00000000000E+00 -0.66894736129E+02  0.10958782835E+03  0.86801995374E+02 0.  0.
        -11    1    3    3    0    0 -0.13588899754E+02  0.20165942411E+02  0.11938242008E+02  0.27089574601E+02  0.00000000000E+00 0.  1.
         11    1    3    3    0    0  0.13588899754E+02 -0.20165942411E+02 -0.78832978137E+02  0.82498253750E+02  0.00000000000E+00 0. -1.
<mgrwt>
<rscale>  0 0.86801995E+02</rscale>
<asrwt>0</asrwt>
<pdfrwt beam="2">  1        2 0.13575582E-01 0.86801995E+02</pdfrwt>
<pdfrwt beam="1">  1       -2 0.32840841E-02 0.86801995E+02</pdfrwt>
<totfact> 0.13530931E+05</totfact>
</mgrwt>
</event>
<event>
 5    1  0.1197825E+001  0.9188108E+02  0.7546771E-02  0.1298359E+00
         -2   -1    0    0    0  501 -0.00000000000E+00  0.00000000000E+00  0.93233356055E+02  0.93233356055E+02  0.00000000000E+00 0. -1.
          2   -1    0    0  501    0  0.00000000000E+00 -0.00000000000E+00 -0.22637104911E+02  0.22637104911E+02  0.00000000000E+00 0.  1.
         23    2    1    2    0    0  0.00000000000E+00  0.00000000000E+00  0.70596251144E+02  0.11587046097E+03  0.91881081017E+02 0.  0.
        -11    1    3    3    0    0  0.40634576241E+02  0.26680583608E+01  0.84796568387E+01  0.41595575508E+02  0.00000000000E+00 0.  1.
         11    1    3    3    0    0 -0.40634576241E+02 -0.26680583608E+01  0.62116594305E+02  0.74274885458E+02  0.00000000000E+00 0. -1.
<mgrwt>
<rscale>  0 0.91881081E+02</rscale>
<asrwt>0</asrwt>
<pdfrwt beam="2">  1        2 0.34826316E-02 0.91881081E+02</pdfrwt>
<pdfrwt beam="1">  1       -2 0.14343593E-01 0.91881081E+02</pdfrwt>
<totfact> 0.79928929E+04</totfact>
</mgrwt>
</event>
<event>
 5    1  0.1197825E+001  0.9328512E+02  0.7546771E-02  0.1295086E+00
         -1   -1    0    0    0  501 -0.00000000000E+00  0.00000000000E+00  0.56964482905E+02  0.56964482905E+02  0.00000000000E+00 0.  1.
          1   -1    0    0  501    0  0.00000000000E+00 -0.00000000000E+00 -0.38190964726E+02  0.38190964726E+02  0.00000000000E+00 0. -1.
         23    2    1    2    0    0  0.00000000000E+00  0.00000000000E+00  0.18773518179E+02  0.95155447631E+02  0.93285123300E+02 0.  0.
        -13    1    3    3    0    0  0.26782132766E+02 -0.26478808657E+02 -0.18680708413E+02  0.42040204688E+02  0.00000000000E+00 0.  1.
         13    1    3    3    0    0 -0.26782132766E+02  0.26478808657E+02  0.37454226592E+02  0.53115242944E+02  0.00000000000E+00 0. -1.
<mgrwt>
<rscale>  0 0.93285123E+02</rscale>
<asrwt>0</asrwt>
<pdfrwt beam="2">  1        1 0.58755330E-02 0.93285123E+02</pdfrwt>
<pdfrwt beam="1">  1       -1 0.87637666E-02 0.93285123E+02</pdfrwt>
<totfact> 0.84367582E+04</totfact>
</mgrwt>
</event>
<event>
 5    1  0.1197825E+001  0.8960219E+02  0.7546771E-02  0.1303818E+00
         -2   -1    0    0    0  501 -0.00000000000E+00  0.00000000000E+00  0.73403644033E+01  0.73403644033E+01  0.00000000000E+00 0.  1.
          2   -1    0    0  501    0  0.00000000000E+00 -0.00000000000E+00 -0.27343845646E+03  0.27343845646E+03  0.00000000000E+00 0. -1.
         23    2    1    2    0    0  0.00000000000E+00  0.00000000000E+00 -0.26609809206E+03  0.28077882087E+03  0.89602185516E+02 0.  0.
        -11    1    3    3    0    0  0.21866477047E+02 -0.30483684837E+02 -0.56308078602E+02  0.67660901380E+02  0.00000000000E+00 0.  1.
         11    1    3    3    0    0 -0.21866477047E+02  0.30483684837E+02 -0.20979001346E+03  0.21311791948E+03  0.00000000000E+00 0. -1.
<mgrwt>
<rscale>  0 0.89602186E+02</rscale>
<asrwt>0</asrwt>
<pdfrwt beam="2">  1        2 0.42067458E-01 0.89602186E+02</pdfrwt>
<pdfrwt beam="1">  1       -2 0.11292868E-02 0.89602186E+02</pdfrwt>
<totfact> 0.18181437E+05</totfact>
</mgrwt>
</event>
<event>
 5    1  0.1197825E+001  0.9119513E+02  0.7546771E-02  0.1299983E+00
         -3   -1    0    0    0  501 -0.00000000000E+00  0.00000000000E+00  0.24440964444E+03  0.24440964444E+03  0.00000000000E+00 0.  1.
          3   -1    0    0  501    0  0.00000000000E+00 -0.00000000000E+00 -0.85067748304E+01  0.85067748304E+01  0.00000000000E+00 0. -1.
         23    2    1    2    0    0  0.00000000000E+00  0.00000000000E+00  0.23590286961E+03  0.25291641927E+03  0.91195127318E+02 0.  0.
        -13    1    3    3    0    0  0.15493272360E+02 -0.40281362313E+02  0.77143695261E+02  0.88395584487E+02  0.00000000000E+00 0. -1.
         13    1    3    3    0    0 -0.15493272360E+02  0.40281362313E+02  0.15875917435E+03  0.16452083478E+03  0.00000000000E+00 0.  1.
<mgrwt>
<rscale>  0 0.91195127E+02</rscale>
<asrwt>0</asrwt>
<pdfrwt beam="2">  1        3 0.13087348E-02 0.91195127E+02</pdfrwt>
<pdfrwt beam="1">  1       -3 0.37601478E-01 0.91195127E+02</pdfrwt>
<totfact> 0.25956283E+04</totfact>
</mgrwt>
</event>
<event>
 5    1  0.1197825E+001  0.9205417E+02  0.7546771E-02  0.1297952E+00
         -2   -1    0    0    0  501 -0.00000000000E+00  0.00000000000E+00  0.39123116405E+02  0.39123116405E+02  0.00000000000E+00 0.  1.
          2   -1    0    0  501    0  0.00000000000E+00 -0.00000000000E+00 -0.54149384920E+02  0.54149384920E+02  0.00000000000E+00 0. -1.
         23    2    1    2    0    0  0.00000000000E+00  0.00000000000E+00 -0.15026268514E+02  0.93272501325E+02  0.92054172952E+02 0.  0.
        -11    1    3    3    0    0  0.22866096093E+02 -0.16535128243E+02  0.29330515073E+02  0.40700711677E+02  0.00000000000E+00 0.  1.
         11    1    3    3    0    0 -0.22866096093E+02  0.16535128243E+02 -0.44356783588E+02  0.52571789648E+02  0.00000000000E+00 0. -1.
<mgrwt>
<rscale>  0 0.92054173E+02</rscale>
<asrwt>0</asrwt>
<pdfrwt beam="2">  1        2 0.83306746E-02 0.92054173E+02</pdfrwt>
<pdfrwt beam="1">  1       -2 0.60189410E-02 0.92054173E+02</pdfrwt>
<totfact> 0.10044298E+05</totfact>
</mgrwt>
</event>
<event>
 5    1  0.1197825E+001  0.9013136E+02  0.7546771E-02  0.1302534E+00
         -2   -1    0    0    0  501 -0.00000000000E+00  0.00000000000E+00  0.77607125906E+02  0.77607125906E+02  0.00000000000E+00 0.  1.
          2   -1    0    0  501    0  0.00000000000E+00 -0.00000000000E+00 -0.26169188499E+02  0.26169188499E+02  0.00000000000E+00 0. -1.
         23    2    1    2    0    0  0.00000000000E+00  0.00000000000E+00  0.51437937407E+02  0.10377631441E+03  0.90131359841E+02 0.  0.
        -11    1    3    3    0    0 -0.38424809382E+02  0.18914056580E+02  0.95704264393E+01  0.43883944382E+02  0.00000000000E+00 0.  1.
         11    1    3    3    0    0  0.38424809382E+02 -0.18914056580E+02  0.41867510968E+02  0.59892370023E+02  0.00000000000E+00 0. -1.
<mgrwt>
<rscale>  0 0.90131360E+02</rscale>
<asrwt>0</asrwt>
<pdfrwt beam="2">  1        2 0.40260290E-02 0.90131360E+02</pdfrwt>
<pdfrwt beam="1">  1       -2 0.11939558E-01 0.90131360E+02</pdfrwt>
<totfact> 0.88251777E+04</totfact>
</mgrwt>
</event>
<event>
 5    1  0.1197825E+001  0.9195643E+02  0.7546771E-02  0.1298182E+00
         -1   -1    0    0    0  501 -0.00000000000E+00  0.00000000000E+00  0.98918209693E+01  0.98918209693E+01  0.00000000000E+00 0.  1.
          1   -1    0    0  501    0  0.00000000000E+00 -0.00000000000E+00 -0.21371152160E+03  0.21371152160E+03  0.00000000000E+00 0. -1.
         23    2    1    2    0    0  0.00000000000E+00  0.00000000000E+00 -0.20381970063E+03  0.22360334257E+03  0.91956426872E+02 0.  0.
        -13    1    3    3    0    0  0.18402523461E+02  0.31445230367E+02 -0.17010552207E+03  0.17396362844E+03  0.00000000000E+00 0. -1.
         13    1    3    3    0    0 -0.18402523461E+02 -0.31445230367E+02 -0.33714178564E+02  0.49639714129E+02  0.00000000000E+00 0.  1.
<mgrwt>
<rscale>  0 0.91956427E+02</rscale>
<asrwt>0</asrwt>
<pdfrwt beam="2">  1        1 0.32878695E-01 0.91956427E+02</pdfrwt>
<pdfrwt beam="1">  1       -1 0.15218186E-02 0.91956427E+02</pdfrwt>
<totfact> 0.11723510E+05</totfact>
</mgrwt>
</event>
<event>
 5    1  0.1197825E+001  0.9167761E+02  0.7546771E-02  0.1298839E+00
         -2   -1    0    0    0  501 -0.00000000000E+00  0.00000000000E+00  0.53896701267E+02  0.53896701267E+02  0.00000000000E+00 0.  1.
          2   -1    0    0  501    0  0.00000000000E+00 -0.00000000000E+00 -0.38985614041E+02  0.38985614041E+02  0.00000000000E+00 0. -1.
         23    2    1    2    0    0  0.00000000000E+00  0.00000000000E+00  0.14911087226E+02  0.92882315308E+02  0.91677608906E+02 0.  0.
        -13    1    3    3    0    0 -0.63267687738E+01  0.34719311494E+02  0.37092937467E+02  0.51199068387E+02  0.00000000000E+00 0.  1.
         13    1    3    3    0    0  0.63267687738E+01 -0.34719311494E+02 -0.22181850241E+02  0.41683246921E+02  0.00000000000E+00 0. -1.
<mgrwt>
<rscale>  0 0.91677609E+02</rscale>
<asrwt>0</asrwt>
<pdfrwt beam="2">  1        2 0.59977868E-02 0.91677609E+02</pdfrwt>
<pdfrwt beam="1">  1       -2 0.82918002E-02 0.91677609E+02</pdfrwt>
<totfact> 0.93259415E+04</totfact>
</mgrwt>
</event>
<event>
 5    1  0.1197825E+001  0.8969524E+02  0.7546771E-02  0.1303591E+00
          1   -1    0    0  501    0  0.00000000000E+00  0.00000000000E+00  0.24907277205E+02  0.24907277205E+02  0.00000000000E+00 0. -1.
         -1   -1    0    0    0  501 -0.00000000000E+00 -0.00000000000E+00 -0.80751862529E+02  0.80751862529E+02  0.00000000000E+00 0.  1.
         23    2    1    2    0    0  0.00000000000E+00  0.00000000000E+00 -0.55844585324E+02  0.10565913973E+03  0.89695240116E+02 0.  0.
        -11    1    3    3    0    0  0.14809416855E+02  0.66955076189E+01  0.21316121760E+02  0.26805329633E+02  0.00000000000E+00 0. -1.
         11    1    3    3    0    0 -0.14809416855E+02 -0.66955076189E+01 -0.77160707084E+02  0.78853810102E+02  0.00000000000E+00 0.  1.
<mgrwt>
<rscale>  0 0.89695240E+02</rscale>
<asrwt>0</asrwt>
<pdfrwt beam="1">  1        1 0.38318889E-02 0.89695240E+02</pdfrwt>
<pdfrwt beam="2">  1       -1 0.12423363E-01 0.89695240E+02</pdfrwt>
<totfact> 0.88133615E+04</totfact>
</mgrwt>
</event>
<event>
 5    1  0.1197825E+001  0.8715339E+02  0.7546771E-02  0.1309895E+00
          2   -1    0    0  501    0  0.00000000000E+00  0.00000000000E+00  0.52290512658E+02  0.52290512658E+02  0.00000000000E+00 0. -1.
         -2   -1    0    0    0  501 -0.00000000000E+00 -0.00000000000E+00 -0.36314968485E+02  0.36314968485E+02  0.00000000000E+00 0.  1.
         23    2    1    2    0    0  0.00000000000E+00  0.00000000000E+00  0.15975544173E+02  0.88605481143E+02  0.87153389360E+02 0.  0.
        -11    1    3    3    0    0  0.16041080146E+02 -0.37760389193E+02 -0.69459092951E+01  0.41610201876E+02  0.00000000000E+00 0. -1.
         11    1    3    3    0    0 -0.16041080146E+02  0.37760389193E+02  0.22921453468E+02  0.46995279267E+02  0.00000000000E+00 0.  1.
<mgrwt>
<rscale>  0 0.87153389E+02</rscale>
<asrwt>0</asrwt>
<pdfrwt beam="1">  1        2 0.80446943E-02 0.87153389E+02</pdfrwt>
<pdfrwt beam="2">  1       -2 0.55869182E-02 0.87153389E+02</pdfrwt>
<totfact> 0.11619928E+05</totfact>
</mgrwt>
</event>
<event>
 5    1  0.1197825E+001  0.9095311E+02  0.7546771E-02  0.1300560E+00
          2   -1    0    0  501    0  0.00000000000E+00  0.00000000000E+00  0.55491047791E+02  0.55491047791E+02  0.00000000000E+00 0. -1.
         -2   -1    0    0    0  501 -0.00000000000E+00 -0.00000000000E+00 -0.37269378797E+02  0.37269378797E+02  0.00000000000E+00 0.  1.
         23    2    1    2    0    0  0.00000000000E+00  0.00000000000E+00  0.18221668994E+02  0.92760426589E+02  0.90953106159E+02 0.  0.
        -13    1    3    3    0    0  0.27043585366E+02 -0.34915088132E+02  0.20175281868E+02  0.48553690767E+02  0.00000000000E+00 0.  1.
         13    1    3    3    0    0 -0.27043585366E+02  0.34915088132E+02 -0.19536128734E+01  0.44206735821E+02  0.00000000000E+00 0. -1.
<mgrwt>
<rscale>  0 0.90953106E+02</rscale>
<asrwt>0</asrwt>
<pdfrwt beam="1">  1        2 0.85370843E-02 0.90953106E+02</pdfrwt>
<pdfrwt beam="2">  1       -2 0.57337506E-02 0.90953106E+02</pdfrwt>
<totfact> 0.10461025E+05</totfact>
</mgrwt>
</event>
<event>
 5    1  0.1197825E+001  0.8958743E+02  0.7546771E-02  0.1303854E+00
          3   -1    0    0  501    0  0.00000000000E+00  0.00000000000E+00  0.20687244910E+03  0.20687244910E+03  0.00000000000E+00 0. -1.
         -3   -1    0    0    0  501 -0.00000000000E+00 -0.00000000000E+00 -0.96991006729E+01  0.96991006729E+01  0.00000000000E+00 0.  1.
         23    2    1    2    0    0  0.00000000000E+00  0.00000000000E+00  0.19717334843E+03  0.21657154977E+03  0.89587425687E+02 0.  0.
        -13    1    3    3    0    0 -0.11086527378E+02 -0.27738142429E+02  0.17895072165E+02  0.34821677767E+02  0.00000000000E+00 0.  1.
         13    1    3    3    0    0  0.11086527378E+02  0.27738142429E+02  0.17927827626E+03  0.18174987201E+03  0.00000000000E+00 0. -1.
<mgrwt>
<rscale>  0 0.89587426E+02</rscale>
<asrwt>0</asrwt>
<pdfrwt beam="1">  1        3 0.31826527E-01 0.89587426E+02</pdfrwt>
<pdfrwt beam="2">  1       -3 0.14921695E-02 0.89587426E+02</pdfrwt>
<totfact> 0.29003552E+04</totfact>
</mgrwt>
</event>
<event>
 5    1  0.1197825E+001  0.9094789E+02  0.7546771E-02  0.1300572E+00
         -1   -1    0    0    0  501 -0.00000000000E+00  0.00000000000E+00  0.79586152687E+02  0.79586152687E+02  0.00000000000E+00 0.  1.
          1   -1    0    0  501    0  0.00000000000E+00 -0.00000000000E+00 -0.25982908642E+02  0.25982908642E+02  0.00000000000E+00 0. -1.
         23    2    1    2    0    0  0.00000000000E+00  0.00000000000E+00  0.53603244045E+02  0.10556906133E+03  0.90947891331E+02 0.  0.
        -13    1    3    3    0    0  0.27833662688E+02 -0.32952110408E+02  0.10088012326E+02  0.44298107765E+02  0.00000000000E+00 0. -1.
         13    1    3    3    0    0 -0.27833662688E+02  0.32952110408E+02  0.43515231719E+02  0.61270953563E+02  0.00000000000E+00 0.  1.
<mgrwt>
<rscale>  0 0.90947891E+02</rscale>
<asrwt>0</asrwt>
<pdfrwt beam="2">  1        1 0.39973706E-02 0.90947891E+02</pdfrwt>
<pdfrwt beam="1">  1       -1 0.12244023E-01 0.90947891E+02</pdfrwt>
<totfact> 0.85271922E+04</totfact>
</mgrwt>
</event>
<event>
 5    1  0.1197825E+001  0.9090354E+02  0.7546771E-02  0.1300678E+00
         -2   -1    0    0    0  501 -0.00000000000E+00  0.00000000000E+00  0.26314243547E+02  0.26314243547E+02  0.00000000000E+00 0.  1.
          2   -1    0    0  501    0  0.00000000000E+00 -0.00000000000E+00 -0.78507427582E+02  0.78507427582E+02  0.00000000000E+00 0. -1.
         23    2    1    2    0    0  0.00000000000E+00  0.00000000000E+00 -0.52193184035E+02  0.10482167113E+03  0.90903543817E+02 0.  0.
        -11    1    3    3    0    0  0.10197074544E+02 -0.26190669902E+02  0.15092672606E+02  0.31901728567E+02  0.00000000000E+00 0.  1.
         11    1    3    3    0    0 -0.10197074544E+02  0.26190669902E+02 -0.67285856642E+02  0.72919942562E+02  0.00000000000E+00 0. -1.
<mgrwt>
<rscale>  0 0.90903544E+02</rscale>
<asrwt>0</asrwt>
<pdfrwt beam="2">  1        2 0.12078066E-01 0.90903544E+02</pdfrwt>
<pdfrwt beam="1">  1       -2 0.40483452E-02 0.90903544E+02</pdfrwt>
<totfact> 0.11519790E+05</totfact>
</mgrwt>
</event>
<event>
 5    1  0.1197825E+001  0.8432497E+02  0.7546771E-02  0.1317207E+00
         -2   -1    0    0    0  501 -0.00000000000E+00  0.00000000000E+00  0.25263329204E+03  0.25263329204E+03  0.00000000000E+00 0.  1.
          2   -1    0    0  501    0  0.00000000000E+00 -0.00000000000E+00 -0.70365825564E+01  0.70365825564E+01  0.00000000000E+00 0. -1.
         23    2    1    2    0    0  0.00000000000E+00  0.00000000000E+00  0.24559670949E+03  0.25966987460E+03  0.84324967025E+02 0.  0.
        -13    1    3    3    0    0 -0.30686453799E+02  0.20556007962E+02  0.60182275525E+02  0.70612422402E+02  0.00000000000E+00 0. -1.
         13    1    3    3    0    0  0.30686453799E+02 -0.20556007962E+02  0.18541443396E+03  0.18905745220E+03  0.00000000000E+00 0.  1.
<mgrwt>
<rscale>  0 0.84324967E+02</rscale>
<asrwt>0</asrwt>
<pdfrwt beam="2">  1        2 0.10825514E-02 0.84324967E+02</pdfrwt>
<pdfrwt beam="1">  1       -2 0.38866653E-01 0.84324967E+02</pdfrwt>
<totfact> 0.68262728E+04</totfact>
</mgrwt>
</event>
<event>
 5    1  0.1197825E+001  0.9168671E+02  0.7546771E-02  0.1298818E+00
          1   -1    0    0  501    0  0.00000000000E+00  0.00000000000E+00  0.10771333127E+03  0.10771333127E+03  0.00000000000E+00 0. -1.
         -1   -1    0    0    0  501 -0.00000000000E+00 -0.00000000000E+00 -0.19511168899E+02  0.19511168899E+02  0.00000000000E+00 0.  1.
         23    2    1    2    0    0  0.00000000000E+00  0.00000000000E+00  0.88202162375E+02  0.12722450017E+03  0.91686705670E+02 0.  0.
        -11    1    3    3    0    0  0.34607184785E+02 -0.28855573244E+02  0.32383320160E+02  0.55488564323E+02  0.00000000000E+00 0. -1.
         11    1    3    3    0    0 -0.34607184785E+02  0.28855573244E+02  0.55818842215E+02  0.71735935850E+02  0.00000000000E+00 0.  1.
<mgrwt>
<rscale>  0 0.91686706E+02</rscale>
<asrwt>0</asrwt>
<pdfrwt beam="1">  1        1 0.16571281E-01 0.91686706E+02</pdfrwt>
<pdfrwt beam="2">  1       -1 0.30017184E-02 0.91686706E+02</pdfrwt>
<totfact> 0.10416767E+05</totfact>
</mgrwt>
</event>
<event>
 5    1  0.1197825E+001  0.9287526E+02  0.7546771E-02  0.1296035E+00
          1   -1    0    0  501    0  0.00000000000E+00  0.00000000000E+00  0.19702565309E+02  0.19702565309E+02  0.00000000000E+00 0. -1.
         -1   -1    0    0    0  501 -0.00000000000E+00 -0.00000000000E+00 -0.10945038890E+03  0.10945038890E+03  0.00000000000E+00 0.  1.
         23    2    1    2    0    0  0.00000000000E+00  0.00000000000E+00 -0.89747823589E+02  0.12915295421E+03  0.92875259039E+02 0.  0.
        -11    1    3    3    0    0 -0.29860596031E+02 -0.81709831274E+01 -0.93006448064E+02  0.98023566259E+02  0.00000000000E+00 0.  1.
         11    1    3    3    0    0  0.29860596031E+02  0.81709831274E+01  0.32586244746E+01  0.31129387949E+02  0.00000000000E+00 0. -1.
<mgrwt>
<rscale>  0 0.92875259E+02</rscale>
<asrwt>0</asrwt>
<pdfrwt beam="1">  1        1 0.30311638E-02 0.92875259E+02</pdfrwt>
<pdfrwt beam="2">  1       -1 0.16838522E-01 0.92875259E+02</pdfrwt>
<totfact> 0.76260557E+04</totfact>
</mgrwt>
</event>
<event>
 5    1  0.1197825E+001  0.7373948E+02  0.7546771E-02  0.1347819E+00
          3   -1    0    0  501    0  0.00000000000E+00  0.00000000000E+00  0.29491453030E+02  0.29491453030E+02  0.00000000000E+00 0. -1.
         -3   -1    0    0    0  501 -0.00000000000E+00 -0.00000000000E+00 -0.46093954997E+02  0.46093954997E+02  0.00000000000E+00 0.  1.
         23    2    1    2    0    0  0.00000000000E+00  0.00000000000E+00 -0.16602501967E+02  0.75585408027E+02  0.73739479488E+02 0.  0.
        -11    1    3    3    0    0  0.27374442737E+02 -0.17162349542E+02 -0.26507390125E+02  0.41791722724E+02  0.00000000000E+00 0.  1.
         11    1    3    3    0    0 -0.27374442737E+02  0.17162349542E+02  0.99048881580E+01  0.33793685304E+02  0.00000000000E+00 0. -1.
<mgrwt>
<rscale>  0 0.73739479E+02</rscale>
<asrwt>0</asrwt>
<pdfrwt beam="1">  1        3 0.45371467E-02 0.73739479E+02</pdfrwt>
<pdfrwt beam="2">  1       -3 0.70913776E-02 0.73739479E+02</pdfrwt>
<totfact> 0.64788718E+04</totfact>
</mgrwt>
</event>
<event>
 5    1  0.1197825E+001  0.8801718E+02  0.7546771E-02  0.1307726E+00
          2   -1    0    0  501    0  0.00000000000E+00  0.00000000000E+00  0.48382897613E+02  0.48382897613E+02  0.00000000000E+00 0. -1.
         -2   -1    0    0    0  501 -0.00000000000E+00 -0.00000000000E+00 -0.40029767936E+02  0.40029767936E+02  0.00000000000E+00 0.  1.
         23    2    1    2    0    0  0.00000000000E+00  0.00000000000E+00  0.83531296765E+01  0.88412665549E+02  0.88017183857E+02 0.  0.
        -13    1    3    3    0    0 -0.39904392625E+02  0.14807308715E+02  0.15413392998E+02  0.45267975721E+02  0.00000000000E+00 0. -1.
         13    1    3    3    0    0  0.39904392625E+02 -0.14807308715E+02 -0.70602633218E+01  0.43144689828E+02  0.00000000000E+00 0.  1.
<mgrwt>
<rscale>  0 0.88017184E+02</rscale>
<asrwt>0</asrwt>
<pdfrwt beam="1">  1        2 0.74435227E-02 0.88017184E+02</pdfrwt>
<pdfrwt beam="2">  1       -2 0.61584258E-02 0.88017184E+02</pdfrwt>
<totfact> 0.11079467E+05</totfact>
</mgrwt>
</event>
<event>
 5    1  0.1197825E+001  0.8707860E+02  0.7546771E-02  0.1310085E+00
         -2   -1    0    0    0  501 -0.00000000000E+00  0.00000000000E+00  0.64001571719E+02  0.64001571719E+02  0.00000000000E+00 0.  1.
          2   -1    0    0  501    0  0.00000000000E+00 -0.00000000000E+00 -0.29619125102E+02  0.29619125102E+02  0.00000000000E+00 0. -1.
         23    2    1    2    0    0  0.00000000000E+00  0.00000000000E+00  0.34382446617E+02  0.93620696820E+02  0.87078598047E+02 0.  0.
        -11    1    3    3    0    0 -0.21759134498E+02 -0.18985869501E+02 -0.17841269446E+02  0.33944573502E+02  0.00000000000E+00 0. -1.
         11    1    3    3    0    0  0.21759134498E+02  0.18985869501E+02  0.52223716063E+02  0.59676123318E+02  0.00000000000E+00 0.  1.
<mgrwt>
<rscale>  0 0.87078598E+02</rscale>
<asrwt>0</asrwt>
<pdfrwt beam="2">  1        2 0.45567885E-02 0.87078598E+02</pdfrwt>
<pdfrwt beam="1">  1       -2 0.98463956E-02 0.87078598E+02</pdfrwt>
<totfact> 0.10098424E+05</totfact>
</mgrwt>
</event>
<event>
 5    1  0.1197825E+001  0.9090380E+02  0.7546771E-02  0.1300678E+00
         -2   -1    0    0    0  501 -0.00000000000E+00  0.00000000000E+00  0.11185342400E+03  0.11185342400E+03  0.00000000000E+00 0.  1.
          2   -1    0    0  501    0  0.00000000000E+00 -0.00000000000E+00 -0.18469487173E+02  0.18469487173E+02  0.00000000000E+00 0. -1.
         23    2    1    2    0    0  0.00000000000E+00  0.00000000000E+00  0.93383936824E+02  0.13032291117E+03  0.90903803656E+02 0.  0.
        -13    1    3    3    0    0 -0.44411253407E+02  0.59053219103E+01  0.57670576067E+02  0.73028265760E+02  0.00000000000E+00 0.  1.
         13    1    3    3    0    0  0.44411253407E+02 -0.59053219103E+01  0.35713360758E+02  0.57294645410E+02  0.00000000000E+00 0. -1.
<mgrwt>
<rscale>  0 0.90903804E+02</rscale>
<asrwt>0</asrwt>
<pdfrwt beam="2">  1        2 0.28414596E-02 0.90903804E+02</pdfrwt>
<pdfrwt beam="1">  1       -2 0.17208219E-01 0.90903804E+02</pdfrwt>
<totfact> 0.77702983E+04</totfact>
</mgrwt>
</event>
<event>
 5    1  0.1197825E+001  0.9582174E+02  0.7546771E-02  0.1289336E+00
         -2   -1    0    0    0  501 -0.00000000000E+00  0.00000000000E+00  0.59758336654E+02  0.59758336654E+02  0.00000000000E+00 0.  1.
          2   -1    0    0  501    0  0.00000000000E+00 -0.00000000000E+00 -0.38412237377E+02  0.38412237377E+02  0.00000000000E+00 0. -1.
         23    2    1    2    0    0  0.00000000000E+00  0.00000000000E+00  0.21346099277E+02  0.98170574031E+02  0.95821738929E+02 0.  0.
        -13    1    3    3    0    0  0.28002258271E+02 -0.10813423351E+02  0.48929983739E+02  0.57403831767E+02  0.00000000000E+00 0.  1.
         13    1    3    3    0    0 -0.28002258271E+02  0.10813423351E+02 -0.27583884462E+02  0.40766742264E+02  0.00000000000E+00 0. -1.
<mgrwt>
<rscale>  0 0.95821739E+02</rscale>
<asrwt>0</asrwt>
<pdfrwt beam="2">  1        2 0.59095750E-02 0.95821739E+02</pdfrwt>
<pdfrwt beam="1">  1       -2 0.91935902E-02 0.95821739E+02</pdfrwt>
<totfact> 0.81626289E+04</totfact>
</mgrwt>
</event>
<event>
 5    1  0.1197825E+001  0.9009071E+02  0.7546771E-02  0.1302632E+00
          2   -1    0    0  501    0  0.00000000000E+00  0.00000000000E+00  0.33179028085E+03  0.33179028085E+03  0.00000000000E+00 0. -1.
         -2   -1    0    0    0  501 -0.00000000000E+00 -0.00000000000E+00 -0.61155624259E+01  0.61155624259E+01  0.00000000000E+00 0.  1.
         23    2    1    2    0    0  0.00000000000E+00  0.00000000000E+00  0.32567471842E+03  0.33790584328E+03  0.90090713725E+02 0.  0.
        -11    1    3    3    0    0  0.44908770384E+02 -0.23087002372E+01  0.15294480151E+03  0.15941844330E+03  0.00000000000E+00 0.  1.
         11    1    3    3    0    0 -0.44908770384E+02  0.23087002372E+01  0.17272991691E+03  0.17848739998E+03  0.00000000000E+00 0. -1.
<mgrwt>
<rscale>  0 0.90090714E+02</rscale>
<asrwt>0</asrwt>
<pdfrwt beam="1">  1        2 0.51044645E-01 0.90090714E+02</pdfrwt>
<pdfrwt beam="2">  1       -2 0.94085602E-03 0.90090714E+02</pdfrwt>
<totfact> 0.19253964E+05</totfact>
</mgrwt>
</event>
<event>
 5    1  0.1197825E+001  0.9291061E+02  0.7546771E-02  0.1295952E+00
          1   -1    0    0  501    0  0.00000000000E+00  0.00000000000E+00  0.18174331922E+03  0.18174331922E+03  0.00000000000E+00 0. -1.
         -1   -1    0    0    0  501 -0.00000000000E+00 -0.00000000000E+00 -0.11874414500E+02  0.11874414500E+02  0.00000000000E+00 0.  1.
         23    2    1    2    0    0  0.00000000000E+00  0.00000000000E+00  0.16986890471E+03  0.19361773372E+03  0.92910613065E+02 0.  0.
        -11    1    3    3    0    0  0.35562420276E+02 -0.20175095200E+02  0.13089292253E+03  0.13713014756E+03  0.00000000000E+00 0. -1.
         11    1    3    3    0    0 -0.35562420276E+02  0.20175095200E+02  0.38975982190E+02  0.56487586157E+02  0.00000000000E+00 0.  1.
<mgrwt>
<rscale>  0 0.92910613E+02</rscale>
<asrwt>0</asrwt>
<pdfrwt beam="1">  1        1 0.27960509E-01 0.92910613E+02</pdfrwt>
<pdfrwt beam="2">  1       -1 0.18268331E-02 0.92910613E+02</pdfrwt>
<totfact> 0.11049376E+05</totfact>
</mgrwt>
</event>
<event>
 5    1  0.1197825E+001  0.9007762E+02  0.7546771E-02  0.1302664E+00
         -2   -1    0    0    0  501 -0.00000000000E+00  0.00000000000E+00  0.22931432814E+02  0.22931432814E+02  0.00000000000E+00 0.  1.
          2   -1    0    0  501    0  0.00000000000E+00 -0.00000000000E+00 -0.88459128051E+02  0.88459128051E+02  0.00000000000E+00 0. -1.
         23    2    1    2    0    0  0.00000000000E+00  0.00000000000E+00 -0.65527695236E+02  0.11139056086E+03  0.90077623230E+02 0.  0.
        -13    1    3    3    0    0  0.33766614085E+02  0.21161367900E+02 -0.68096386377E+01  0.40427204906E+02  0.00000000000E+00 0.  1.
         13    1    3    3    0    0 -0.33766614085E+02 -0.21161367900E+02 -0.58718056599E+02  0.70963355959E+02  0.00000000000E+00 0. -1.
<mgrwt>
<rscale>  0 0.90077623E+02</rscale>
<asrwt>0</asrwt>
<pdfrwt beam="2">  1        2 0.13609097E-01 0.90077623E+02</pdfrwt>
<pdfrwt beam="1">  1       -2 0.35279127E-02 0.90077623E+02</pdfrwt>
<totfact> 0.12228365E+05</totfact>
</mgrwt>
</event>
<event>
 5    1  0.1197825E+001  0.9336025E+02  0.7546771E-02  0.1294913E+00
          3   -1    0    0  501    0  0.00000000000E+00  0.00000000000E+00  0.90087606679E+02  0.90087606679E+02  0.00000000000E+00 0. -1.
         -3   -1    0    0    0  501 -0.00000000000E+00 -0.00000000000E+00 -0.24187945027E+02  0.24187945027E+02  0.00000000000E+00 0.  1.
         23    2    1    2    0    0  0.00000000000E+00  0.00000000000E+00  0.65899661652E+02  0.11427555171E+03  0.93360250171E+02 0.  0.
        -11    1    3    3    0    0 -0.24015245455E+02 -0.25824366395E+02  0.70385962774E+02  0.78726194304E+02  0.00000000000E+00 0. -1.
         11    1    3    3    0    0  0.24015245455E+02  0.25824366395E+02 -0.44863011226E+01  0.35549357402E+02  0.00000000000E+00 0.  1.
<mgrwt>
<rscale>  0 0.93360250E+02</rscale>
<asrwt>0</asrwt>
<pdfrwt beam="1">  1        3 0.13859632E-01 0.93360250E+02</pdfrwt>
<pdfrwt beam="2">  1       -3 0.37212224E-02 0.93360250E+02</pdfrwt>
<totfact> 0.31541334E+04</totfact>
</mgrwt>
</event>
<event>
 5    1  0.1197825E+001  0.9218199E+02  0.7546771E-02  0.1297652E+00
          2   -1    0    0  501    0  0.00000000000E+00  0.00000000000E+00  0.38589306756E+03  0.38589306756E+03  0.00000000000E+00 0. -1.
         -2   -1    0    0    0  501 -0.00000000000E+00 -0.00000000000E+00 -0.55050995440E+01  0.55050995440E+01  0.00000000000E+00 0.  1.
         23    2    1    2    0    0  0.00000000000E+00  0.00000000000E+00  0.38038796801E+03  0.39139816710E+03  0.92181988485E+02 0.  0.
        -11    1    3    3    0    0 -0.44530647870E+02 -0.92835051481E+01  0.15864308026E+03  0.16503572032E+03  0.00000000000E+00 0. -1.
         11    1    3    3    0    0  0.44530647870E+02  0.92835051481E+01  0.22174488775E+03  0.22636244678E+03  0.00000000000E+00 0.  1.
<mgrwt>
<rscale>  0 0.92181988E+02</rscale>
<asrwt>0</asrwt>
<pdfrwt beam="1">  1        2 0.59368143E-01 0.92181988E+02</pdfrwt>
<pdfrwt beam="2">  1       -2 0.84693869E-03 0.92181988E+02</pdfrwt>
<totfact> 0.19140364E+05</totfact>
</mgrwt>
</event>
<event>
 5    1  0.1197825E+001  0.9157836E+02  0.7546771E-02  0.1299074E+00
          1   -1    0    0  501    0  0.00000000000E+00  0.00000000000E+00  0.17574012125E+03  0.17574012125E+03  0.00000000000E+00 0. -1.
         -1   -1    0    0    0  501 -0.00000000000E+00 -0.00000000000E+00 -0.11930394541E+02  0.11930394541E+02  0.00000000000E+00 0.  1.
         23    2    1    2    0    0  0.00000000000E+00  0.00000000000E+00  0.16380972670E+03  0.18767051579E+03  0.91578359521E+02 0.  0.
        -13    1    3    3    0    0  0.44754015453E+02 -0.88578185952E+01  0.73897902256E+02  0.86846317178E+02  0.00000000000E+00 0.  1.
         13    1    3    3    0    0 -0.44754015453E+02  0.88578185952E+01  0.89911824448E+02  0.10082419861E+03  0.00000000000E+00 0. -1.
<mgrwt>
<rscale>  0 0.91578360E+02</rscale>
<asrwt>0</asrwt>
<pdfrwt beam="1">  1        1 0.27036940E-01 0.91578360E+02</pdfrwt>
<pdfrwt beam="2">  1       -1 0.18354454E-02 0.91578360E+02</pdfrwt>
<totfact> 0.11413977E+05</totfact>
</mgrwt>
</event>
<event>
 5    1  0.1197825E+001  0.9557965E+02  0.7546771E-02  0.1289876E+00
         -1   -1    0    0    0  501 -0.00000000000E+00  0.00000000000E+00  0.85561281113E+01  0.85561281113E+01  0.00000000000E+00 0.  1.
          1   -1    0    0  501    0  0.00000000000E+00 -0.00000000000E+00 -0.26692768083E+03  0.26692768083E+03  0.00000000000E+00 0. -1.
         23    2    1    2    0    0  0.00000000000E+00  0.00000000000E+00 -0.25837155272E+03  0.27548380895E+03  0.95579651258E+02 0.  0.
        -11    1    3    3    0    0  0.93673456540E+01 -0.42016913729E+02 -0.69369732643E+02  0.81641460122E+02  0.00000000000E+00 0.  1.
         11    1    3    3    0    0 -0.93673456540E+01  0.42016913729E+02 -0.18900182008E+03  0.19384234882E+03  0.00000000000E+00 0. -1.
<mgrwt>
<rscale>  0 0.95579651E+02</rscale>
<asrwt>0</asrwt>
<pdfrwt beam="2">  1        1 0.41065790E-01 0.95579651E+02</pdfrwt>
<pdfrwt beam="1">  1       -1 0.13163276E-02 0.95579651E+02</pdfrwt>
<totfact> 0.11040585E+05</totfact>
</mgrwt>
</event>
<event>
 5    1  0.1197825E+001  0.9897720E+02  0.7546771E-02  0.1282462E+00
          1   -1    0    0  501    0  0.00000000000E+00  0.00000000000E+00  0.29148003897E+02  0.29148003897E+02  0.00000000000E+00 0. -1.
         -1   -1    0    0    0  501 -0.00000000000E+00 -0.00000000000E+00 -0.84023649000E+02  0.84023649000E+02  0.00000000000E+00 0.  1.
         23    2    1    2    0    0  0.00000000000E+00  0.00000000000E+00 -0.54875645103E+02  0.11317165290E+03  0.98977202395E+02 0.  0.
        -11    1    3    3    0    0  0.28046933383E+02 -0.20668240512E+02 -0.67625355280E+02  0.76072303204E+02  0.00000000000E+00 0.  1.
         11    1    3    3    0    0 -0.28046933383E+02  0.20668240512E+02  0.12749710177E+02  0.37099349693E+02  0.00000000000E+00 0. -1.
<mgrwt>
<rscale>  0 0.98977202E+02</rscale>
<asrwt>0</asrwt>
<pdfrwt beam="1">  1        1 0.44843084E-02 0.98977202E+02</pdfrwt>
<pdfrwt beam="2">  1       -1 0.12926715E-01 0.98977202E+02</pdfrwt>
<totfact> 0.67992156E+04</totfact>
</mgrwt>
</event>
<event>
 5    1  0.1197825E+001  0.9148691E+02  0.7546771E-02  0.1299290E+00
          3   -1    0    0  501    0  0.00000000000E+00  0.00000000000E+00  0.90248298009E+01  0.90248298009E+01  0.00000000000E+00 0. -1.
         -3   -1    0    0    0  501 -0.00000000000E+00 -0.00000000000E+00 -0.23185630983E+03  0.23185630983E+03  0.00000000000E+00 0.  1.
         23    2    1    2    0    0  0.00000000000E+00  0.00000000000E+00 -0.22283148003E+03  0.24088113963E+03  0.91486911293E+02 0.  0.
        -13    1    3    3    0    0 -0.23991186930E+02 -0.25328163144E+02 -0.18931617242E+03  0.19250378189E+03  0.00000000000E+00 0.  1.
         13    1    3    3    0    0  0.23991186930E+02  0.25328163144E+02 -0.33515307602E+02  0.48377357744E+02  0.00000000000E+00 0. -1.
<mgrwt>
<rscale>  0 0.91486911E+02</rscale>
<asrwt>0</asrwt>
<pdfrwt beam="1">  1        3 0.13884352E-02 0.91486911E+02</pdfrwt>
<pdfrwt beam="2">  1       -3 0.35670205E-01 0.91486911E+02</pdfrwt>
<totfact> 0.26268993E+04</totfact>
</mgrwt>
</event>
<event>
 5    1  0.1197825E+001  0.9332219E+02  0.7546771E-02  0.1295000E+00
         -1   -1    0    0    0  501 -0.00000000000E+00  0.00000000000E+00  0.29372236235E+02  0.29372236235E+02  0.00000000000E+00 0.  1.
          1   -1    0    0  501    0  0.00000000000E+00 -0.00000000000E+00 -0.74126390992E+02  0.74126390992E+02  0.00000000000E+00 0. -1.
         23    2    1    2    0    0  0.00000000000E+00  0.00000000000E+00 -0.44754154757E+02  0.10349862723E+03  0.93322191733E+02 0.  0.
        -11    1    3    3    0    0 -0.27741574310E+01 -0.43396744323E+02 -0.41142077745E+02  0.59863544236E+02  0.00000000000E+00 0. -1.
         11    1    3    3    0    0  0.27741574310E+01  0.43396744323E+02 -0.36120770121E+01  0.43635082991E+02  0.00000000000E+00 0.  1.
<mgrwt>
<rscale>  0 0.93322192E+02</rscale>
<asrwt>0</asrwt>
<pdfrwt beam="2">  1        1 0.11404060E-01 0.93322192E+02</pdfrwt>
<pdfrwt beam="1">  1       -1 0.45188057E-02 0.93322192E+02</pdfrwt>
<totfact> 0.93359382E+04</totfact>
</mgrwt>
</event>
<event>
 5    1  0.1197825E+001  0.9450345E+02  0.7546771E-02  0.1292298E+00
         -2   -1    0    0    0  501 -0.00000000000E+00  0.00000000000E+00  0.17315568912E+03  0.17315568912E+03  0.00000000000E+00 0.  1.
          2   -1    0    0  501    0  0.00000000000E+00 -0.00000000000E+00 -0.12894325042E+02  0.12894325042E+02  0.00000000000E+00 0. -1.
         23    2    1    2    0    0  0.00000000000E+00  0.00000000000E+00  0.16026136408E+03  0.18605001416E+03  0.94503454715E+02 0.  0.
        -11    1    3    3    0    0 -0.46402671793E+02 -0.58572476041E+01  0.66893321862E+02  0.81622495727E+02  0.00000000000E+00 0.  1.
         11    1    3    3    0    0  0.46402671793E+02  0.58572476041E+01  0.93368042215E+02  0.10442751843E+03  0.00000000000E+00 0. -1.
<mgrwt>
<rscale>  0 0.94503455E+02</rscale>
<asrwt>0</asrwt>
<pdfrwt beam="2">  1        2 0.19837424E-02 0.94503455E+02</pdfrwt>
<pdfrwt beam="1">  1       -2 0.26639335E-01 0.94503455E+02</pdfrwt>
<totfact> 0.60384434E+04</totfact>
</mgrwt>
</event>
<event>
 5    1  0.1197825E+001  0.9185599E+02  0.7546771E-02  0.1298418E+00
          2   -1    0    0  501    0  0.00000000000E+00  0.00000000000E+00  0.27879659647E+03  0.27879659647E+03  0.00000000000E+00 0. -1.
         -2   -1    0    0    0  501 -0.00000000000E+00 -0.00000000000E+00 -0.75660206020E+01  0.75660206020E+01  0.00000000000E+00 0.  1.
         23    2    1    2    0    0  0.00000000000E+00  0.00000000000E+00  0.27123057587E+03  0.28636261708E+03  0.91855991480E+02 0.  0.
        -13    1    3    3    0    0 -0.38229058834E+02 -0.19478149063E+02  0.18670087827E+03  0.19156742201E+03  0.00000000000E+00 0.  1.
         13    1    3    3    0    0  0.38229058834E+02  0.19478149063E+02  0.84529697602E+02  0.94795195063E+02  0.00000000000E+00 0. -1.
<mgrwt>
<rscale>  0 0.91855991E+02</rscale>
<asrwt>0</asrwt>
<pdfrwt beam="1">  1        2 0.42891776E-01 0.91855991E+02</pdfrwt>
<pdfrwt beam="2">  1       -2 0.11640034E-02 0.91855991E+02</pdfrwt>
<totfact> 0.17137976E+05</totfact>
</mgrwt>
</event>
<event>
 5    1  0.1197825E+001  0.9100215E+02  0.7546771E-02  0.1300443E+00
          4   -1    0    0  501    0  0.00000000000E+00  0.00000000000E+00  0.27636417252E+02  0.27636417252E+02  0.00000000000E+00 0. -1.
         -4   -1    0    0    0  501 -0.00000000000E+00 -0.00000000000E+00 -0.74913763586E+02  0.74913763586E+02  0.00000000000E+00 0.  1.
         23    2    1    2    0    0  0.00000000000E+00  0.00000000000E+00 -0.47277346333E+02  0.10255018084E+03  0.91002154445E+02 0.  0.
        -13    1    3    3    0    0  0.44384143724E+02 -0.99294881672E+01 -0.25151019069E+02  0.51972307142E+02  0.00000000000E+00 0.  1.
         13    1    3    3    0    0 -0.44384143724E+02  0.99294881672E+01 -0.22126327264E+02  0.50577873696E+02  0.00000000000E+00 0. -1.
<mgrwt>
<rscale>  0 0.91002154E+02</rscale>
<asrwt>0</asrwt>
<pdfrwt beam="1">  1        4 0.42517565E-02 0.91002154E+02</pdfrwt>
<pdfrwt beam="2">  1       -4 0.11525194E-01 0.91002154E+02</pdfrwt>
<totfact> 0.26438597E+04</totfact>
</mgrwt>
</event>
<event>
 5    1  0.1197825E+001  0.9409466E+02  0.7546771E-02  0.1293228E+00
         -1   -1    0    0    0  501 -0.00000000000E+00  0.00000000000E+00  0.13389194547E+03  0.13389194547E+03  0.00000000000E+00 0.  1.
          1   -1    0    0  501    0  0.00000000000E+00 -0.00000000000E+00 -0.16531625145E+02  0.16531625145E+02  0.00000000000E+00 0. -1.
         23    2    1    2    0    0  0.00000000000E+00  0.00000000000E+00  0.11736032033E+03  0.15042357061E+03  0.94094664087E+02 0.  0.
        -11    1    3    3    0    0 -0.20464934107E+00  0.27491056019E+02  0.11971498966E+03  0.12283109863E+03  0.00000000000E+00 0.  1.
         11    1    3    3    0    0  0.20464934107E+00 -0.27491056019E+02 -0.23546693333E+01  0.27592471982E+02  0.00000000000E+00 0. -1.
<mgrwt>
<rscale>  0 0.94094664E+02</rscale>
<asrwt>0</asrwt>
<pdfrwt beam="2">  1        1 0.25433270E-02 0.94094664E+02</pdfrwt>
<pdfrwt beam="1">  1       -1 0.20598760E-01 0.94094664E+02</pdfrwt>
<totfact> 0.70711507E+04</totfact>
</mgrwt>
</event>
<event>
 5    1  0.1197825E+001  0.9341298E+02  0.7546771E-02  0.1294791E+00
          3   -1    0    0  501    0  0.00000000000E+00  0.00000000000E+00  0.30573688745E+03  0.30573688745E+03  0.00000000000E+00 0. -1.
         -3   -1    0    0    0  501 -0.00000000000E+00 -0.00000000000E+00 -0.71352075208E+01  0.71352075208E+01  0.00000000000E+00 0.  1.
         23    2    1    2    0    0  0.00000000000E+00  0.00000000000E+00  0.29860167993E+03  0.31287209497E+03  0.93412978514E+02 0.  0.
        -13    1    3    3    0    0 -0.10076279496E+02  0.44251212355E+02  0.18626443681E+03  0.19171369702E+03  0.00000000000E+00 0.  1.
         13    1    3    3    0    0  0.10076279496E+02 -0.44251212355E+02  0.11233724312E+03  0.12115839796E+03  0.00000000000E+00 0. -1.
<mgrwt>
<rscale>  0 0.93412979E+02</rscale>
<asrwt>0</asrwt>
<pdfrwt beam="1">  1        3 0.47036434E-01 0.93412979E+02</pdfrwt>
<pdfrwt beam="2">  1       -3 0.10977245E-02 0.93412979E+02</pdfrwt>
<totfact> 0.22056313E+04</totfact>
</mgrwt>
</event>
<event>
 5    1  0.1197825E+001  0.9051994E+02  0.7546771E-02  0.1301597E+00
         -1   -1    0    0    0  501 -0.00000000000E+00  0.00000000000E+00  0.52693796262E+02  0.52693796262E+02  0.00000000000E+00 0.  1.
          1   -1    0    0  501    0  0.00000000000E+00 -0.00000000000E+00 -0.38874879780E+02  0.38874879780E+02  0.00000000000E+00 0. -1.
         23    2    1    2    0    0  0.00000000000E+00  0.00000000000E+00  0.13818916482E+02  0.91568676042E+02  0.90519942440E+02 0.  0.
        -11    1    3    3    0    0  0.24670301457E+01 -0.11339560289E+02 -0.37344300246E+02  0.39105864345E+02  0.00000000000E+00 0. -1.
         11    1    3    3    0    0 -0.24670301457E+01  0.11339560289E+02  0.51163216728E+02  0.52462811698E+02  0.00000000000E+00 0.  1.
<mgrwt>
<rscale>  0 0.90519942E+02</rscale>
<asrwt>0</asrwt>
<pdfrwt beam="2">  1        1 0.59807507E-02 0.90519942E+02</pdfrwt>
<pdfrwt beam="1">  1       -1 0.81067379E-02 0.90519942E+02</pdfrwt>
<totfact> 0.92133892E+04</totfact>
</mgrwt>
</event>
<event>
 5    1  0.1197825E+001  0.8830675E+02  0.7546771E-02  0.1307005E+00
          1   -1    0    0  501    0  0.00000000000E+00  0.00000000000E+00  0.15126662149E+03  0.15126662149E+03  0.00000000000E+00 0. -1.
         -1   -1    0    0    0  501 -0.00000000000E+00 -0.00000000000E+00 -0.12887974335E+02  0.12887974335E+02  0.00000000000E+00 0.  1.
         23    2    1    2    0    0  0.00000000000E+00  0.00000000000E+00  0.13837864715E+03  0.16415459582E+03  0.88306745731E+02 0.  0.
        -13    1    3    3    0    0  0.30119689620E+02 -0.22057757701E+01  0.12906420630E+03  0.13255048283E+03  0.00000000000E+00 0. -1.
         13    1    3    3    0    0 -0.30119689620E+02  0.22057757701E+01  0.93144408465E+01  0.31604112990E+02  0.00000000000E+00 0.  1.
<mgrwt>
<rscale>  0 0.88306746E+02</rscale>
<asrwt>0</asrwt>
<pdfrwt beam="1">  1        1 0.23271787E-01 0.88306746E+02</pdfrwt>
<pdfrwt beam="2">  1       -1 0.19827654E-02 0.88306746E+02</pdfrwt>
<totfact> 0.12239763E+05</totfact>
</mgrwt>
</event>
<event>
 5    1  0.1197825E+001  0.9329272E+02  0.7546771E-02  0.1295068E+00
          1   -1    0    0  501    0  0.00000000000E+00  0.00000000000E+00  0.85138770956E+02  0.85138770956E+02  0.00000000000E+00 0. -1.
         -1   -1    0    0    0  501 -0.00000000000E+00 -0.00000000000E+00 -0.25556897703E+02  0.25556897703E+02  0.00000000000E+00 0.  1.
         23    2    1    2    0    0  0.00000000000E+00  0.00000000000E+00  0.59581873253E+02  0.11069566866E+03  0.93292719112E+02 0.  0.
        -11    1    3    3    0    0  0.27734801114E+02 -0.36678889868E+02  0.39082601318E+02  0.60349066940E+02  0.00000000000E+00 0. -1.
         11    1    3    3    0    0 -0.27734801114E+02  0.36678889868E+02  0.20499271935E+02  0.50346601719E+02  0.00000000000E+00 0.  1.
<mgrwt>
<rscale>  0 0.93292719E+02</rscale>
<asrwt>0</asrwt>
<pdfrwt beam="1">  1        1 0.13098272E-01 0.93292719E+02</pdfrwt>
<pdfrwt beam="2">  1       -1 0.39318305E-02 0.93292719E+02</pdfrwt>
<totfact> 0.95533838E+04</totfact>
</mgrwt>
</event>
<event>
 5    1  0.1197825E+001  0.9097493E+02  0.7546771E-02  0.1300508E+00
         -1   -1    0    0    0  501 -0.00000000000E+00  0.00000000000E+00  0.25645860170E+03  0.25645860170E+03  0.00000000000E+00 0. -1.
          1   -1    0    0  501    0  0.00000000000E+00 -0.00000000000E+00 -0.80680064773E+01  0.80680064773E+01  0.00000000000E+00 0.  1.
         23    2    1    2    0    0  0.00000000000E+00  0.00000000000E+00  0.24839059522E+03  0.26452660818E+03  0.90974934123E+02 0.  0.
        -13    1    3    3    0    0 -0.75576847454E+01 -0.40691467866E+02  0.69318112026E+02  0.80733603974E+02  0.00000000000E+00 0.  1.
         13    1    3    3    0    0  0.75576847454E+01  0.40691467866E+02  0.17907248320E+03  0.18379300420E+03  0.00000000000E+00 0. -1.
<mgrwt>
<rscale>  0 0.90974934E+02</rscale>
<asrwt>0</asrwt>
<pdfrwt beam="2">  1        1 0.12412320E-02 0.90974934E+02</pdfrwt>
<pdfrwt beam="1">  1       -1 0.39455163E-01 0.90974934E+02</pdfrwt>
<totfact> 0.64574938E+04</totfact>
</mgrwt>
</event>
<event>
 5    1  0.1197825E+001  0.9420394E+02  0.7546771E-02  0.1292979E+00
          3   -1    0    0  501    0  0.00000000000E+00  0.00000000000E+00  0.83232936109E+02  0.83232936109E+02  0.00000000000E+00 0. -1.
         -3   -1    0    0    0  501 -0.00000000000E+00 -0.00000000000E+00 -0.26655261729E+02  0.26655261729E+02  0.00000000000E+00 0.  1.
         23    2    1    2    0    0  0.00000000000E+00  0.00000000000E+00  0.56577674380E+02  0.10988819784E+03  0.94203942518E+02 0.  0.
        -13    1    3    3    0    0 -0.25130606052E+02  0.37718576118E+02  0.43243497047E+02  0.62643741761E+02  0.00000000000E+00 0. -1.
         13    1    3    3    0    0  0.25130606052E+02 -0.37718576118E+02  0.13334177333E+02  0.47244456078E+02  0.00000000000E+00 0.  1.
<mgrwt>
<rscale>  0 0.94203943E+02</rscale>
<asrwt>0</asrwt>
<pdfrwt beam="1">  1        3 0.12805067E-01 0.94203943E+02</pdfrwt>
<pdfrwt beam="2">  1       -3 0.41008095E-02 0.94203943E+02</pdfrwt>
<totfact> 0.31058791E+04</totfact>
</mgrwt>
</event>
<event>
 5    1  0.1197825E+001  0.9057816E+02  0.7546771E-02  0.1301458E+00
         -3   -1    0    0    0  501 -0.00000000000E+00  0.00000000000E+00  0.23918709028E+02  0.23918709028E+02  0.00000000000E+00 0.  1.
          3   -1    0    0  501    0  0.00000000000E+00 -0.00000000000E+00 -0.85752992078E+02  0.85752992078E+02  0.00000000000E+00 0. -1.
         23    2    1    2    0    0  0.00000000000E+00  0.00000000000E+00 -0.61834283051E+02  0.10967170111E+03  0.90578162175E+02 0.  0.
        -11    1    3    3    0    0 -0.23562114002E+02 -0.19958445151E+02 -0.71030661522E+02  0.77452357133E+02  0.00000000000E+00 0. -1.
         11    1    3    3    0    0  0.23562114002E+02  0.19958445151E+02  0.91963784715E+01  0.32219343973E+02  0.00000000000E+00 0.  1.
<mgrwt>
<rscale>  0 0.90578162E+02</rscale>
<asrwt>0</asrwt>
<pdfrwt beam="2">  1        3 0.13192768E-01 0.90578162E+02</pdfrwt>
<pdfrwt beam="1">  1       -3 0.36798013E-02 0.90578162E+02</pdfrwt>
<totfact> 0.34581119E+04</totfact>
</mgrwt>
</event>
<event>
 5    1  0.1197825E+001  0.9004384E+02  0.7546771E-02  0.1302746E+00
         -1   -1    0    0    0  501 -0.00000000000E+00  0.00000000000E+00  0.20652618270E+02  0.20652618270E+02  0.00000000000E+00 0.  1.
          1   -1    0    0  501    0  0.00000000000E+00 -0.00000000000E+00 -0.98146059110E+02  0.98146059110E+02  0.00000000000E+00 0. -1.
         23    2    1    2    0    0  0.00000000000E+00  0.00000000000E+00 -0.77493440841E+02  0.11879867738E+03  0.90043835846E+02 0.  0.
        -13    1    3    3    0    0  0.40245592299E+02 -0.19861047528E+02 -0.43467715948E+02  0.62478886339E+02  0.00000000000E+00 0. -1.
         13    1    3    3    0    0 -0.40245592299E+02  0.19861047528E+02 -0.34025724893E+02  0.56319791041E+02  0.00000000000E+00 0.  1.
<mgrwt>
<rscale>  0 0.90043836E+02</rscale>
<asrwt>0</asrwt>
<pdfrwt beam="2">  1        1 0.15099394E-01 0.90043836E+02</pdfrwt>
<pdfrwt beam="1">  1       -1 0.31773259E-02 0.90043836E+02</pdfrwt>
<totfact> 0.10773501E+05</totfact>
</mgrwt>
</event>
<event>
 5    1  0.1197825E+001  0.9611866E+02  0.7546771E-02  0.1288676E+00
          1   -1    0    0  501    0  0.00000000000E+00  0.00000000000E+00  0.36896710549E+02  0.36896710549E+02  0.00000000000E+00 0. -1.
         -1   -1    0    0    0  501 -0.00000000000E+00 -0.00000000000E+00 -0.62599052781E+02  0.62599052781E+02  0.00000000000E+00 0.  1.
         23    2    1    2    0    0  0.00000000000E+00  0.00000000000E+00 -0.25702342232E+02  0.99495763330E+02  0.96118658566E+02 0.  0.
        -11    1    3    3    0    0 -0.11499817541E+02 -0.10003911962E+02 -0.60030780966E+02  0.61935601405E+02  0.00000000000E+00 0.  1.
         11    1    3    3    0    0  0.11499817541E+02  0.10003911962E+02  0.34328438733E+02  0.37560161926E+02  0.00000000000E+00 0. -1.
<mgrwt>
<rscale>  0 0.96118659E+02</rscale>
<asrwt>0</asrwt>
<pdfrwt beam="1">  1        1 0.56764170E-02 0.96118659E+02</pdfrwt>
<pdfrwt beam="2">  1       -1 0.96306235E-02 0.96118659E+02</pdfrwt>
<totfact> 0.77033210E+04</totfact>
</mgrwt>
</event>
<event>
 5    1  0.1197825E+001  0.9255611E+02  0.7546771E-02  0.1296777E+00
          2   -1    0    0  501    0  0.00000000000E+00  0.00000000000E+00  0.51780411807E+02  0.51780411807E+02  0.00000000000E+00 0. -1.
         -2   -1    0    0    0  501 -0.00000000000E+00 -0.00000000000E+00 -0.41360396959E+02  0.41360396959E+02  0.00000000000E+00 0.  1.
         23    2    1    2    0    0  0.00000000000E+00  0.00000000000E+00  0.10420014848E+02  0.93140808766E+02  0.92556110269E+02 0.  0.
        -11    1    3    3    0    0  0.18596295602E+02 -0.42362860990E+02  0.40965886128E+01  0.46445842006E+02  0.00000000000E+00 0.  1.
         11    1    3    3    0    0 -0.18596295602E+02  0.42362860990E+02  0.63234262348E+01  0.46694966760E+02  0.00000000000E+00 0. -1.
<mgrwt>
<rscale>  0 0.92556110E+02</rscale>
<asrwt>0</asrwt>
<pdfrwt beam="1">  1        2 0.79662172E-02 0.92556110E+02</pdfrwt>
<pdfrwt beam="2">  1       -2 0.63631380E-02 0.92556110E+02</pdfrwt>
<totfact> 0.97730913E+04</totfact>
</mgrwt>
</event>
<event>
 5    1  0.1197825E+001  0.8843307E+02  0.7546771E-02  0.1306691E+00
          1   -1    0    0  501    0  0.00000000000E+00  0.00000000000E+00  0.51403273721E+02  0.51403273721E+02  0.00000000000E+00 0. -1.
         -1   -1    0    0    0  501 -0.00000000000E+00 -0.00000000000E+00 -0.38034578459E+02  0.38034578459E+02  0.00000000000E+00 0.  1.
         23    2    1    2    0    0  0.00000000000E+00  0.00000000000E+00  0.13368695262E+02  0.89437852180E+02  0.88433067286E+02 0.  0.
        -11    1    3    3    0    0  0.29050783513E+02  0.19595350395E+02 -0.20588247236E+02  0.40642363417E+02  0.00000000000E+00 0.  1.
         11    1    3    3    0    0 -0.29050783513E+02 -0.19595350395E+02  0.33956942498E+02  0.48795488764E+02  0.00000000000E+00 0. -1.
<mgrwt>
<rscale>  0 0.88433067E+02</rscale>
<asrwt>0</asrwt>
<pdfrwt beam="1">  1        1 0.79081959E-02 0.88433067E+02</pdfrwt>
<pdfrwt beam="2">  1       -1 0.58514736E-02 0.88433067E+02</pdfrwt>
<totfact> 0.10250926E+05</totfact>
</mgrwt>
</event>
<event>
 5    1  0.1197825E+001  0.9148041E+02  0.7546771E-02  0.1299306E+00
         -2   -1    0    0    0  501 -0.00000000000E+00  0.00000000000E+00  0.66701732684E+01  0.66701732684E+01  0.00000000000E+00 0.  1.
          2   -1    0    0  501    0  0.00000000000E+00 -0.00000000000E+00 -0.31365995513E+03  0.31365995513E+03  0.00000000000E+00 0. -1.
         23    2    1    2    0    0  0.00000000000E+00  0.00000000000E+00 -0.30698978186E+03  0.32033012840E+03  0.91480407696E+02 0.  0.
        -13    1    3    3    0    0 -0.44223941290E+02 -0.35312191407E+01 -0.11451191272E+03  0.12280555625E+03  0.00000000000E+00 0.  1.
         13    1    3    3    0    0  0.44223941290E+02  0.35312191407E+01 -0.19247786915E+03  0.19752457215E+03  0.00000000000E+00 0. -1.
<mgrwt>
<rscale>  0 0.91480408E+02</rscale>
<asrwt>0</asrwt>
<pdfrwt beam="2">  1        2 0.48255372E-01 0.91480408E+02</pdfrwt>
<pdfrwt beam="1">  1       -2 0.10261806E-02 0.91480408E+02</pdfrwt>
<totfact> 0.18104662E+05</totfact>
</mgrwt>
</event>
<event>
 5    1  0.1197825E+001  0.1082280E+03  0.7546771E-02  0.1263887E+00
          1   -1    0    0  501    0  0.00000000000E+00  0.00000000000E+00  0.25952483049E+03  0.25952483049E+03  0.00000000000E+00 0. -1.
         -1   -1    0    0    0  501 -0.00000000000E+00 -0.00000000000E+00 -0.11283410638E+02  0.11283410638E+02  0.00000000000E+00 0.  1.
         23    2    1    2    0    0  0.00000000000E+00  0.00000000000E+00  0.24824141985E+03  0.27080824113E+03  0.10822800438E+03 0.  0.
        -11    1    3    3    0    0  0.41779669181E+02 -0.32776418520E+02  0.15018337436E+03  0.15929494751E+03  0.00000000000E+00 0.  1.
         11    1    3    3    0    0 -0.41779669181E+02  0.32776418520E+02  0.98058045488E+02  0.11151329361E+03  0.00000000000E+00 0. -1.
<mgrwt>
<rscale>  0 0.10822800E+03</rscale>
<asrwt>0</asrwt>
<pdfrwt beam="1">  1        1 0.39926893E-01 0.10822800E+03</pdfrwt>
<pdfrwt beam="2">  1       -1 0.17359095E-02 0.10822800E+03</pdfrwt>
<totfact> 0.78478798E+04</totfact>
</mgrwt>
</event>
<event>
 5    1  0.1197825E+001  0.9250434E+02  0.7546771E-02  0.1296898E+00
          2   -1    0    0  501    0  0.00000000000E+00  0.00000000000E+00  0.13557134003E+02  0.13557134003E+02  0.00000000000E+00 0. -1.
         -2   -1    0    0    0  501 -0.00000000000E+00 -0.00000000000E+00 -0.15779611155E+03  0.15779611155E+03  0.00000000000E+00 0.  1.
         23    2    1    2    0    0  0.00000000000E+00  0.00000000000E+00 -0.14423897755E+03  0.17135324556E+03  0.92504335671E+02 0.  0.
        -13    1    3    3    0    0  0.12203716203E+02  0.43798763626E+02 -0.56401446951E+02  0.72445742473E+02  0.00000000000E+00 0. -1.
         13    1    3    3    0    0 -0.12203716203E+02 -0.43798763626E+02 -0.87837530600E+02  0.98907503084E+02  0.00000000000E+00 0.  1.
<mgrwt>
<rscale>  0 0.92504336E+02</rscale>
<asrwt>0</asrwt>
<pdfrwt beam="1">  1        2 0.20857128E-02 0.92504336E+02</pdfrwt>
<pdfrwt beam="2">  1       -2 0.24276326E-01 0.92504336E+02</pdfrwt>
<totfact> 0.66091411E+04</totfact>
</mgrwt>
</event>
<event>
 5    1  0.1197825E+001  0.9043968E+02  0.7546771E-02  0.1301790E+00
          2   -1    0    0  501    0  0.00000000000E+00  0.00000000000E+00  0.90841720622E+02  0.90841720622E+02  0.00000000000E+00 0. -1.
         -2   -1    0    0    0  501 -0.00000000000E+00 -0.00000000000E+00 -0.22509852781E+02  0.22509852781E+02  0.00000000000E+00 0.  1.
         23    2    1    2    0    0  0.00000000000E+00  0.00000000000E+00  0.68331867841E+02  0.11335157340E+03  0.90439676195E+02 0.  0.
        -13    1    3    3    0    0  0.12561325534E+02 -0.15217915625E+02 -0.16829131048E+02  0.25934369222E+02  0.00000000000E+00 0.  1.
         13    1    3    3    0    0 -0.12561325534E+02  0.15217915625E+02  0.85160998888E+02  0.87417204181E+02  0.00000000000E+00 0. -1.
<mgrwt>
<rscale>  0 0.90439676E+02</rscale>
<asrwt>0</asrwt>
<pdfrwt beam="1">  1        2 0.13975649E-01 0.90439676E+02</pdfrwt>
<pdfrwt beam="2">  1       -2 0.34630543E-02 0.90439676E+02</pdfrwt>
<totfact> 0.12188740E+05</totfact>
</mgrwt>
</event>
<event>
 5    1  0.1197825E+001  0.9109611E+02  0.7546771E-02  0.1300219E+00
         -1   -1    0    0    0  501 -0.00000000000E+00  0.00000000000E+00  0.25404724945E+02  0.25404724945E+02  0.00000000000E+00 0.  1.
          1   -1    0    0  501    0  0.00000000000E+00 -0.00000000000E+00 -0.81662978504E+02  0.81662978504E+02  0.00000000000E+00 0. -1.
         23    2    1    2    0    0  0.00000000000E+00  0.00000000000E+00 -0.56258253559E+02  0.10706770345E+03  0.91096114234E+02 0.  0.
        -13    1    3    3    0    0  0.22534338083E+00 -0.27864292655E+02  0.14217816247E+02  0.31282836886E+02  0.00000000000E+00 0.  1.
         13    1    3    3    0    0 -0.22534338083E+00  0.27864292655E+02 -0.70476069806E+02  0.75784866564E+02  0.00000000000E+00 0. -1.
<mgrwt>
<rscale>  0 0.91096114E+02</rscale>
<asrwt>0</asrwt>
<pdfrwt beam="2">  1        1 0.12563535E-01 0.91096114E+02</pdfrwt>
<pdfrwt beam="1">  1       -1 0.39084192E-02 0.91096114E+02</pdfrwt>
<totfact> 0.10131864E+05</totfact>
</mgrwt>
</event>
<event>
 5    1  0.1197825E+001  0.9261191E+02  0.7546771E-02  0.1296647E+00
          2   -1    0    0  501    0  0.00000000000E+00  0.00000000000E+00  0.60875610561E+01  0.60875610561E+01  0.00000000000E+00 0. -1.
         -2   -1    0    0    0  501 -0.00000000000E+00 -0.00000000000E+00 -0.35223322634E+03  0.35223322634E+03  0.00000000000E+00 0.  1.
         23    2    1    2    0    0  0.00000000000E+00  0.00000000000E+00 -0.34614566528E+03  0.35832078740E+03  0.92611905743E+02 0.  0.
        -13    1    3    3    0    0 -0.43850817945E+02  0.14177692758E+02 -0.15562339842E+03  0.16230386114E+03  0.00000000000E+00 0.  1.
         13    1    3    3    0    0  0.43850817945E+02 -0.14177692758E+02 -0.19052226687E+03  0.19601692626E+03  0.00000000000E+00 0. -1.
<mgrwt>
<rscale>  0 0.92611906E+02</rscale>
<asrwt>0</asrwt>
<pdfrwt beam="1">  1        2 0.93654803E-03 0.92611906E+02</pdfrwt>
<pdfrwt beam="2">  1       -2 0.54189717E-01 0.92611906E+02</pdfrwt>
<totfact> 0.44537999E+04</totfact>
</mgrwt>
</event>
<event>
 5    1  0.1197825E+001  0.8933163E+02  0.7546771E-02  0.1304478E+00
          2   -1    0    0  501    0  0.00000000000E+00  0.00000000000E+00  0.16220554555E+02  0.16220554555E+02  0.00000000000E+00 0.  1.
         -2   -1    0    0    0  501 -0.00000000000E+00 -0.00000000000E+00 -0.12299424824E+03  0.12299424824E+03  0.00000000000E+00 0. -1.
         23    2    1    2    0    0  0.00000000000E+00  0.00000000000E+00 -0.10677369369E+03  0.13921480280E+03  0.89331627402E+02 0.  0.
        -13    1    3    3    0    0  0.90512614334E+01  0.40486820881E+02 -0.27594104256E+02  0.49825120053E+02  0.00000000000E+00 0.  1.
         13    1    3    3    0    0 -0.90512614334E+01 -0.40486820881E+02 -0.79179589430E+02  0.89389682743E+02  0.00000000000E+00 0. -1.
<mgrwt>
<rscale>  0 0.89331627E+02</rscale>
<asrwt>0</asrwt>
<pdfrwt beam="1">  1        2 0.24954700E-02 0.89331627E+02</pdfrwt>
<pdfrwt beam="2">  1       -2 0.18922192E-01 0.89331627E+02</pdfrwt>
<totfact> 0.78753671E+04</totfact>
</mgrwt>
</event>
<event>
 5    1  0.1197825E+001  0.7904693E+02  0.7546771E-02  0.1331778E+00
          1   -1    0    0  501    0  0.00000000000E+00  0.00000000000E+00  0.11833741796E+03  0.11833741796E+03  0.00000000000E+00 0. -1.
         -1   -1    0    0    0  501 -0.00000000000E+00 -0.00000000000E+00 -0.13200424201E+02  0.13200424201E+02  0.00000000000E+00 0.  1.
         23    2    1    2    0    0  0.00000000000E+00  0.00000000000E+00  0.10513699376E+03  0.13153784216E+03  0.79046925708E+02 0.  0.
        -11    1    3    3    0    0 -0.31925996701E+02  0.23269983860E+02  0.54496712122E+02  0.67310125882E+02  0.00000000000E+00 0.  1.
         11    1    3    3    0    0  0.31925996701E+02 -0.23269983860E+02  0.50640281639E+02  0.64227716281E+02  0.00000000000E+00 0. -1.
<mgrwt>
<rscale>  0 0.79046926E+02</rscale>
<asrwt>0</asrwt>
<pdfrwt beam="1">  1        1 0.18205756E-01 0.79046926E+02</pdfrwt>
<pdfrwt beam="2">  1       -1 0.20308346E-02 0.79046926E+02</pdfrwt>
<totfact> 0.15775667E+05</totfact>
</mgrwt>
</event>
<event>
 5    1  0.1197825E+001  0.9160332E+02  0.7546771E-02  0.1299015E+00
          2   -1    0    0  501    0  0.00000000000E+00  0.00000000000E+00  0.39439266113E+01  0.39439266113E+01  0.00000000000E+00 0. -1.
         -2   -1    0    0    0  501 -0.00000000000E+00 -0.00000000000E+00 -0.53190447559E+03  0.53190447559E+03  0.00000000000E+00 0.  1.
         23    2    1    2    0    0  0.00000000000E+00  0.00000000000E+00 -0.52796054898E+03  0.53584840220E+03  0.91603323432E+02 0.  0.
        -13    1    3    3    0    0  0.33805416353E+01  0.45632438960E+02 -0.25221580926E+03  0.25633291242E+03  0.00000000000E+00 0.  1.
         13    1    3    3    0    0 -0.33805416353E+01 -0.45632438960E+02 -0.27574473972E+03  0.27951548978E+03  0.00000000000E+00 0. -1.
<mgrwt>
<rscale>  0 0.91603323E+02</rscale>
<asrwt>0</asrwt>
<pdfrwt beam="1">  1        2 0.60675833E-03 0.91603323E+02</pdfrwt>
<pdfrwt beam="2">  1       -2 0.81831405E-01 0.91603323E+02</pdfrwt>
<totfact> 0.34152179E+04</totfact>
</mgrwt>
</event>
<event>
 5    1  0.1197825E+001  0.9221172E+02  0.7546771E-02  0.1297582E+00
         -4   -1    0    0    0  501 -0.00000000000E+00  0.00000000000E+00  0.86039728930E+02  0.86039728930E+02  0.00000000000E+00 0.  1.
          4   -1    0    0  501    0  0.00000000000E+00 -0.00000000000E+00 -0.24706613109E+02  0.24706613109E+02  0.00000000000E+00 0. -1.
         23    2    1    2    0    0  0.00000000000E+00  0.00000000000E+00  0.61333115821E+02  0.11074634204E+03  0.92211719314E+02 0.  0.
        -13    1    3    3    0    0  0.49153233991E+01 -0.14197747240E+02 -0.21684041135E+02  0.26380562366E+02  0.00000000000E+00 0. -1.
         13    1    3    3    0    0 -0.49153233991E+01  0.14197747240E+02  0.83017156956E+02  0.84365779673E+02  0.00000000000E+00 0.  1.
<mgrwt>
<rscale>  0 0.92211719E+02</rscale>
<asrwt>0</asrwt>
<pdfrwt beam="2">  1        4 0.38010174E-02 0.92211719E+02</pdfrwt>
<pdfrwt beam="1">  1       -4 0.13236881E-01 0.92211719E+02</pdfrwt>
<totfact> 0.25030426E+04</totfact>
</mgrwt>
</event>
<event>
 5    1  0.1197825E+001  0.9103792E+02  0.7546771E-02  0.1300358E+00
          1   -1    0    0  501    0  0.00000000000E+00  0.00000000000E+00  0.10093503998E+03  0.10093503998E+03  0.00000000000E+00 0. -1.
         -1   -1    0    0    0  501 -0.00000000000E+00 -0.00000000000E+00 -0.20527813381E+02  0.20527813381E+02  0.00000000000E+00 0.  1.
         23    2    1    2    0    0  0.00000000000E+00  0.00000000000E+00  0.80407226598E+02  0.12146285336E+03  0.91037918789E+02 0.  0.
        -11    1    3    3    0    0 -0.22593990060E+02  0.12460230812E+02  0.90235781774E+02  0.93852235194E+02  0.00000000000E+00 0. -1.
         11    1    3    3    0    0  0.22593990060E+02 -0.12460230812E+02 -0.98285551756E+01  0.27610618166E+02  0.00000000000E+00 0.  1.
<mgrwt>
<rscale>  0 0.91037919E+02</rscale>
<asrwt>0</asrwt>
<pdfrwt beam="1">  1        1 0.15528467E-01 0.91037919E+02</pdfrwt>
<pdfrwt beam="2">  1       -1 0.31581252E-02 0.91037919E+02</pdfrwt>
<totfact> 0.10504968E+05</totfact>
</mgrwt>
</event>
<event>
 5    1  0.1197825E+001  0.9139333E+02  0.7546771E-02  0.1299512E+00
          4   -1    0    0  501    0  0.00000000000E+00  0.00000000000E+00  0.26532132007E+02  0.26532132007E+02  0.00000000000E+00 0. -1.
         -4   -1    0    0    0  501 -0.00000000000E+00 -0.00000000000E+00 -0.78704018514E+02  0.78704018514E+02  0.00000000000E+00 0.  1.
         23    2    1    2    0    0  0.00000000000E+00  0.00000000000E+00 -0.52171886507E+02  0.10523615052E+03  0.91393334739E+02 0.  0.
        -13    1    3    3    0    0  0.31669783531E+01 -0.45572689197E+02 -0.24780335155E+02  0.51970806834E+02  0.00000000000E+00 0.  1.
         13    1    3    3    0    0 -0.31669783531E+01  0.45572689197E+02 -0.27391551352E+02  0.53265343687E+02  0.00000000000E+00 0. -1.
<mgrwt>
<rscale>  0 0.91393335E+02</rscale>
<asrwt>0</asrwt>
<pdfrwt beam="1">  1        4 0.40818665E-02 0.91393335E+02</pdfrwt>
<pdfrwt beam="2">  1       -4 0.12108310E-01 0.91393335E+02</pdfrwt>
<totfact> 0.25970285E+04</totfact>
</mgrwt>
</event>
<event>
 5    1  0.1197825E+001  0.9126781E+02  0.7546771E-02  0.1299810E+00
         -1   -1    0    0    0  501 -0.00000000000E+00  0.00000000000E+00  0.73616005081E+02  0.73616005081E+02  0.00000000000E+00 0.  1.
          1   -1    0    0  501    0  0.00000000000E+00 -0.00000000000E+00 -0.28288048037E+02  0.28288048037E+02  0.00000000000E+00 0. -1.
         23    2    1    2    0    0  0.00000000000E+00  0.00000000000E+00  0.45327957044E+02  0.10190405312E+03  0.91267805671E+02 0.  0.
        -13    1    3    3    0    0  0.31728382387E+02 -0.13739763815E+01 -0.13925036683E+02  0.34676861256E+02  0.00000000000E+00 0. -1.
         13    1    3    3    0    0 -0.31728382387E+02  0.13739763815E+01  0.59252993727E+02  0.67227191861E+02  0.00000000000E+00 0.  1.
<mgrwt>
<rscale>  0 0.91267806E+02</rscale>
<asrwt>0</asrwt>
<pdfrwt beam="2">  1        1 0.43520074E-02 0.91267806E+02</pdfrwt>
<pdfrwt beam="1">  1       -1 0.11325539E-01 0.91267806E+02</pdfrwt>
<totfact> 0.85613285E+04</totfact>
</mgrwt>
</event>
<event>
 5    1  0.1197825E+001  0.9083767E+02  0.7546771E-02  0.1300836E+00
          2   -1    0    0  501    0  0.00000000000E+00  0.00000000000E+00  0.44435899719E+03  0.44435899719E+03  0.00000000000E+00 0. -1.
         -2   -1    0    0    0  501 -0.00000000000E+00 -0.00000000000E+00 -0.46423512269E+01  0.46423512269E+01  0.00000000000E+00 0.  1.
         23    2    1    2    0    0  0.00000000000E+00  0.00000000000E+00  0.43971664597E+03  0.44900134842E+03  0.90837669187E+02 0.  0.
        -11    1    3    3    0    0 -0.52249560715E+01 -0.45117018328E+02  0.21907635869E+03  0.22373487982E+03  0.00000000000E+00 0. -1.
         11    1    3    3    0    0  0.52249560715E+01  0.45117018328E+02  0.22064028728E+03  0.22526646860E+03  0.00000000000E+00 0.  1.
<mgrwt>
<rscale>  0 0.90837669E+02</rscale>
<asrwt>0</asrwt>
<pdfrwt beam="1">  1        2 0.68362889E-01 0.90837669E+02</pdfrwt>
<pdfrwt beam="2">  1       -2 0.71420823E-03 0.90837669E+02</pdfrwt>
<totfact> 0.20919604E+05</totfact>
</mgrwt>
</event>
<event>
 5    1  0.1197825E+001  0.9133503E+02  0.7546771E-02  0.1299651E+00
         -3   -1    0    0    0  501 -0.00000000000E+00  0.00000000000E+00  0.20323485403E+02  0.20323485403E+02  0.00000000000E+00 0.  1.
          3   -1    0    0  501    0  0.00000000000E+00 -0.00000000000E+00 -0.10261634150E+03  0.10261634150E+03  0.00000000000E+00 0. -1.
         23    2    1    2    0    0  0.00000000000E+00  0.00000000000E+00 -0.82292856101E+02  0.12293982691E+03  0.91335025453E+02 0.  0.
        -11    1    3    3    0    0  0.22852760505E+02  0.31945445605E+02 -0.97876028270E+01  0.40479097405E+02  0.00000000000E+00 0.  1.
         11    1    3    3    0    0 -0.22852760505E+02 -0.31945445605E+02 -0.72505253274E+02  0.82460729502E+02  0.00000000000E+00 0. -1.
<mgrwt>
<rscale>  0 0.91335025E+02</rscale>
<asrwt>0</asrwt>
<pdfrwt beam="2">  1        3 0.15787129E-01 0.91335025E+02</pdfrwt>
<pdfrwt beam="1">  1       -3 0.31266901E-02 0.91335025E+02</pdfrwt>
<totfact> 0.32890976E+04</totfact>
</mgrwt>
</event>
<event>
 5    1  0.1197825E+001  0.8934198E+02  0.7546771E-02  0.1304453E+00
          2   -1    0    0  501    0  0.00000000000E+00  0.00000000000E+00  0.91945128017E+02  0.91945128017E+02  0.00000000000E+00 0. -1.
         -2   -1    0    0    0  501 -0.00000000000E+00 -0.00000000000E+00 -0.21703130649E+02  0.21703130649E+02  0.00000000000E+00 0.  1.
         23    2    1    2    0    0  0.00000000000E+00  0.00000000000E+00  0.70241997367E+02  0.11364825867E+03  0.89341975038E+02 0.  0.
        -13    1    3    3    0    0 -0.21204382423E+00 -0.15060430899E+02 -0.18375630267E+02  0.23759741774E+02  0.00000000000E+00 0.  1.
         13    1    3    3    0    0  0.21204382423E+00  0.15060430899E+02  0.88617627635E+02  0.89888516892E+02  0.00000000000E+00 0. -1.
<mgrwt>
<rscale>  0 0.89341975E+02</rscale>
<asrwt>0</asrwt>
<pdfrwt beam="1">  1        2 0.14145404E-01 0.89341975E+02</pdfrwt>
<pdfrwt beam="2">  1       -2 0.33389432E-02 0.89341975E+02</pdfrwt>
<totfact> 0.12650754E+05</totfact>
</mgrwt>
</event>
<event>
 5    1  0.1197825E+001  0.7681451E+02  0.7546771E-02  0.1338342E+00
          1   -1    0    0  501    0  0.00000000000E+00  0.00000000000E+00  0.16044201451E+02  0.16044201451E+02  0.00000000000E+00 0. -1.
         -1   -1    0    0    0  501 -0.00000000000E+00 -0.00000000000E+00 -0.91940837525E+02  0.91940837525E+02  0.00000000000E+00 0.  1.
         23    2    1    2    0    0  0.00000000000E+00  0.00000000000E+00 -0.75896636074E+02  0.10798503898E+03  0.76814512139E+02 0.  0.
        -11    1    3    3    0    0 -0.21004346425E+02  0.17052737964E+02  0.37431177024E+00  0.27057689298E+02  0.00000000000E+00 0. -1.
         11    1    3    3    0    0  0.21004346425E+02 -0.17052737964E+02 -0.76270947844E+02  0.80927349678E+02  0.00000000000E+00 0.  1.
<mgrwt>
<rscale>  0 0.76814512E+02</rscale>
<asrwt>0</asrwt>
<pdfrwt beam="1">  1        1 0.24683386E-02 0.76814512E+02</pdfrwt>
<pdfrwt beam="2">  1       -1 0.14144744E-01 0.76814512E+02</pdfrwt>
<totfact> 0.12816181E+05</totfact>
</mgrwt>
</event>
<event>
 5    1  0.1197825E+001  0.9777505E+02  0.7546771E-02  0.1285046E+00
         -4   -1    0    0    0  501 -0.00000000000E+00  0.00000000000E+00  0.11068364532E+03  0.11068364532E+03  0.00000000000E+00 0. -1.
          4   -1    0    0  501    0  0.00000000000E+00 -0.00000000000E+00 -0.21592984670E+02  0.21592984670E+02  0.00000000000E+00 0.  1.
         23    2    1    2    0    0  0.00000000000E+00  0.00000000000E+00  0.89090660651E+02  0.13227662999E+03  0.97775053192E+02 0.  0.
        -11    1    3    3    0    0  0.21132593717E+02  0.31190094843E+02  0.86692762016E+02  0.94525359134E+02  0.00000000000E+00 0. -1.
         11    1    3    3    0    0 -0.21132593717E+02 -0.31190094843E+02  0.23978986353E+01  0.37751270858E+02  0.00000000000E+00 0.  1.
<mgrwt>
<rscale>  0 0.97775053E+02</rscale>
<asrwt>0</asrwt>
<pdfrwt beam="2">  1        4 0.33219977E-02 0.97775053E+02</pdfrwt>
<pdfrwt beam="1">  1       -4 0.17028253E-01 0.97775053E+02</pdfrwt>
<totfact> 0.20346147E+04</totfact>
</mgrwt>
</event>
<event>
 5    1  0.1197825E+001  0.9185441E+02  0.7546771E-02  0.1298422E+00
         -4   -1    0    0    0  501 -0.00000000000E+00  0.00000000000E+00  0.16701528757E+02  0.16701528757E+02  0.00000000000E+00 0.  1.
          4   -1    0    0  501    0  0.00000000000E+00 -0.00000000000E+00 -0.12629432423E+03  0.12629432423E+03  0.00000000000E+00 0. -1.
         23    2    1    2    0    0  0.00000000000E+00  0.00000000000E+00 -0.10959279548E+03  0.14299585299E+03  0.91854412807E+02 0.  0.
        -13    1    3    3    0    0  0.15546839848E+02 -0.12293234999E+02  0.97010970199E+01  0.22066697519E+02  0.00000000000E+00 0.  1.
         13    1    3    3    0    0 -0.15546839848E+02  0.12293234999E+02 -0.11929389250E+03  0.12092915547E+03  0.00000000000E+00 0. -1.
<mgrwt>
<rscale>  0 0.91854413E+02</rscale>
<asrwt>0</asrwt>
<pdfrwt beam="2">  1        4 0.19429895E-01 0.91854413E+02</pdfrwt>
<pdfrwt beam="1">  1       -4 0.25694660E-02 0.91854413E+02</pdfrwt>
<totfact> 0.23554151E+04</totfact>
</mgrwt>
</event>
<event>
 5    1  0.1197825E+001  0.9233081E+02  0.7546771E-02  0.1297303E+00
         -3   -1    0    0    0  501 -0.00000000000E+00  0.00000000000E+00  0.78387599099E+01  0.78387599099E+01  0.00000000000E+00 0.  1.
          3   -1    0    0  501    0  0.00000000000E+00 -0.00000000000E+00 -0.27188545693E+03  0.27188545693E+03  0.00000000000E+00 0. -1.
         23    2    1    2    0    0  0.00000000000E+00  0.00000000000E+00 -0.26404669702E+03  0.27972421684E+03  0.92330814355E+02 0.  0.
        -11    1    3    3    0    0  0.39934923462E+02 -0.23156542929E+02 -0.13059838765E+03  0.13851701141E+03  0.00000000000E+00 0.  1.
         11    1    3    3    0    0 -0.39934923462E+02  0.23156542929E+02 -0.13344830937E+03  0.14120720543E+03  0.00000000000E+00 0. -1.
<mgrwt>
<rscale>  0 0.92330814E+02</rscale>
<asrwt>0</asrwt>
<pdfrwt beam="2">  1        3 0.41828532E-01 0.92330814E+02</pdfrwt>
<pdfrwt beam="1">  1       -3 0.12059631E-02 0.92330814E+02</pdfrwt>
<totfact> 0.24010654E+04</totfact>
</mgrwt>
</event>
<event>
 5    1  0.1197825E+001  0.9083031E+02  0.7546771E-02  0.1300853E+00
         -1   -1    0    0    0  501 -0.00000000000E+00  0.00000000000E+00  0.12475089215E+02  0.12475089215E+02  0.00000000000E+00 0.  1.
          1   -1    0    0  501    0  0.00000000000E+00 -0.00000000000E+00 -0.16533237583E+03  0.16533237583E+03  0.00000000000E+00 0. -1.
         23    2    1    2    0    0  0.00000000000E+00  0.00000000000E+00 -0.15285728662E+03  0.17780746505E+03  0.90830306365E+02 0.  0.
        -13    1    3    3    0    0 -0.44933165370E+02 -0.65886764316E+01 -0.77150911130E+02  0.89524650770E+02  0.00000000000E+00 0. -1.
         13    1    3    3    0    0  0.44933165370E+02  0.65886764316E+01 -0.75706375488E+02  0.88282814278E+02  0.00000000000E+00 0.  1.
<mgrwt>
<rscale>  0 0.90830306E+02</rscale>
<asrwt>0</asrwt>
<pdfrwt beam="2">  1        1 0.25435748E-01 0.90830306E+02</pdfrwt>
<pdfrwt beam="1">  1       -1 0.19192446E-02 0.90830306E+02</pdfrwt>
<totfact> 0.11535285E+05</totfact>
</mgrwt>
</event>
<event>
 5    1  0.1197825E+001  0.1018341E+03  0.7546771E-02  0.1276486E+00
          1   -1    0    0  501    0  0.00000000000E+00  0.00000000000E+00  0.30065060881E+02  0.30065060881E+02  0.00000000000E+00 0. -1.
         -1   -1    0    0    0  501 -0.00000000000E+00 -0.00000000000E+00 -0.86231223210E+02  0.86231223210E+02  0.00000000000E+00 0.  1.
         23    2    1    2    0    0  0.00000000000E+00  0.00000000000E+00 -0.56166162330E+02  0.11629628409E+03  0.10183411954E+03 0.  0.
        -13    1    3    3    0    0 -0.12932616650E+01 -0.33518828221E+02 -0.71829373317E+02  0.79275741827E+02  0.00000000000E+00 0.  1.
         13    1    3    3    0    0  0.12932616650E+01  0.33518828221E+02  0.15663210988E+02  0.37020542264E+02  0.00000000000E+00 0. -1.
<mgrwt>
<rscale>  0 0.10183412E+03</rscale>
<asrwt>0</asrwt>
<pdfrwt beam="1">  1        1 0.46253940E-02 0.10183412E+03</pdfrwt>
<pdfrwt beam="2">  1       -1 0.13266342E-01 0.10183412E+03</pdfrwt>
<totfact> 0.62902058E+04</totfact>
</mgrwt>
</event>
<event>
 5    1  0.1197825E+001  0.9503405E+02  0.7546771E-02  0.1291099E+00
          2   -1    0    0  501    0  0.00000000000E+00  0.00000000000E+00  0.20788675650E+03  0.20788675650E+03  0.00000000000E+00 0.  1.
         -2   -1    0    0    0  501 -0.00000000000E+00 -0.00000000000E+00 -0.10861046863E+02  0.10861046863E+02  0.00000000000E+00 0. -1.
         23    2    1    2    0    0  0.00000000000E+00  0.00000000000E+00  0.19702570963E+03  0.21874780336E+03  0.95034052937E+02 0.  0.
        -13    1    3    3    0    0  0.20009355618E+02  0.41844539886E+02  0.12227011112E+03  0.13077201499E+03  0.00000000000E+00 0.  1.
         13    1    3    3    0    0 -0.20009355618E+02 -0.41844539886E+02  0.74755598515E+02  0.87975788373E+02  0.00000000000E+00 0. -1.
<mgrwt>
<rscale>  0 0.95034053E+02</rscale>
<asrwt>0</asrwt>
<pdfrwt beam="1">  1        2 0.31982575E-01 0.95034053E+02</pdfrwt>
<pdfrwt beam="2">  1       -2 0.16709304E-02 0.95034053E+02</pdfrwt>
<totfact> 0.14027158E+05</totfact>
</mgrwt>
</event>
<event>
 5    1  0.1197825E+001  0.9451254E+02  0.7546771E-02  0.1292278E+00
          1   -1    0    0  501    0  0.00000000000E+00  0.00000000000E+00  0.11214705819E+02  0.11214705819E+02  0.00000000000E+00 0. -1.
         -1   -1    0    0    0  501 -0.00000000000E+00 -0.00000000000E+00 -0.19912739680E+03  0.19912739680E+03  0.00000000000E+00 0.  1.
         23    2    1    2    0    0  0.00000000000E+00  0.00000000000E+00 -0.18791269098E+03  0.21034210262E+03  0.94512542569E+02 0.  0.
        -13    1    3    3    0    0  0.30267834807E+02  0.34278475356E+02 -0.12047674974E+03  0.12886350502E+03  0.00000000000E+00 0.  1.
         13    1    3    3    0    0 -0.30267834807E+02 -0.34278475356E+02 -0.67435941239E+02  0.81478597604E+02  0.00000000000E+00 0. -1.
<mgrwt>
<rscale>  0 0.94512543E+02</rscale>
<asrwt>0</asrwt>
<pdfrwt beam="1">  1        1 0.17253396E-02 0.94512543E+02</pdfrwt>
<pdfrwt beam="2">  1       -1 0.30634981E-01 0.94512543E+02</pdfrwt>
<totfact> 0.63288916E+04</totfact>
</mgrwt>
</event>
<event>
 5    1  0.1197825E+001  0.9106144E+02  0.7546771E-02  0.1300301E+00
          1   -1    0    0  501    0  0.00000000000E+00  0.00000000000E+00  0.20238165668E+03  0.20238165668E+03  0.00000000000E+00 0. -1.
         -1   -1    0    0    0  501 -0.00000000000E+00 -0.00000000000E+00 -0.10243253531E+02  0.10243253531E+02  0.00000000000E+00 0.  1.
         23    2    1    2    0    0  0.00000000000E+00  0.00000000000E+00  0.19213840315E+03  0.21262491021E+03  0.91061443421E+02 0.  0.
        -13    1    3    3    0    0  0.33953939808E+02  0.60551935431E+01  0.16547338489E+03  0.16902951371E+03  0.00000000000E+00 0. -1.
         13    1    3    3    0    0 -0.33953939808E+02 -0.60551935431E+01  0.26665018251E+02  0.43595396497E+02  0.00000000000E+00 0.  1.
<mgrwt>
<rscale>  0 0.91061443E+02</rscale>
<asrwt>0</asrwt>
<pdfrwt beam="1">  1        1 0.31135637E-01 0.91061443E+02</pdfrwt>
<pdfrwt beam="2">  1       -1 0.15758853E-02 0.91061443E+02</pdfrwt>
<totfact> 0.11908230E+05</totfact>
</mgrwt>
</event>
<event>
 5    1  0.1197825E+001  0.9418863E+02  0.7546771E-02  0.1293014E+00
         -2   -1    0    0    0  501 -0.00000000000E+00  0.00000000000E+00  0.11999953232E+03  0.11999953232E+03  0.00000000000E+00 0.  1.
          2   -1    0    0  501    0  0.00000000000E+00 -0.00000000000E+00 -0.18482358201E+02  0.18482358201E+02  0.00000000000E+00 0. -1.
         23    2    1    2    0    0  0.00000000000E+00  0.00000000000E+00  0.10151717412E+03  0.13848189052E+03  0.94188626496E+02 0.  0.
        -11    1    3    3    0    0 -0.36525651456E+02 -0.28366463486E+02  0.37682774306E+02  0.59655435162E+02  0.00000000000E+00 0. -1.
         11    1    3    3    0    0  0.36525651456E+02  0.28366463486E+02  0.63834399815E+02  0.78826455361E+02  0.00000000000E+00 0.  1.
<mgrwt>
<rscale>  0 0.94188626E+02</rscale>
<asrwt>0</asrwt>
<pdfrwt beam="2">  1        2 0.28434398E-02 0.94188626E+02</pdfrwt>
<pdfrwt beam="1">  1       -2 0.18461466E-01 0.94188626E+02</pdfrwt>
<totfact> 0.69505766E+04</totfact>
</mgrwt>
</event>
<event>
 5    1  0.1197825E+001  0.9089828E+02  0.7546771E-02  0.1300691E+00
         -1   -1    0    0    0  501 -0.00000000000E+00  0.00000000000E+00  0.17271566995E+02  0.17271566995E+02  0.00000000000E+00 0.  1.
          1   -1    0    0  501    0  0.00000000000E+00 -0.00000000000E+00 -0.11959681028E+03  0.11959681028E+03  0.00000000000E+00 0. -1.
         23    2    1    2    0    0  0.00000000000E+00  0.00000000000E+00 -0.10232524328E+03  0.13686837727E+03  0.90898279876E+02 0.  0.
        -13    1    3    3    0    0  0.38657748240E+02 -0.22737923719E+02 -0.62246853827E+02  0.76720958579E+02  0.00000000000E+00 0. -1.
         13    1    3    3    0    0 -0.38657748240E+02  0.22737923719E+02 -0.40078389458E+02  0.60147418694E+02  0.00000000000E+00 0.  1.
<mgrwt>
<rscale>  0 0.90898280E+02</rscale>
<asrwt>0</asrwt>
<pdfrwt beam="2">  1        1 0.18399508E-01 0.90898280E+02</pdfrwt>
<pdfrwt beam="1">  1       -1 0.26571643E-02 0.90898280E+02</pdfrwt>
<totfact> 0.10857303E+05</totfact>
</mgrwt>
</event>
<event>
 5    1  0.1197825E+001  0.9225798E+02  0.7546771E-02  0.1297474E+00
         -1   -1    0    0    0  501 -0.00000000000E+00  0.00000000000E+00  0.10888193839E+02  0.10888193839E+02  0.00000000000E+00 0.  1.
          1   -1    0    0  501    0  0.00000000000E+00 -0.00000000000E+00 -0.19543037243E+03  0.19543037243E+03  0.00000000000E+00 0. -1.
         23    2    1    2    0    0  0.00000000000E+00  0.00000000000E+00 -0.18454217859E+03  0.20631856626E+03  0.92257981270E+02 0.  0.
        -11    1    3    3    0    0  0.23603655303E+02  0.28763829330E+02 -0.31297227604E+02  0.48621053846E+02  0.00000000000E+00 0.  1.
         11    1    3    3    0    0 -0.23603655303E+02 -0.28763829330E+02 -0.15324495098E+03  0.15769751242E+03  0.00000000000E+00 0. -1.
<mgrwt>
<rscale>  0 0.92257981E+02</rscale>
<asrwt>0</asrwt>
<pdfrwt beam="2">  1        1 0.30066209E-01 0.92257981E+02</pdfrwt>
<pdfrwt beam="1">  1       -1 0.16751069E-02 0.92257981E+02</pdfrwt>
<totfact> 0.11420219E+05</totfact>
</mgrwt>
</event>
<event>
 5    1  0.1197825E+001  0.9365191E+02  0.7546771E-02  0.1294242E+00
          2   -1    0    0  501    0  0.00000000000E+00  0.00000000000E+00  0.23401586207E+03  0.23401586207E+03  0.00000000000E+00 0. -1.
         -2   -1    0    0    0  501 -0.00000000000E+00 -0.00000000000E+00 -0.93697493343E+01  0.93697493343E+01  0.00000000000E+00 0.  1.
         23    2    1    2    0    0  0.00000000000E+00  0.00000000000E+00  0.22464611274E+03  0.24338561141E+03  0.93651907997E+02 0.  0.
        -11    1    3    3    0    0  0.41747787998E+02 -0.49049039389E+01  0.58700504286E+02  0.72198927200E+02  0.00000000000E+00 0.  1.
         11    1    3    3    0    0 -0.41747787998E+02  0.49049039389E+01  0.16594560845E+03  0.17118668421E+03  0.00000000000E+00 0. -1.
<mgrwt>
<rscale>  0 0.93651908E+02</rscale>
<asrwt>0</asrwt>
<pdfrwt beam="1">  1        2 0.36002436E-01 0.93651908E+02</pdfrwt>
<pdfrwt beam="2">  1       -2 0.14415001E-02 0.93651908E+02</pdfrwt>
<totfact> 0.15243461E+05</totfact>
</mgrwt>
</event>
<event>
 5    1  0.1197825E+001  0.9253324E+02  0.7546771E-02  0.1296830E+00
         -4   -1    0    0    0  501 -0.00000000000E+00  0.00000000000E+00  0.27829119742E+02  0.27829119742E+02  0.00000000000E+00 0.  1.
          4   -1    0    0  501    0  0.00000000000E+00 -0.00000000000E+00 -0.76919436836E+02  0.76919436836E+02  0.00000000000E+00 0. -1.
         23    2    1    2    0    0  0.00000000000E+00  0.00000000000E+00 -0.49090317094E+02  0.10474855658E+03  0.92533241988E+02 0.  0.
        -13    1    3    3    0    0  0.30531028439E+02  0.36130777403E+01 -0.63683939293E+02  0.70716632783E+02  0.00000000000E+00 0.  1.
         13    1    3    3    0    0 -0.30531028439E+02 -0.36130777403E+01  0.14593622199E+02  0.34031923795E+02  0.00000000000E+00 0. -1.
<mgrwt>
<rscale>  0 0.92533242E+02</rscale>
<asrwt>0</asrwt>
<pdfrwt beam="2">  1        4 0.11833759E-01 0.92533242E+02</pdfrwt>
<pdfrwt beam="1">  1       -4 0.42814031E-02 0.92533242E+02</pdfrwt>
<totfact> 0.25138785E+04</totfact>
</mgrwt>
</event>
<event>
 5    1  0.1197825E+001  0.9124286E+02  0.7546771E-02  0.1299870E+00
          2   -1    0    0  501    0  0.00000000000E+00  0.00000000000E+00  0.75500059545E+02  0.75500059545E+02  0.00000000000E+00 0. -1.
         -2   -1    0    0    0  501 -0.00000000000E+00 -0.00000000000E+00 -0.27567063397E+02  0.27567063397E+02  0.00000000000E+00 0.  1.
         23    2    1    2    0    0  0.00000000000E+00  0.00000000000E+00  0.47932996148E+02  0.10306712294E+03  0.91242861156E+02 0.  0.
        -11    1    3    3    0    0  0.27756325455E+02 -0.20473761241E+02 -0.97651123865E+01  0.35846142359E+02  0.00000000000E+00 0.  1.
         11    1    3    3    0    0 -0.27756325455E+02  0.20473761241E+02  0.57698108534E+02  0.67220980583E+02  0.00000000000E+00 0. -1.
<mgrwt>
<rscale>  0 0.91242861E+02</rscale>
<asrwt>0</asrwt>
<pdfrwt beam="1">  1        2 0.11615394E-01 0.91242861E+02</pdfrwt>
<pdfrwt beam="2">  1       -2 0.42410867E-02 0.91242861E+02</pdfrwt>
<totfact> 0.11275524E+05</totfact>
</mgrwt>
</event>
<event>
 5    1  0.1197825E+001  0.9306684E+02  0.7546771E-02  0.1295590E+00
          1   -1    0    0  501    0  0.00000000000E+00  0.00000000000E+00  0.45395867582E+02  0.45395867582E+02  0.00000000000E+00 0. -1.
         -1   -1    0    0    0  501 -0.00000000000E+00 -0.00000000000E+00 -0.47699476015E+02  0.47699476015E+02  0.00000000000E+00 0.  1.
         23    2    1    2    0    0  0.00000000000E+00  0.00000000000E+00 -0.23036084327E+01  0.93095343597E+02  0.93066838281E+02 0.  0.
        -13    1    3    3    0    0 -0.20170269965E+02 -0.56205692891E+01 -0.42720861777E+02  0.47576282123E+02  0.00000000000E+00 0.  1.
         13    1    3    3    0    0  0.20170269965E+02  0.56205692891E+01  0.40417253345E+02  0.45519061475E+02  0.00000000000E+00 0. -1.
<mgrwt>
<rscale>  0 0.93066838E+02</rscale>
<asrwt>0</asrwt>
<pdfrwt beam="1">  1        1 0.69839796E-02 0.93066838E+02</pdfrwt>
<pdfrwt beam="2">  1       -1 0.73383809E-02 0.93066838E+02</pdfrwt>
<totfact> 0.87227478E+04</totfact>
</mgrwt>
</event>
<event>
 5    1  0.1197825E+001  0.8697981E+02  0.7546771E-02  0.1310335E+00
          1   -1    0    0  501    0  0.00000000000E+00  0.00000000000E+00  0.10530238312E+03  0.10530238312E+03  0.00000000000E+00 0. -1.
         -1   -1    0    0    0  501 -0.00000000000E+00 -0.00000000000E+00 -0.17961337355E+02  0.17961337355E+02  0.00000000000E+00 0.  1.
         23    2    1    2    0    0  0.00000000000E+00  0.00000000000E+00  0.87341045769E+02  0.12326372048E+03  0.86979805187E+02 0.  0.
        -13    1    3    3    0    0 -0.21872741340E+02 -0.37564170425E+02  0.45617711236E+02  0.63011580617E+02  0.00000000000E+00 0.  1.
         13    1    3    3    0    0  0.21872741340E+02  0.37564170425E+02  0.41723334534E+02  0.60252139863E+02  0.00000000000E+00 0. -1.
<mgrwt>
<rscale>  0 0.86979805E+02</rscale>
<asrwt>0</asrwt>
<pdfrwt beam="1">  1        1 0.16200366E-01 0.86979805E+02</pdfrwt>
<pdfrwt beam="2">  1       -1 0.27632827E-02 0.86979805E+02</pdfrwt>
<totfact> 0.11971935E+05</totfact>
</mgrwt>
</event>
<event>
 5    1  0.1197825E+001  0.9160312E+02  0.7546771E-02  0.1299015E+00
          2   -1    0    0  501    0  0.00000000000E+00  0.00000000000E+00  0.23115367904E+02  0.23115367904E+02  0.00000000000E+00 0. -1.
         -2   -1    0    0    0  501 -0.00000000000E+00 -0.00000000000E+00 -0.90752738226E+02  0.90752738226E+02  0.00000000000E+00 0.  1.
         23    2    1    2    0    0  0.00000000000E+00  0.00000000000E+00 -0.67637370322E+02  0.11386810613E+03  0.91603120742E+02 0.  0.
        -11    1    3    3    0    0 -0.42097994402E+02  0.11295980122E+02 -0.51307545080E+02  0.67322392128E+02  0.00000000000E+00 0.  1.
         11    1    3    3    0    0  0.42097994402E+02 -0.11295980122E+02 -0.16329825241E+02  0.46545714003E+02  0.00000000000E+00 0. -1.
<mgrwt>
<rscale>  0 0.91603121E+02</rscale>
<asrwt>0</asrwt>
<pdfrwt beam="1">  1        2 0.35562104E-02 0.91603121E+02</pdfrwt>
<pdfrwt beam="2">  1       -2 0.13961960E-01 0.91603121E+02</pdfrwt>
<totfact> 0.81164083E+04</totfact>
</mgrwt>
</event>
<event>
 5    1  0.1197825E+001  0.9133320E+02  0.7546771E-02  0.1299655E+00
          2   -1    0    0  501    0  0.00000000000E+00  0.00000000000E+00  0.17203464787E+03  0.17203464787E+03  0.00000000000E+00 0. -1.
         -2   -1    0    0    0  501 -0.00000000000E+00 -0.00000000000E+00 -0.12122198443E+02  0.12122198443E+02  0.00000000000E+00 0.  1.
         23    2    1    2    0    0  0.00000000000E+00  0.00000000000E+00  0.15991244943E+03  0.18415684631E+03  0.91333195290E+02 0.  0.
        -11    1    3    3    0    0 -0.37057213549E+02 -0.24506602559E+02  0.58653026523E+02  0.73579808136E+02  0.00000000000E+00 0. -1.
         11    1    3    3    0    0  0.37057213549E+02  0.24506602559E+02  0.10125942290E+03  0.11057703818E+03  0.00000000000E+00 0.  1.
<mgrwt>
<rscale>  0 0.91333195E+02</rscale>
<asrwt>0</asrwt>
<pdfrwt beam="1">  1        2 0.26466867E-01 0.91333195E+02</pdfrwt>
<pdfrwt beam="2">  1       -2 0.18649537E-02 0.91333195E+02</pdfrwt>
<totfact> 0.14590978E+05</totfact>
</mgrwt>
</event>
<event>
 5    1  0.1197825E+001  0.9188672E+02  0.7546771E-02  0.1298346E+00
          2   -1    0    0  501    0  0.00000000000E+00  0.00000000000E+00  0.54639110516E+02  0.54639110516E+02  0.00000000000E+00 0. -1.
         -2   -1    0    0    0  501 -0.00000000000E+00 -0.00000000000E+00 -0.38631528967E+02  0.38631528967E+02  0.00000000000E+00 0.  1.
         23    2    1    2    0    0  0.00000000000E+00  0.00000000000E+00  0.16007581548E+02  0.93270639483E+02  0.91886721144E+02 0.  0.
        -13    1    3    3    0    0  0.27471011317E+02 -0.27729261111E+02 -0.16593886369E+02  0.42413741280E+02  0.00000000000E+00 0.  1.
         13    1    3    3    0    0 -0.27471011317E+02  0.27729261111E+02  0.32601467918E+02  0.50856898204E+02  0.00000000000E+00 0. -1.
<mgrwt>
<rscale>  0 0.91886721E+02</rscale>
<asrwt>0</asrwt>
<pdfrwt beam="1">  1        2 0.84060170E-02 0.91886721E+02</pdfrwt>
<pdfrwt beam="2">  1       -2 0.59433121E-02 0.91886721E+02</pdfrwt>
<totfact> 0.10120596E+05</totfact>
</mgrwt>
</event>
<event>
 5    1  0.1197825E+001  0.8975377E+02  0.7546771E-02  0.1303449E+00
         -1   -1    0    0    0  501 -0.00000000000E+00  0.00000000000E+00  0.13405791569E+03  0.13405791569E+03  0.00000000000E+00 0.  1.
          1   -1    0    0  501    0  0.00000000000E+00 -0.00000000000E+00 -0.15022870022E+02  0.15022870022E+02  0.00000000000E+00 0. -1.
         23    2    1    2    0    0  0.00000000000E+00  0.00000000000E+00  0.11903504566E+03  0.14908078571E+03  0.89753766333E+02 0.  0.
        -13    1    3    3    0    0  0.17562870382E+02 -0.25570632578E+02  0.56534704091E+01  0.31532101011E+02  0.00000000000E+00 0. -1.
         13    1    3    3    0    0 -0.17562870382E+02  0.25570632578E+02  0.11338157526E+03  0.11754868470E+03  0.00000000000E+00 0.  1.
<mgrwt>
<rscale>  0 0.89753766E+02</rscale>
<asrwt>0</asrwt>
<pdfrwt beam="2">  1        1 0.23112109E-02 0.89753766E+02</pdfrwt>
<pdfrwt beam="1">  1       -1 0.20624294E-01 0.89753766E+02</pdfrwt>
<totfact> 0.79899962E+04</totfact>
</mgrwt>
</event>
<event>
 5    1  0.1197825E+001  0.9191454E+02  0.7546771E-02  0.1298280E+00
         -2   -1    0    0    0  501 -0.00000000000E+00  0.00000000000E+00  0.16425805967E+02  0.16425805967E+02  0.00000000000E+00 0.  1.
          2   -1    0    0  501    0  0.00000000000E+00 -0.00000000000E+00 -0.12858247189E+03  0.12858247189E+03  0.00000000000E+00 0. -1.
         23    2    1    2    0    0  0.00000000000E+00  0.00000000000E+00 -0.11215666593E+03  0.14500827786E+03  0.91914541484E+02 0.  0.
        -11    1    3    3    0    0 -0.31774696008E+02 -0.24655749778E+02 -0.20994551478E+02  0.45368584895E+02  0.00000000000E+00 0.  1.
         11    1    3    3    0    0  0.31774696008E+02  0.24655749778E+02 -0.91162114448E+02  0.99639692965E+02  0.00000000000E+00 0. -1.
<mgrwt>
<rscale>  0 0.91914541E+02</rscale>
<asrwt>0</asrwt>
<pdfrwt beam="2">  1        2 0.19781918E-01 0.91914541E+02</pdfrwt>
<pdfrwt beam="1">  1       -2 0.25270472E-02 0.91914541E+02</pdfrwt>
<totfact> 0.12991159E+05</totfact>
</mgrwt>
</event>
<event>
 5    1  0.1197825E+001  0.9819522E+02  0.7546771E-02  0.1284138E+00
          3   -1    0    0  501    0  0.00000000000E+00  0.00000000000E+00  0.11607532482E+02  0.11607532482E+02  0.00000000000E+00 0. -1.
         -3   -1    0    0    0  501 -0.00000000000E+00 -0.00000000000E+00 -0.20767337121E+03  0.20767337121E+03  0.00000000000E+00 0.  1.
         23    2    1    2    0    0  0.00000000000E+00  0.00000000000E+00 -0.19606583872E+03  0.21928090369E+03  0.98195221920E+02 0.  0.
        -13    1    3    3    0    0  0.43104794610E+02 -0.16221078065E+02 -0.13602396621E+03  0.14360942196E+03  0.00000000000E+00 0.  1.
         13    1    3    3    0    0 -0.43104794610E+02  0.16221078065E+02 -0.60041872509E+02  0.75671481724E+02  0.00000000000E+00 0. -1.
<mgrwt>
<rscale>  0 0.98195222E+02</rscale>
<asrwt>0</asrwt>
<pdfrwt beam="1">  1        3 0.17857742E-02 0.98195222E+02</pdfrwt>
<pdfrwt beam="2">  1       -3 0.31949751E-01 0.98195222E+02</pdfrwt>
<totfact> 0.22518020E+04</totfact>
</mgrwt>
</event>
<event>
 5    1  0.1197825E+001  0.9068741E+02  0.7546771E-02  0.1301196E+00
         -1   -1    0    0    0  501 -0.00000000000E+00  0.00000000000E+00  0.33166381271E+02  0.33166381271E+02  0.00000000000E+00 0.  1.
          1   -1    0    0  501    0  0.00000000000E+00 -0.00000000000E+00 -0.61992035134E+02  0.61992035134E+02  0.00000000000E+00 0. -1.
         23    2    1    2    0    0  0.00000000000E+00  0.00000000000E+00 -0.28825653863E+02  0.95158416405E+02  0.90687407572E+02 0.  0.
        -13    1    3    3    0    0  0.37396714952E+02  0.58769682551E+01 -0.40603321185E+02  0.55512906034E+02  0.00000000000E+00 0.  1.
         13    1    3    3    0    0 -0.37396714952E+02 -0.58769682551E+01  0.11777667322E+02  0.39645510371E+02  0.00000000000E+00 0. -1.
<mgrwt>
<rscale>  0 0.90687408E+02</rscale>
<asrwt>0</asrwt>
<pdfrwt beam="2">  1        1 0.95372360E-02 0.90687408E+02</pdfrwt>
<pdfrwt beam="1">  1       -1 0.51025203E-02 0.90687408E+02</pdfrwt>
<totfact> 0.98303333E+04</totfact>
</mgrwt>
</event>
<event>
 5    1  0.1197825E+001  0.9156963E+02  0.7546771E-02  0.1299095E+00
          1   -1    0    0  501    0  0.00000000000E+00  0.00000000000E+00  0.10809309183E+03  0.10809309183E+03  0.00000000000E+00 0. -1.
         -1   -1    0    0    0  501 -0.00000000000E+00 -0.00000000000E+00 -0.19392999794E+02  0.19392999794E+02  0.00000000000E+00 0.  1.
         23    2    1    2    0    0  0.00000000000E+00  0.00000000000E+00  0.88700092037E+02  0.12748609162E+03  0.91569630502E+02 0.  0.
        -13    1    3    3    0    0  0.44253491129E+02 -0.21931147827E+01  0.28289944458E+02  0.52569023074E+02  0.00000000000E+00 0.  1.
         13    1    3    3    0    0 -0.44253491129E+02  0.21931147827E+01  0.60410147579E+02  0.74917068550E+02  0.00000000000E+00 0. -1.
<mgrwt>
<rscale>  0 0.91569631E+02</rscale>
<asrwt>0</asrwt>
<pdfrwt beam="1">  1        1 0.16629706E-01 0.91569631E+02</pdfrwt>
<pdfrwt beam="2">  1       -1 0.29835385E-02 0.91569631E+02</pdfrwt>
<totfact> 0.10459339E+05</totfact>
</mgrwt>
</event>
<event>
 5    1  0.1197825E+001  0.9543191E+02  0.7546771E-02  0.1290206E+00
         -3   -1    0    0    0  501 -0.00000000000E+00  0.00000000000E+00  0.40020685162E+02  0.40020685162E+02  0.00000000000E+00 0.  1.
          3   -1    0    0  501    0  0.00000000000E+00 -0.00000000000E+00 -0.56890888863E+02  0.56890888863E+02  0.00000000000E+00 0. -1.
         23    2    1    2    0    0  0.00000000000E+00  0.00000000000E+00 -0.16870203701E+02  0.96911574025E+02  0.95431909795E+02 0.  0.
        -13    1    3    3    0    0 -0.39513530525E+02 -0.83592236339E+01  0.17367849830E+02  0.43964052611E+02  0.00000000000E+00 0.  1.
         13    1    3    3    0    0  0.39513530525E+02  0.83592236339E+01 -0.34238053531E+02  0.52947521414E+02  0.00000000000E+00 0. -1.
<mgrwt>
<rscale>  0 0.95431910E+02</rscale>
<asrwt>0</asrwt>
<pdfrwt beam="2">  1        3 0.87524445E-02 0.95431910E+02</pdfrwt>
<pdfrwt beam="1">  1       -3 0.61570285E-02 0.95431910E+02</pdfrwt>
<totfact> 0.30810988E+04</totfact>
</mgrwt>
</event>
<event>
 5    1  0.1197825E+001  0.9091140E+02  0.7546771E-02  0.1300659E+00
         -1   -1    0    0    0  501 -0.00000000000E+00  0.00000000000E+00  0.31068629908E+02  0.31068629908E+02  0.00000000000E+00 0.  1.
          1   -1    0    0  501    0  0.00000000000E+00 -0.00000000000E+00 -0.66505048180E+02  0.66505048180E+02  0.00000000000E+00 0. -1.
         23    2    1    2    0    0  0.00000000000E+00  0.00000000000E+00 -0.35436418272E+02  0.97573678088E+02  0.90911401462E+02 0.  0.
        -13    1    3    3    0    0  0.36214703431E+02 -0.82101911767E+01  0.10419598638E+02  0.38567862522E+02  0.00000000000E+00 0.  1.
         13    1    3    3    0    0 -0.36214703431E+02  0.82101911767E+01 -0.45856016911E+02  0.59005815566E+02  0.00000000000E+00 0. -1.
<mgrwt>
<rscale>  0 0.90911401E+02</rscale>
<asrwt>0</asrwt>
<pdfrwt beam="2">  1        1 0.10231546E-01 0.90911401E+02</pdfrwt>
<pdfrwt beam="1">  1       -1 0.47797893E-02 0.90911401E+02</pdfrwt>
<totfact> 0.98684706E+04</totfact>
</mgrwt>
</event>
<event>
 5    1  0.1197825E+001  0.9224388E+02  0.7546771E-02  0.1297507E+00
          1   -1    0    0  501    0  0.00000000000E+00  0.00000000000E+00  0.12450662763E+02  0.12450662763E+02  0.00000000000E+00 0. -1.
         -1   -1    0    0    0  501 -0.00000000000E+00 -0.00000000000E+00 -0.17085300942E+03  0.17085300942E+03  0.00000000000E+00 0.  1.
         23    2    1    2    0    0  0.00000000000E+00  0.00000000000E+00 -0.15840234666E+03  0.18330367218E+03  0.92243876812E+02 0.  0.
        -13    1    3    3    0    0 -0.38337919404E+02  0.32879130566E+00 -0.28253421332E+02  0.47625203253E+02  0.00000000000E+00 0. -1.
         13    1    3    3    0    0  0.38337919404E+02 -0.32879130566E+00 -0.13014892532E+03  0.13567846893E+03  0.00000000000E+00 0.  1.
<mgrwt>
<rscale>  0 0.92243877E+02</rscale>
<asrwt>0</asrwt>
<pdfrwt beam="1">  1        1 0.19154865E-02 0.92243877E+02</pdfrwt>
<pdfrwt beam="2">  1       -1 0.26285079E-01 0.92243877E+02</pdfrwt>
<totfact> 0.70284422E+04</totfact>
</mgrwt>
</event>
<event>
 5    1  0.1197825E+001  0.9017570E+02  0.7546771E-02  0.1302427E+00
         -2   -1    0    0    0  501 -0.00000000000E+00  0.00000000000E+00  0.67653454752E+02  0.67653454752E+02  0.00000000000E+00 0.  1.
          2   -1    0    0  501    0  0.00000000000E+00 -0.00000000000E+00 -0.30048937145E+02  0.30048937145E+02  0.00000000000E+00 0. -1.
         23    2    1    2    0    0  0.00000000000E+00  0.00000000000E+00  0.37604517608E+02  0.97702391897E+02  0.90175704255E+02 0.  0.
        -11    1    3    3    0    0  0.26937012964E+02  0.14309257349E+02 -0.17174013210E+02  0.35004346059E+02  0.00000000000E+00 0. -1.
         11    1    3    3    0    0 -0.26937012964E+02 -0.14309257349E+02  0.54778530818E+02  0.62698045838E+02  0.00000000000E+00 0.  1.
<mgrwt>
<rscale>  0 0.90175704E+02</rscale>
<asrwt>0</asrwt>
<pdfrwt beam="2">  1        2 0.46229134E-02 0.90175704E+02</pdfrwt>
<pdfrwt beam="1">  1       -2 0.10408224E-01 0.90175704E+02</pdfrwt>
<totfact> 0.91445963E+04</totfact>
</mgrwt>
</event>
<event>
 5    1  0.1197825E+001  0.9114377E+02  0.7546771E-02  0.1300105E+00
         -2   -1    0    0    0  501 -0.00000000000E+00  0.00000000000E+00  0.15384720004E+02  0.15384720004E+02  0.00000000000E+00 0.  1.
          2   -1    0    0  501    0  0.00000000000E+00 -0.00000000000E+00 -0.13499087208E+03  0.13499087208E+03  0.00000000000E+00 0. -1.
         23    2    1    2    0    0  0.00000000000E+00  0.00000000000E+00 -0.11960615207E+03  0.15037559208E+03  0.91143771484E+02 0.  0.
        -13    1    3    3    0    0  0.25244787188E+02 -0.50220233072E+01  0.22434626532E+01  0.25837049425E+02  0.00000000000E+00 0.  1.
         13    1    3    3    0    0 -0.25244787188E+02  0.50220233072E+01 -0.12184961473E+03  0.12453854266E+03  0.00000000000E+00 0. -1.
<mgrwt>
<rscale>  0 0.91143771E+02</rscale>
<asrwt>0</asrwt>
<pdfrwt beam="2">  1        2 0.20767827E-01 0.91143771E+02</pdfrwt>
<pdfrwt beam="1">  1       -2 0.23668799E-02 0.91143771E+02</pdfrwt>
<totfact> 0.13508005E+05</totfact>
</mgrwt>
</event>
<event>
 5    1  0.1197825E+001  0.9224186E+02  0.7546771E-02  0.1297512E+00
          2   -1    0    0  501    0  0.00000000000E+00  0.00000000000E+00  0.11513043182E+03  0.11513043182E+03  0.00000000000E+00 0. -1.
         -2   -1    0    0    0  501 -0.00000000000E+00 -0.00000000000E+00 -0.18475917326E+02  0.18475917326E+02  0.00000000000E+00 0.  1.
         23    2    1    2    0    0  0.00000000000E+00  0.00000000000E+00  0.96654514489E+02  0.13360634914E+03  0.92241863379E+02 0.  0.
        -13    1    3    3    0    0 -0.14107322886E+02 -0.28531269500E+02 -0.18598669573E-01  0.31828450233E+02  0.00000000000E+00 0.  1.
         13    1    3    3    0    0  0.14107322886E+02  0.28531269500E+02  0.96673113159E+02  0.10177789891E+03  0.00000000000E+00 0. -1.
<mgrwt>
<rscale>  0 0.92241863E+02</rscale>
<asrwt>0</asrwt>
<pdfrwt beam="1">  1        2 0.17712374E-01 0.92241863E+02</pdfrwt>
<pdfrwt beam="2">  1       -2 0.28424489E-02 0.92241863E+02</pdfrwt>
<totfact> 0.12414480E+05</totfact>
</mgrwt>
</event>
<event>
 5    1  0.1197825E+001  0.8603791E+02  0.7546771E-02  0.1312740E+00
         -1   -1    0    0    0  501 -0.00000000000E+00  0.00000000000E+00  0.19572408343E+02  0.19572408343E+02  0.00000000000E+00 0.  1.
          1   -1    0    0  501    0  0.00000000000E+00 -0.00000000000E+00 -0.94553020156E+02  0.94553020156E+02  0.00000000000E+00 0. -1.
         23    2    1    2    0    0  0.00000000000E+00  0.00000000000E+00 -0.74980611813E+02  0.11412542850E+03  0.86037906077E+02 0.  0.
        -11    1    3    3    0    0  0.14907727824E+02  0.39213081241E+02 -0.50124694703E+02  0.65363530416E+02  0.00000000000E+00 0.  1.
         11    1    3    3    0    0 -0.14907727824E+02 -0.39213081241E+02 -0.24855917109E+02  0.48761898083E+02  0.00000000000E+00 0. -1.
<mgrwt>
<rscale>  0 0.86037906E+02</rscale>
<asrwt>0</asrwt>
<pdfrwt beam="2">  1        1 0.14546619E-01 0.86037906E+02</pdfrwt>
<pdfrwt beam="1">  1       -1 0.30111397E-02 0.86037906E+02</pdfrwt>
<totfact> 0.12116578E+05</totfact>
</mgrwt>
</event>
<event>
 5    1  0.1197825E+001  0.9069863E+02  0.7546771E-02  0.1301169E+00
         -3   -1    0    0    0  501 -0.00000000000E+00  0.00000000000E+00  0.73632550284E+02  0.73632550284E+02  0.00000000000E+00 0.  1.
          3   -1    0    0  501    0  0.00000000000E+00 -0.00000000000E+00 -0.27930044918E+02  0.27930044918E+02  0.00000000000E+00 0. -1.
         23    2    1    2    0    0  0.00000000000E+00  0.00000000000E+00  0.45702505366E+02  0.10156259520E+03  0.90698631453E+02 0.  0.
        -11    1    3    3    0    0 -0.30965907349E+02 -0.26182661551E+02  0.45584218519E+02  0.61010983944E+02  0.00000000000E+00 0.  1.
         11    1    3    3    0    0  0.30965907349E+02  0.26182661551E+02  0.11828684722E+00  0.40551611258E+02  0.00000000000E+00 0. -1.
<mgrwt>
<rscale>  0 0.90698631E+02</rscale>
<asrwt>0</asrwt>
<pdfrwt beam="2">  1        3 0.42969300E-02 0.90698631E+02</pdfrwt>
<pdfrwt beam="1">  1       -3 0.11328085E-01 0.90698631E+02</pdfrwt>
<totfact> 0.35054727E+04</totfact>
</mgrwt>
</event>
<event>
 5    1  0.1197825E+001  0.9019848E+02  0.7546771E-02  0.1302372E+00
         -2   -1    0    0    0  501 -0.00000000000E+00  0.00000000000E+00  0.72240981212E+01  0.72240981212E+01  0.00000000000E+00 0.  1.
          2   -1    0    0  501    0  0.00000000000E+00 -0.00000000000E+00 -0.28154956238E+03  0.28154956238E+03  0.00000000000E+00 0. -1.
         23    2    1    2    0    0  0.00000000000E+00  0.00000000000E+00 -0.27432546426E+03  0.28877366050E+03  0.90198484790E+02 0.  0.
        -13    1    3    3    0    0 -0.38311395998E+02  0.21106256417E+02 -0.17233660107E+03  0.17780084699E+03  0.00000000000E+00 0. -1.
         13    1    3    3    0    0  0.38311395998E+02 -0.21106256417E+02 -0.10198886319E+03  0.11097281351E+03  0.00000000000E+00 0.  1.
<mgrwt>
<rscale>  0 0.90198485E+02</rscale>
<asrwt>0</asrwt>
<pdfrwt beam="2">  1        2 0.43315317E-01 0.90198485E+02</pdfrwt>
<pdfrwt beam="1">  1       -2 0.11113997E-02 0.90198485E+02</pdfrwt>
<totfact> 0.18058277E+05</totfact>
</mgrwt>
</event>
<event>
 5    1  0.1197825E+001  0.9826974E+02  0.7546771E-02  0.1283977E+00
         -4   -1    0    0    0  501 -0.00000000000E+00  0.00000000000E+00  0.10027679540E+03  0.10027679540E+03  0.00000000000E+00 0.  1.
          4   -1    0    0  501    0  0.00000000000E+00 -0.00000000000E+00 -0.24075715192E+02  0.24075715192E+02  0.00000000000E+00 0. -1.
         23    2    1    2    0    0  0.00000000000E+00  0.00000000000E+00  0.76201080210E+02  0.12435251059E+03  0.98269742372E+02 0.  0.
        -13    1    3    3    0    0 -0.13062269802E+02 -0.47241880839E+02  0.33750481218E+02  0.59510614012E+02  0.00000000000E+00 0.  1.
         13    1    3    3    0    0  0.13062269802E+02  0.47241880839E+02  0.42450598991E+02  0.64841896582E+02  0.00000000000E+00 0. -1.
<mgrwt>
<rscale>  0 0.98269742E+02</rscale>
<asrwt>0</asrwt>
<pdfrwt beam="2">  1        4 0.37039562E-02 0.98269742E+02</pdfrwt>
<pdfrwt beam="1">  1       -4 0.15427199E-01 0.98269742E+02</pdfrwt>
<totfact> 0.20417384E+04</totfact>
</mgrwt>
</event>
<event>
 5    1  0.1197825E+001  0.8419107E+02  0.7546771E-02  0.1317562E+00
          1   -1    0    0  501    0  0.00000000000E+00  0.00000000000E+00  0.14596129563E+02  0.14596129563E+02  0.00000000000E+00 0. -1.
         -1   -1    0    0    0  501 -0.00000000000E+00 -0.00000000000E+00 -0.12140439043E+03  0.12140439043E+03  0.00000000000E+00 0.  1.
         23    2    1    2    0    0  0.00000000000E+00  0.00000000000E+00 -0.10680826087E+03  0.13600052000E+03  0.84191073454E+02 0.  0.
        -11    1    3    3    0    0  0.18187487027E+02 -0.22199236066E+02 -0.10315265922E+03  0.10707035944E+03  0.00000000000E+00 0.  1.
         11    1    3    3    0    0 -0.18187487027E+02  0.22199236066E+02 -0.36556016454E+01  0.28930160553E+02  0.00000000000E+00 0. -1.
<mgrwt>
<rscale>  0 0.84191073E+02</rscale>
<asrwt>0</asrwt>
<pdfrwt beam="1">  1        1 0.22455584E-02 0.84191073E+02</pdfrwt>
<pdfrwt beam="2">  1       -1 0.18677598E-01 0.84191073E+02</pdfrwt>
<totfact> 0.96227449E+04</totfact>
</mgrwt>
</event>
<event>
 5    1  0.1197825E+001  0.9031775E+02  0.7546771E-02  0.1302084E+00
         -3   -1    0    0    0  501 -0.00000000000E+00  0.00000000000E+00  0.43131491314E+01  0.43131491314E+01  0.00000000000E+00 0.  1.
          3   -1    0    0  501    0  0.00000000000E+00 -0.00000000000E+00 -0.47281559916E+03  0.47281559916E+03  0.00000000000E+00 0. -1.
         23    2    1    2    0    0  0.00000000000E+00  0.00000000000E+00 -0.46850245003E+03  0.47712874829E+03  0.90317754419E+02 0.  0.
        -13    1    3    3    0    0 -0.44982413058E+02  0.55308097832E+00 -0.21338537908E+03  0.21807577442E+03  0.00000000000E+00 0.  1.
         13    1    3    3    0    0  0.44982413058E+02 -0.55308097832E+00 -0.25511707095E+03  0.25905297387E+03  0.00000000000E+00 0. -1.
<mgrwt>
<rscale>  0 0.90317754E+02</rscale>
<asrwt>0</asrwt>
<pdfrwt beam="2">  1        3 0.72740809E-01 0.90317754E+02</pdfrwt>
<pdfrwt beam="1">  1       -3 0.66356189E-03 0.90317754E+02</pdfrwt>
<totfact> 0.18951373E+04</totfact>
</mgrwt>
</event>
<event>
 5    1  0.1197825E+001  0.9258107E+02  0.7546771E-02  0.1296719E+00
         -3   -1    0    0    0  501 -0.00000000000E+00  0.00000000000E+00  0.12107608245E+03  0.12107608245E+03  0.00000000000E+00 0.  1.
          3   -1    0    0  501    0  0.00000000000E+00 -0.00000000000E+00 -0.17698075679E+02  0.17698075679E+02  0.00000000000E+00 0. -1.
         23    2    1    2    0    0  0.00000000000E+00  0.00000000000E+00  0.10337800677E+03  0.13877415813E+03  0.92581070855E+02 0.  0.
        -11    1    3    3    0    0  0.32625008587E+02  0.32265620959E+01  0.27027275758E+01  0.32895389109E+02  0.00000000000E+00 0. -1.
         11    1    3    3    0    0 -0.32625008587E+02 -0.32265620959E+01  0.10067527920E+03  0.10587876902E+03  0.00000000000E+00 0.  1.
<mgrwt>
<rscale>  0 0.92581071E+02</rscale>
<asrwt>0</asrwt>
<pdfrwt beam="2">  1        3 0.27227809E-02 0.92581071E+02</pdfrwt>
<pdfrwt beam="1">  1       -3 0.18627089E-01 0.92581071E+02</pdfrwt>
<totfact> 0.30707420E+04</totfact>
</mgrwt>
</event>
<event>
 5    1  0.1197825E+001  0.9133930E+02  0.7546771E-02  0.1299640E+00
         -1   -1    0    0    0  501 -0.00000000000E+00  0.00000000000E+00  0.14071316514E+02  0.14071316514E+02  0.00000000000E+00 0.  1.
          1   -1    0    0  501    0  0.00000000000E+00 -0.00000000000E+00 -0.14822471319E+03  0.14822471319E+03  0.00000000000E+00 0. -1.
         23    2    1    2    0    0  0.00000000000E+00  0.00000000000E+00 -0.13415339668E+03  0.16229602970E+03  0.91339298322E+02 0.  0.
        -11    1    3    3    0    0  0.27254558301E+02  0.36639998133E+02 -0.68223340861E+02  0.82095826019E+02  0.00000000000E+00 0.  1.
         11    1    3    3    0    0 -0.27254558301E+02 -0.36639998133E+02 -0.65930055815E+02  0.80200203685E+02  0.00000000000E+00 0. -1.
<mgrwt>
<rscale>  0 0.91339298E+02</rscale>
<asrwt>0</asrwt>
<pdfrwt beam="2">  1        1 0.22803804E-01 0.91339298E+02</pdfrwt>
<pdfrwt beam="1">  1       -1 0.21648177E-02 0.91339298E+02</pdfrwt>
<totfact> 0.11135111E+05</totfact>
</mgrwt>
</event>
<event>
 5    1  0.1197825E+001  0.9050438E+02  0.7546771E-02  0.1301635E+00
          1   -1    0    0  501    0  0.00000000000E+00  0.00000000000E+00  0.11257337953E+03  0.11257337953E+03  0.00000000000E+00 0. -1.
         -1   -1    0    0    0  501 -0.00000000000E+00 -0.00000000000E+00 -0.18190450377E+02  0.18190450377E+02  0.00000000000E+00 0.  1.
         23    2    1    2    0    0  0.00000000000E+00  0.00000000000E+00  0.94382929156E+02  0.13076382991E+03  0.90504375014E+02 0.  0.
        -11    1    3    3    0    0  0.99197666573E+01  0.38263167976E+02  0.79020108737E+02  0.88355245339E+02  0.00000000000E+00 0. -1.
         11    1    3    3    0    0 -0.99197666573E+01 -0.38263167976E+02  0.15362820419E+02  0.42408584571E+02  0.00000000000E+00 0.  1.
<mgrwt>
<rscale>  0 0.90504375E+02</rscale>
<asrwt>0</asrwt>
<pdfrwt beam="1">  1        1 0.17318981E-01 0.90504375E+02</pdfrwt>
<pdfrwt beam="2">  1       -1 0.27985309E-02 0.90504375E+02</pdfrwt>
<totfact> 0.10872146E+05</totfact>
</mgrwt>
</event>
<event>
 5    1  0.1197825E+001  0.8896997E+02  0.7546771E-02  0.1305365E+00
         -3   -1    0    0    0  501 -0.00000000000E+00  0.00000000000E+00  0.58756813715E+02  0.58756813715E+02  0.00000000000E+00 0.  1.
          3   -1    0    0  501    0  0.00000000000E+00 -0.00000000000E+00 -0.33679732766E+02  0.33679732766E+02  0.00000000000E+00 0. -1.
         23    2    1    2    0    0  0.00000000000E+00  0.00000000000E+00  0.25077080949E+02  0.92436546480E+02  0.88969967609E+02 0.  0.
        -11    1    3    3    0    0  0.33368012350E+02  0.29221606674E+02  0.90019052636E+01  0.45258820612E+02  0.00000000000E+00 0.  1.
         11    1    3    3    0    0 -0.33368012350E+02 -0.29221606674E+02  0.16075175685E+02  0.47177725868E+02  0.00000000000E+00 0. -1.
<mgrwt>
<rscale>  0 0.88969968E+02</rscale>
<asrwt>0</asrwt>
<pdfrwt beam="2">  1        3 0.51814974E-02 0.88969968E+02</pdfrwt>
<pdfrwt beam="1">  1       -3 0.90395097E-02 0.88969968E+02</pdfrwt>
<totfact> 0.37668078E+04</totfact>
</mgrwt>
</event>
<event>
 5    1  0.1197825E+001  0.9122263E+02  0.7546771E-02  0.1299918E+00
         -4   -1    0    0    0  501 -0.00000000000E+00  0.00000000000E+00  0.46634989113E+02  0.46634989113E+02  0.00000000000E+00 0.  1.
          4   -1    0    0  501    0  0.00000000000E+00 -0.00000000000E+00 -0.44610108449E+02  0.44610108449E+02  0.00000000000E+00 0. -1.
         23    2    1    2    0    0  0.00000000000E+00  0.00000000000E+00  0.20248806640E+01  0.91245097562E+02  0.91222627058E+02 0.  0.
        -13    1    3    3    0    0  0.10102634484E+02  0.14634936267E+02  0.43024540452E+02  0.46554867245E+02  0.00000000000E+00 0.  1.
         13    1    3    3    0    0 -0.10102634484E+02 -0.14634936267E+02 -0.40999659788E+02  0.44690230317E+02  0.00000000000E+00 0. -1.
<mgrwt>
<rscale>  0 0.91222627E+02</rscale>
<asrwt>0</asrwt>
<pdfrwt beam="2">  1        4 0.68630936E-02 0.91222627E+02</pdfrwt>
<pdfrwt beam="1">  1       -4 0.71746137E-02 0.91222627E+02</pdfrwt>
<totfact> 0.26974930E+04</totfact>
</mgrwt>
</event>
<event>
 5    1  0.1197825E+001  0.9143654E+02  0.7546771E-02  0.1299410E+00
         -1   -1    0    0    0  501 -0.00000000000E+00  0.00000000000E+00  0.51622754504E+02  0.51622754504E+02  0.00000000000E+00 0.  1.
          1   -1    0    0  501    0  0.00000000000E+00 -0.00000000000E+00 -0.40489122862E+02  0.40489122862E+02  0.00000000000E+00 0. -1.
         23    2    1    2    0    0  0.00000000000E+00  0.00000000000E+00  0.11133631641E+02  0.92111877366E+02  0.91436536452E+02 0.  0.
        -11    1    3    3    0    0 -0.67127644511E+01  0.42172940631E+02 -0.10879878820E+02  0.44068014377E+02  0.00000000000E+00 0. -1.
         11    1    3    3    0    0  0.67127644511E+01 -0.42172940631E+02  0.22013510461E+02  0.48043862988E+02  0.00000000000E+00 0.  1.
<mgrwt>
<rscale>  0 0.91436536E+02</rscale>
<asrwt>0</asrwt>
<pdfrwt beam="2">  1        1 0.62290958E-02 0.91436536E+02</pdfrwt>
<pdfrwt beam="1">  1       -1 0.79419622E-02 0.91436536E+02</pdfrwt>
<totfact> 0.90103916E+04</totfact>
</mgrwt>
</event>
<event>
 5    1  0.1197825E+001  0.8752967E+02  0.7546771E-02  0.1308947E+00
         -1   -1    0    0    0  501 -0.00000000000E+00  0.00000000000E+00  0.43733028502E+01  0.43733028502E+01  0.00000000000E+00 0.  1.
          1   -1    0    0  501    0  0.00000000000E+00 -0.00000000000E+00 -0.43796664691E+03  0.43796664691E+03  0.00000000000E+00 0. -1.
         23    2    1    2    0    0  0.00000000000E+00  0.00000000000E+00 -0.43359334406E+03  0.44233994976E+03  0.87529670060E+02 0.  0.
        -11    1    3    3    0    0  0.70238303926E+01  0.43054702534E+02 -0.23453414722E+03  0.23855671823E+03  0.00000000000E+00 0.  1.
         11    1    3    3    0    0 -0.70238303926E+01 -0.43054702534E+02 -0.19905919684E+03  0.20378323153E+03  0.00000000000E+00 0. -1.
<mgrwt>
<rscale>  0 0.87529670E+02</rscale>
<asrwt>0</asrwt>
<pdfrwt beam="2">  1        1 0.67379507E-01 0.87529670E+02</pdfrwt>
<pdfrwt beam="1">  1       -1 0.67281560E-03 0.87529670E+02</pdfrwt>
<totfact> 0.15242722E+05</totfact>
</mgrwt>
</event>
<event>
 5    1  0.1197825E+001  0.9119817E+02  0.7546771E-02  0.1299976E+00
         -2   -1    0    0    0  501 -0.00000000000E+00  0.00000000000E+00  0.28351738673E+02  0.28351738673E+02  0.00000000000E+00 0. -1.
          2   -1    0    0  501    0  0.00000000000E+00 -0.00000000000E+00 -0.73338596815E+02  0.73338596815E+02  0.00000000000E+00 0.  1.
         23    2    1    2    0    0  0.00000000000E+00  0.00000000000E+00 -0.44986858143E+02  0.10169033549E+03  0.91198173919E+02 0.  0.
        -13    1    3    3    0    0  0.46158159445E+01 -0.44029616125E+02 -0.10311109196E+02  0.45455822793E+02  0.00000000000E+00 0. -1.
         13    1    3    3    0    0 -0.46158159445E+01  0.44029616125E+02 -0.34675748947E+02  0.56234512695E+02  0.00000000000E+00 0.  1.
<mgrwt>
<rscale>  0 0.91198174E+02</rscale>
<asrwt>0</asrwt>
<pdfrwt beam="2">  1        2 0.11282861E-01 0.91198174E+02</pdfrwt>
<pdfrwt beam="1">  1       -2 0.43618060E-02 0.91198174E+02</pdfrwt>
<totfact> 0.11199127E+05</totfact>
</mgrwt>
</event>
<event>
 5    1  0.1197825E+001  0.9139892E+02  0.7546771E-02  0.1299499E+00
         -4   -1    0    0    0  501 -0.00000000000E+00  0.00000000000E+00  0.92838828132E+02  0.92838828132E+02  0.00000000000E+00 0.  1.
          4   -1    0    0  501    0  0.00000000000E+00 -0.00000000000E+00 -0.22495336120E+02  0.22495336120E+02  0.00000000000E+00 0. -1.
         23    2    1    2    0    0  0.00000000000E+00  0.00000000000E+00  0.70343492012E+02  0.11533416425E+03  0.91398919990E+02 0.  0.
        -13    1    3    3    0    0  0.36635625476E+02  0.22683909675E+02  0.54380138186E+02  0.69382477912E+02  0.00000000000E+00 0.  1.
         13    1    3    3    0    0 -0.36635625476E+02 -0.22683909675E+02  0.15963353827E+02  0.45951686341E+02  0.00000000000E+00 0. -1.
<mgrwt>
<rscale>  0 0.91398920E+02</rscale>
<asrwt>0</asrwt>
<pdfrwt beam="2">  1        4 0.34608210E-02 0.91398920E+02</pdfrwt>
<pdfrwt beam="1">  1       -4 0.14282896E-01 0.91398920E+02</pdfrwt>
<totfact> 0.25372267E+04</totfact>
</mgrwt>
</event>
<event>
 5    1  0.1197825E+001  0.9616856E+02  0.7546771E-02  0.1288566E+00
          4   -1    0    0  501    0  0.00000000000E+00  0.00000000000E+00  0.11421285533E+02  0.11421285533E+02  0.00000000000E+00 0. -1.
         -4   -1    0    0    0  501 -0.00000000000E+00 -0.00000000000E+00 -0.20243764959E+03  0.20243764959E+03  0.00000000000E+00 0.  1.
         23    2    1    2    0    0  0.00000000000E+00  0.00000000000E+00 -0.19101636406E+03  0.21385893512E+03  0.96168564483E+02 0.  0.
        -13    1    3    3    0    0 -0.47355283225E+02  0.24208494692E+01 -0.77757519974E+02  0.91074778473E+02  0.00000000000E+00 0.  1.
         13    1    3    3    0    0  0.47355283225E+02 -0.24208494692E+01 -0.11325884408E+03  0.12278415665E+03  0.00000000000E+00 0. -1.
<mgrwt>
<rscale>  0 0.96168564E+02</rscale>
<asrwt>0</asrwt>
<pdfrwt beam="1">  1        4 0.17571209E-02 0.96168564E+02</pdfrwt>
<pdfrwt beam="2">  1       -4 0.31144254E-01 0.96168564E+02</pdfrwt>
<totfact> 0.18042049E+04</totfact>
</mgrwt>
</event>
<event>
 5    1  0.1197825E+001  0.9006790E+02  0.7546771E-02  0.1302687E+00
         -1   -1    0    0    0  501 -0.00000000000E+00  0.00000000000E+00  0.41156835379E+01  0.41156835379E+01  0.00000000000E+00 0.  1.
          1   -1    0    0  501    0  0.00000000000E+00 -0.00000000000E+00 -0.49276302557E+03  0.49276302557E+03  0.00000000000E+00 0. -1.
         23    2    1    2    0    0  0.00000000000E+00  0.00000000000E+00 -0.48864734203E+03  0.49687870911E+03  0.90067900440E+02 0.  0.
        -11    1    3    3    0    0 -0.20425655149E+02  0.40131985067E+02 -0.24720643054E+03  0.25127435785E+03  0.00000000000E+00 0.  1.
         11    1    3    3    0    0  0.20425655149E+02 -0.40131985067E+02 -0.24144091149E+03  0.24560435126E+03  0.00000000000E+00 0. -1.
<mgrwt>
<rscale>  0 0.90067900E+02</rscale>
<asrwt>0</asrwt>
<pdfrwt beam="2">  1        1 0.75809678E-01 0.90067900E+02</pdfrwt>
<pdfrwt beam="1">  1       -1 0.63318224E-03 0.90067900E+02</pdfrwt>
<totfact> 0.14360011E+05</totfact>
</mgrwt>
</event>
<event>
 5    1  0.1197825E+001  0.8026029E+02  0.7546771E-02  0.1328314E+00
          2   -1    0    0  501    0  0.00000000000E+00  0.00000000000E+00  0.73415026222E+02  0.73415026222E+02  0.00000000000E+00 0. -1.
         -2   -1    0    0    0  501 -0.00000000000E+00 -0.00000000000E+00 -0.21935953223E+02  0.21935953223E+02  0.00000000000E+00 0.  1.
         23    2    1    2    0    0  0.00000000000E+00  0.00000000000E+00  0.51479072999E+02  0.95350979446E+02  0.80260291081E+02 0.  0.
        -11    1    3    3    0    0  0.22525701977E+01  0.22747087570E+02  0.64924893675E+02  0.68831285649E+02  0.00000000000E+00 0. -1.
         11    1    3    3    0    0 -0.22525701977E+01 -0.22747087570E+02 -0.13445820676E+02  0.26519693796E+02  0.00000000000E+00 0.  1.
<mgrwt>
<rscale>  0 0.80260291E+02</rscale>
<asrwt>0</asrwt>
<pdfrwt beam="1">  1        2 0.11294619E-01 0.80260291E+02</pdfrwt>
<pdfrwt beam="2">  1       -2 0.33747621E-02 0.80260291E+02</pdfrwt>
<totfact> 0.15939686E+05</totfact>
</mgrwt>
</event>
<event>
 5    1  0.1197825E+001  0.8893976E+02  0.7546771E-02  0.1305440E+00
          2   -1    0    0  501    0  0.00000000000E+00  0.00000000000E+00  0.76594540369E+01  0.76594540369E+01  0.00000000000E+00 0. -1.
         -2   -1    0    0    0  501 -0.00000000000E+00 -0.00000000000E+00 -0.25818683748E+03  0.25818683748E+03  0.00000000000E+00 0.  1.
         23    2    1    2    0    0  0.00000000000E+00  0.00000000000E+00 -0.25052738344E+03  0.26584629151E+03  0.88939759716E+02 0.  0.
        -13    1    3    3    0    0 -0.18851314299E+02  0.34267746638E+02 -0.18852450027E+03  0.19253866550E+03  0.00000000000E+00 0.  1.
         13    1    3    3    0    0  0.18851314299E+02 -0.34267746638E+02 -0.62002883172E+02  0.73307626016E+02  0.00000000000E+00 0. -1.
<mgrwt>
<rscale>  0 0.88939760E+02</rscale>
<asrwt>0</asrwt>
<pdfrwt beam="1">  1        2 0.11783777E-02 0.88939760E+02</pdfrwt>
<pdfrwt beam="2">  1       -2 0.39721046E-01 0.88939760E+02</pdfrwt>
<totfact> 0.58908075E+04</totfact>
</mgrwt>
</event>
<event>
 5    1  0.1197825E+001  0.7535490E+02  0.7546771E-02  0.1342776E+00
          2   -1    0    0  501    0  0.00000000000E+00  0.00000000000E+00  0.24004331074E+02  0.24004331074E+02  0.00000000000E+00 0. -1.
         -2   -1    0    0    0  501 -0.00000000000E+00 -0.00000000000E+00 -0.59138923909E+02  0.59138923909E+02  0.00000000000E+00 0.  1.
         23    2    1    2    0    0  0.00000000000E+00  0.00000000000E+00 -0.35134592835E+02  0.83143254983E+02  0.75354901867E+02 0.  0.
        -11    1    3    3    0    0 -0.27998790630E+02  0.11622246163E+02  0.71188260853E+01  0.31139790742E+02  0.00000000000E+00 0. -1.
         11    1    3    3    0    0  0.27998790630E+02 -0.11622246163E+02 -0.42253418920E+02  0.52003464241E+02  0.00000000000E+00 0.  1.
<mgrwt>
<rscale>  0 0.75354902E+02</rscale>
<asrwt>0</asrwt>
<pdfrwt beam="1">  1        2 0.36929740E-02 0.75354902E+02</pdfrwt>
<pdfrwt beam="2">  1       -2 0.90982959E-02 0.75354902E+02</pdfrwt>
<totfact> 0.14623109E+05</totfact>
</mgrwt>
</event>
<event>
 5    1  0.1197825E+001  0.9075091E+02  0.7546771E-02  0.1301043E+00
          2   -1    0    0  501    0  0.00000000000E+00  0.00000000000E+00  0.21377658476E+03  0.21377658476E+03  0.00000000000E+00 0. -1.
         -2   -1    0    0    0  501 -0.00000000000E+00 -0.00000000000E+00 -0.96312327146E+01  0.96312327146E+01  0.00000000000E+00 0.  1.
         23    2    1    2    0    0  0.00000000000E+00  0.00000000000E+00  0.20414535205E+03  0.22340781748E+03  0.90750912652E+02 0.  0.
        -11    1    3    3    0    0 -0.35794162075E+00  0.33142384123E+02  0.25782197279E+02  0.41991278190E+02  0.00000000000E+00 0.  1.
         11    1    3    3    0    0  0.35794162075E+00 -0.33142384123E+02  0.17836315477E+03  0.18141653929E+03  0.00000000000E+00 0. -1.
<mgrwt>
<rscale>  0 0.90750913E+02</rscale>
<asrwt>0</asrwt>
<pdfrwt beam="1">  1        2 0.32888702E-01 0.90750913E+02</pdfrwt>
<pdfrwt beam="2">  1       -2 0.14817283E-02 0.90750913E+02</pdfrwt>
<totfact> 0.16047507E+05</totfact>
</mgrwt>
</event>
<event>
 5    1  0.1197825E+001  0.8904261E+02  0.7546771E-02  0.1305187E+00
          2   -1    0    0  501    0  0.00000000000E+00  0.00000000000E+00  0.43027729992E+02  0.43027729992E+02  0.00000000000E+00 0. -1.
         -2   -1    0    0    0  501 -0.00000000000E+00 -0.00000000000E+00 -0.46066720705E+02  0.46066720705E+02  0.00000000000E+00 0.  1.
         23    2    1    2    0    0  0.00000000000E+00  0.00000000000E+00 -0.30389907136E+01  0.89094450697E+02  0.89042605984E+02 0.  0.
        -11    1    3    3    0    0 -0.14054300286E+02 -0.26782582379E+02 -0.34208325072E+02  0.45662233625E+02  0.00000000000E+00 0.  1.
         11    1    3    3    0    0  0.14054300286E+02  0.26782582379E+02  0.31169334358E+02  0.43432217072E+02  0.00000000000E+00 0. -1.
<mgrwt>
<rscale>  0 0.89042606E+02</rscale>
<asrwt>0</asrwt>
<pdfrwt beam="1">  1        2 0.66196507E-02 0.89042606E+02</pdfrwt>
<pdfrwt beam="2">  1       -2 0.70871878E-02 0.89042606E+02</pdfrwt>
<totfact> 0.10404935E+05</totfact>
</mgrwt>
</event>
<event>
 5    1  0.1197825E+001  0.8902477E+02  0.7546771E-02  0.1305231E+00
         -1   -1    0    0    0  501 -0.00000000000E+00  0.00000000000E+00  0.29882541461E+02  0.29882541461E+02  0.00000000000E+00 0.  1.
          1   -1    0    0  501    0  0.00000000000E+00 -0.00000000000E+00 -0.66304681440E+02  0.66304681440E+02  0.00000000000E+00 0. -1.
         23    2    1    2    0    0  0.00000000000E+00  0.00000000000E+00 -0.36422139980E+02  0.96187222901E+02  0.89024769411E+02 0.  0.
        -11    1    3    3    0    0  0.24119454381E+02  0.20347763610E+02  0.15708543082E+02  0.35249650911E+02  0.00000000000E+00 0.  1.
         11    1    3    3    0    0 -0.24119454381E+02 -0.20347763610E+02 -0.52130683062E+02  0.60937571990E+02  0.00000000000E+00 0. -1.
<mgrwt>
<rscale>  0 0.89024769E+02</rscale>
<asrwt>0</asrwt>
<pdfrwt beam="2">  1        1 0.10200720E-01 0.89024769E+02</pdfrwt>
<pdfrwt beam="1">  1       -1 0.45973141E-02 0.89024769E+02</pdfrwt>
<totfact> 0.10450646E+05</totfact>
</mgrwt>
</event>
<event>
 5    1  0.1197825E+001  0.8856789E+02  0.7546771E-02  0.1306357E+00
         -2   -1    0    0    0  501 -0.00000000000E+00  0.00000000000E+00  0.67744414576E+01  0.67744414576E+01  0.00000000000E+00 0.  1.
          2   -1    0    0  501    0  0.00000000000E+00 -0.00000000000E+00 -0.28948035697E+03  0.28948035697E+03  0.00000000000E+00 0. -1.
         23    2    1    2    0    0  0.00000000000E+00  0.00000000000E+00 -0.28270591551E+03  0.29625479843E+03  0.88567888796E+02 0.  0.
        -13    1    3    3    0    0 -0.12496017067E+02  0.35462353396E+02 -0.21960887947E+03  0.22280437359E+03  0.00000000000E+00 0. -1.
         13    1    3    3    0    0  0.12496017067E+02 -0.35462353396E+02 -0.63097036048E+02  0.73450424838E+02  0.00000000000E+00 0.  1.
<mgrwt>
<rscale>  0 0.88567889E+02</rscale>
<asrwt>0</asrwt>
<pdfrwt beam="2">  1        2 0.44535442E-01 0.88567889E+02</pdfrwt>
<pdfrwt beam="1">  1       -2 0.10422217E-02 0.88567889E+02</pdfrwt>
<totfact> 0.19154258E+05</totfact>
</mgrwt>
</event>
<event>
 5    1  0.1197825E+001  0.9122008E+02  0.7546771E-02  0.1299924E+00
          2   -1    0    0  501    0  0.00000000000E+00  0.00000000000E+00  0.32200689040E+02  0.32200689040E+02  0.00000000000E+00 0.  1.
         -2   -1    0    0    0  501 -0.00000000000E+00 -0.00000000000E+00 -0.64603452322E+02  0.64603452322E+02  0.00000000000E+00 0. -1.
         23    2    1    2    0    0  0.00000000000E+00  0.00000000000E+00 -0.32402763282E+02  0.96804141363E+02  0.91220078473E+02 0.  0.
        -13    1    3    3    0    0 -0.21684340531E+02 -0.22105447271E+02 -0.51738853765E+02  0.60297349961E+02  0.00000000000E+00 0. -1.
         13    1    3    3    0    0  0.21684340531E+02  0.22105447271E+02  0.19336090483E+02  0.36506791402E+02  0.00000000000E+00 0.  1.
<mgrwt>
<rscale>  0 0.91220078E+02</rscale>
<asrwt>0</asrwt>
<pdfrwt beam="1">  1        2 0.49539521E-02 0.91220078E+02</pdfrwt>
<pdfrwt beam="2">  1       -2 0.99389927E-02 0.91220078E+02</pdfrwt>
<totfact> 0.90017605E+04</totfact>
</mgrwt>
</event>
<event>
 5    1  0.1197825E+001  0.8823532E+02  0.7546771E-02  0.1307182E+00
         -2   -1    0    0    0  501 -0.00000000000E+00  0.00000000000E+00  0.95460809804E+01  0.95460809804E+01  0.00000000000E+00 0.  1.
          2   -1    0    0  501    0  0.00000000000E+00 -0.00000000000E+00 -0.20389184574E+03  0.20389184574E+03  0.00000000000E+00 0. -1.
         23    2    1    2    0    0  0.00000000000E+00  0.00000000000E+00 -0.19434576476E+03  0.21343792672E+03  0.88235323327E+02 0.  0.
        -11    1    3    3    0    0 -0.36073889940E+02 -0.11866451466E+01 -0.35803925860E+02  0.50839500087E+02  0.00000000000E+00 0.  1.
         11    1    3    3    0    0  0.36073889940E+02  0.11866451466E+01 -0.15854183890E+03  0.16259842663E+03  0.00000000000E+00 0. -1.
<mgrwt>
<rscale>  0 0.88235323E+02</rscale>
<asrwt>0</asrwt>
<pdfrwt beam="2">  1        2 0.31367974E-01 0.88235323E+02</pdfrwt>
<pdfrwt beam="1">  1       -2 0.14686279E-02 0.88235323E+02</pdfrwt>
<totfact> 0.17009461E+05</totfact>
</mgrwt>
</event>
<event>
 5    1  0.1197825E+001  0.9220886E+02  0.7546771E-02  0.1297589E+00
         -1   -1    0    0    0  501 -0.00000000000E+00  0.00000000000E+00  0.42453054167E+02  0.42453054167E+02  0.00000000000E+00 0.  1.
          1   -1    0    0  501    0  0.00000000000E+00 -0.00000000000E+00 -0.50069854860E+02  0.50069854860E+02  0.00000000000E+00 0. -1.
         23    2    1    2    0    0  0.00000000000E+00  0.00000000000E+00 -0.76168006932E+01  0.92522909027E+02  0.92208855551E+02 0.  0.
        -13    1    3    3    0    0  0.12438431513E+02  0.44102199016E+02 -0.89149106770E+01  0.46681839819E+02  0.00000000000E+00 0. -1.
         13    1    3    3    0    0 -0.12438431513E+02 -0.44102199016E+02  0.12981099838E+01  0.45841069207E+02  0.00000000000E+00 0.  1.
<mgrwt>
<rscale>  0 0.92208856E+02</rscale>
<asrwt>0</asrwt>
<pdfrwt beam="2">  1        1 0.77030546E-02 0.92208856E+02</pdfrwt>
<pdfrwt beam="1">  1       -1 0.65312391E-02 0.92208856E+02</pdfrwt>
<totfact> 0.90873755E+04</totfact>
</mgrwt>
</event>
<event>
 5    1  0.1197825E+001  0.8821156E+02  0.7546771E-02  0.1307241E+00
         -1   -1    0    0    0  501 -0.00000000000E+00  0.00000000000E+00  0.13157173330E+02  0.13157173330E+02  0.00000000000E+00 0.  1.
          1   -1    0    0  501    0  0.00000000000E+00 -0.00000000000E+00 -0.14785240739E+03  0.14785240739E+03  0.00000000000E+00 0. -1.
         23    2    1    2    0    0  0.00000000000E+00  0.00000000000E+00 -0.13469523406E+03  0.16100958072E+03  0.88211558229E+02 0.  0.
        -13    1    3    3    0    0 -0.43427002056E+02 -0.73651578339E+01 -0.63197516321E+02  0.77032954809E+02  0.00000000000E+00 0.  1.
         13    1    3    3    0    0  0.43427002056E+02  0.73651578339E+01 -0.71497717737E+02  0.83976625909E+02  0.00000000000E+00 0. -1.
<mgrwt>
<rscale>  0 0.88211558E+02</rscale>
<asrwt>0</asrwt>
<pdfrwt beam="2">  1        1 0.22746524E-01 0.88211558E+02</pdfrwt>
<pdfrwt beam="1">  1       -1 0.20241805E-02 0.88211558E+02</pdfrwt>
<totfact> 0.12224447E+05</totfact>
</mgrwt>
</event>
<event>
 5    1  0.1197825E+001  0.9063183E+02  0.7546771E-02  0.1301329E+00
         -2   -1    0    0    0  501 -0.00000000000E+00  0.00000000000E+00  0.10090449338E+02  0.10090449338E+02  0.00000000000E+00 0.  1.
          2   -1    0    0  501    0  0.00000000000E+00 -0.00000000000E+00 -0.20351245047E+03  0.20351245047E+03  0.00000000000E+00 0. -1.
         23    2    1    2    0    0  0.00000000000E+00  0.00000000000E+00 -0.19342200113E+03  0.21360289981E+03  0.90631828211E+02 0.  0.
        -11    1    3    3    0    0  0.44066906269E+02 -0.64500812593E+01 -0.11643468225E+03  0.12466166615E+03  0.00000000000E+00 0. -1.
         11    1    3    3    0    0 -0.44066906269E+02  0.64500812593E+01 -0.76987318886E+02  0.88941233664E+02  0.00000000000E+00 0.  1.
<mgrwt>
<rscale>  0 0.90631828E+02</rscale>
<asrwt>0</asrwt>
<pdfrwt beam="2">  1        2 0.31309605E-01 0.90631828E+02</pdfrwt>
<pdfrwt beam="1">  1       -2 0.15523769E-02 0.90631828E+02</pdfrwt>
<totfact> 0.15818780E+05</totfact>
</mgrwt>
</event>
<event>
 5    1  0.1197825E+001  0.9108650E+02  0.7546771E-02  0.1300242E+00
         -1   -1    0    0    0  501 -0.00000000000E+00  0.00000000000E+00  0.14233988370E+02  0.14233988370E+02  0.00000000000E+00 0.  1.
          1   -1    0    0  501    0  0.00000000000E+00 -0.00000000000E+00 -0.14572077276E+03  0.14572077276E+03  0.00000000000E+00 0. -1.
         23    2    1    2    0    0  0.00000000000E+00  0.00000000000E+00 -0.13148678439E+03  0.15995476113E+03  0.91086503604E+02 0.  0.
        -11    1    3    3    0    0  0.22152667544E+02  0.67576008157E+01  0.31203338160E+01  0.23369688300E+02  0.00000000000E+00 0.  1.
         11    1    3    3    0    0 -0.22152667544E+02 -0.67576008157E+01 -0.13460711820E+03  0.13658507283E+03  0.00000000000E+00 0. -1.
<mgrwt>
<rscale>  0 0.91086504E+02</rscale>
<asrwt>0</asrwt>
<pdfrwt beam="2">  1        1 0.22418582E-01 0.91086504E+02</pdfrwt>
<pdfrwt beam="1">  1       -1 0.21898443E-02 0.91086504E+02</pdfrwt>
<totfact> 0.11183861E+05</totfact>
</mgrwt>
</event>
<event>
 5    1  0.1197825E+001  0.9223137E+02  0.7546771E-02  0.1297536E+00
         -2   -1    0    0    0  501 -0.00000000000E+00  0.00000000000E+00  0.39950395178E+02  0.39950395178E+02  0.00000000000E+00 0.  1.
          2   -1    0    0  501    0  0.00000000000E+00 -0.00000000000E+00 -0.53232424307E+02  0.53232424307E+02  0.00000000000E+00 0. -1.
         23    2    1    2    0    0  0.00000000000E+00  0.00000000000E+00 -0.13282029129E+02  0.93182819484E+02  0.92231369660E+02 0.  0.
        -11    1    3    3    0    0  0.33340310241E+02  0.19316176651E+02  0.18957396362E+02  0.42942680916E+02  0.00000000000E+00 0.  1.
         11    1    3    3    0    0 -0.33340310241E+02 -0.19316176651E+02 -0.32239425492E+02  0.50240138569E+02  0.00000000000E+00 0. -1.
<mgrwt>
<rscale>  0 0.92231370E+02</rscale>
<asrwt>0</asrwt>
<pdfrwt beam="2">  1        2 0.81896037E-02 0.92231370E+02</pdfrwt>
<pdfrwt beam="1">  1       -2 0.61462147E-02 0.92231370E+02</pdfrwt>
<totfact> 0.99442950E+04</totfact>
</mgrwt>
</event>
<event>
 5    1  0.1197825E+001  0.9439808E+02  0.7546771E-02  0.1292538E+00
         -3   -1    0    0    0  501 -0.00000000000E+00  0.00000000000E+00  0.23449313063E+02  0.23449313063E+02  0.00000000000E+00 0.  1.
          3   -1    0    0  501    0  0.00000000000E+00 -0.00000000000E+00 -0.95002752651E+02  0.95002752651E+02  0.00000000000E+00 0. -1.
         23    2    1    2    0    0  0.00000000000E+00  0.00000000000E+00 -0.71553439588E+02  0.11845206571E+03  0.94398078133E+02 0.  0.
        -13    1    3    3    0    0 -0.25337883852E+02  0.27510466725E+02  0.35049867378E+00  0.37402633421E+02  0.00000000000E+00 0.  1.
         13    1    3    3    0    0  0.25337883852E+02 -0.27510466725E+02 -0.71903938261E+02  0.81049432293E+02  0.00000000000E+00 0. -1.
<mgrwt>
<rscale>  0 0.94398078E+02</rscale>
<asrwt>0</asrwt>
<pdfrwt beam="2">  1        3 0.14615808E-01 0.94398078E+02</pdfrwt>
<pdfrwt beam="1">  1       -3 0.36075866E-02 0.94398078E+02</pdfrwt>
<totfact> 0.30340820E+04</totfact>
</mgrwt>
</event>
<event>
 5    1  0.1197825E+001  0.9035550E+02  0.7546771E-02  0.1301993E+00
          1   -1    0    0  501    0  0.00000000000E+00  0.00000000000E+00  0.17363469029E+03  0.17363469029E+03  0.00000000000E+00 0. -1.
         -1   -1    0    0    0  501 -0.00000000000E+00 -0.00000000000E+00 -0.11754732305E+02  0.11754732305E+02  0.00000000000E+00 0.  1.
         23    2    1    2    0    0  0.00000000000E+00  0.00000000000E+00  0.16187995799E+03  0.18538942260E+03  0.90355504609E+02 0.  0.
        -11    1    3    3    0    0  0.27355331563E+02  0.29624955353E+02  0.39138201062E+02  0.56193869123E+02  0.00000000000E+00 0.  1.
         11    1    3    3    0    0 -0.27355331563E+02 -0.29624955353E+02  0.12274175693E+03  0.12919555348E+03  0.00000000000E+00 0. -1.
<mgrwt>
<rscale>  0 0.90355505E+02</rscale>
<asrwt>0</asrwt>
<pdfrwt beam="1">  1        1 0.26713027E-01 0.90355505E+02</pdfrwt>
<pdfrwt beam="2">  1       -1 0.18084205E-02 0.90355505E+02</pdfrwt>
<totfact> 0.11806990E+05</totfact>
</mgrwt>
</event>
<event>
 5    1  0.1197825E+001  0.9127214E+02  0.7546771E-02  0.1299800E+00
          1   -1    0    0  501    0  0.00000000000E+00  0.00000000000E+00  0.17579689146E+03  0.17579689146E+03  0.00000000000E+00 0. -1.
         -1   -1    0    0    0  501 -0.00000000000E+00 -0.00000000000E+00 -0.11846914567E+02  0.11846914567E+02  0.00000000000E+00 0.  1.
         23    2    1    2    0    0  0.00000000000E+00  0.00000000000E+00  0.16394997689E+03  0.18764380602E+03  0.91272137134E+02 0.  0.
        -11    1    3    3    0    0 -0.24593434542E+02  0.23054446961E+02  0.18732076544E+02  0.38564689016E+02  0.00000000000E+00 0. -1.
         11    1    3    3    0    0  0.24593434542E+02 -0.23054446961E+02  0.14521790034E+03  0.14907911701E+03  0.00000000000E+00 0.  1.
<mgrwt>
<rscale>  0 0.91272137E+02</rscale>
<asrwt>0</asrwt>
<pdfrwt beam="1">  1        1 0.27045674E-01 0.91272137E+02</pdfrwt>
<pdfrwt beam="2">  1       -1 0.18226024E-02 0.91272137E+02</pdfrwt>
<totfact> 0.11518043E+05</totfact>
</mgrwt>
</event>
<event>
 5    1  0.1197825E+001  0.9279937E+02  0.7546771E-02  0.1296211E+00
          2   -1    0    0  501    0  0.00000000000E+00  0.00000000000E+00  0.16914938534E+03  0.16914938534E+03  0.00000000000E+00 0. -1.
         -2   -1    0    0    0  501 -0.00000000000E+00 -0.00000000000E+00 -0.12727983535E+02  0.12727983535E+02  0.00000000000E+00 0.  1.
         23    2    1    2    0    0  0.00000000000E+00  0.00000000000E+00  0.15642140181E+03  0.18187736888E+03  0.92799366198E+02 0.  0.
        -11    1    3    3    0    0  0.30342872210E+02 -0.11897350718E+02  0.13483762725E+02  0.35271074626E+02  0.00000000000E+00 0.  1.
         11    1    3    3    0    0 -0.30342872210E+02  0.11897350718E+02  0.14293763908E+03  0.14660629425E+03  0.00000000000E+00 0. -1.
<mgrwt>
<rscale>  0 0.92799366E+02</rscale>
<asrwt>0</asrwt>
<pdfrwt beam="1">  1        2 0.26022981E-01 0.92799366E+02</pdfrwt>
<pdfrwt beam="2">  1       -2 0.19581514E-02 0.92799366E+02</pdfrwt>
<totfact> 0.13892221E+05</totfact>
</mgrwt>
</event>
<event>
 5    1  0.1197825E+001  0.8508746E+02  0.7546771E-02  0.1315204E+00
         -2   -1    0    0    0  501 -0.00000000000E+00  0.00000000000E+00  0.71973708237E+02  0.71973708237E+02  0.00000000000E+00 0.  1.
          2   -1    0    0  501    0  0.00000000000E+00 -0.00000000000E+00 -0.25147643572E+02  0.25147643572E+02  0.00000000000E+00 0. -1.
         23    2    1    2    0    0  0.00000000000E+00  0.00000000000E+00  0.46826064665E+02  0.97121351809E+02  0.85087464677E+02 0.  0.
        -11    1    3    3    0    0  0.26259901731E+02  0.17798395096E+02 -0.89441086256E+01  0.32960011924E+02  0.00000000000E+00 0. -1.
         11    1    3    3    0    0 -0.26259901731E+02 -0.17798395096E+02  0.55770173290E+02  0.64161339884E+02  0.00000000000E+00 0.  1.
<mgrwt>
<rscale>  0 0.85087465E+02</rscale>
<asrwt>0</asrwt>
<pdfrwt beam="2">  1        2 0.38688683E-02 0.85087465E+02</pdfrwt>
<pdfrwt beam="1">  1       -2 0.11072878E-01 0.85087465E+02</pdfrwt>
<totfact> 0.10366662E+05</totfact>
</mgrwt>
</event>
<event>
 5    1  0.1197825E+001  0.9351174E+02  0.7546771E-02  0.1294564E+00
          4   -1    0    0  501    0  0.00000000000E+00  0.00000000000E+00  0.25811494732E+02  0.25811494732E+02  0.00000000000E+00 0. -1.
         -4   -1    0    0    0  501 -0.00000000000E+00 -0.00000000000E+00 -0.84695263816E+02  0.84695263816E+02  0.00000000000E+00 0.  1.
         23    2    1    2    0    0  0.00000000000E+00  0.00000000000E+00 -0.58883769084E+02  0.11050675855E+03  0.93511739495E+02 0.  0.
        -13    1    3    3    0    0 -0.39702315422E+02  0.19443970616E+02 -0.47432700388E+02  0.64839825025E+02  0.00000000000E+00 0.  1.
         13    1    3    3    0    0  0.39702315422E+02 -0.19443970616E+02 -0.11451068696E+02  0.45666933524E+02  0.00000000000E+00 0. -1.
<mgrwt>
<rscale>  0 0.93511739E+02</rscale>
<asrwt>0</asrwt>
<pdfrwt beam="1">  1        4 0.39709992E-02 0.93511739E+02</pdfrwt>
<pdfrwt beam="2">  1       -4 0.13030040E-01 0.93511739E+02</pdfrwt>
<totfact> 0.24109556E+04</totfact>
</mgrwt>
</event>
<event>
 5    1  0.1197825E+001  0.9156282E+02  0.7546771E-02  0.1299111E+00
          1   -1    0    0  501    0  0.00000000000E+00  0.00000000000E+00  0.80922291472E+02  0.80922291472E+02  0.00000000000E+00 0. -1.
         -1   -1    0    0    0  501 -0.00000000000E+00 -0.00000000000E+00 -0.25900619644E+02  0.25900619644E+02  0.00000000000E+00 0.  1.
         23    2    1    2    0    0  0.00000000000E+00  0.00000000000E+00  0.55021671829E+02  0.10682291112E+03  0.91562819793E+02 0.  0.
        -13    1    3    3    0    0 -0.27887579783E+02 -0.30448542424E+02  0.50583240069E+02  0.65295444081E+02  0.00000000000E+00 0. -1.
         13    1    3    3    0    0  0.27887579783E+02  0.30448542424E+02  0.44384317602E+01  0.41527467035E+02  0.00000000000E+00 0.  1.
<mgrwt>
<rscale>  0 0.91562820E+02</rscale>
<asrwt>0</asrwt>
<pdfrwt beam="1">  1        1 0.12449583E-01 0.91562820E+02</pdfrwt>
<pdfrwt beam="2">  1       -1 0.39847108E-02 0.91562820E+02</pdfrwt>
<totfact> 0.99762295E+04</totfact>
</mgrwt>
</event>
<event>
 5    1  0.1197825E+001  0.9142846E+02  0.7546771E-02  0.1299429E+00
          2   -1    0    0  501    0  0.00000000000E+00  0.00000000000E+00  0.22999714139E+03  0.22999714139E+03  0.00000000000E+00 0. -1.
         -2   -1    0    0    0  501 -0.00000000000E+00 -0.00000000000E+00 -0.90861602662E+01  0.90861602662E+01  0.00000000000E+00 0.  1.
         23    2    1    2    0    0  0.00000000000E+00  0.00000000000E+00  0.22091098112E+03  0.23908330165E+03  0.91428461376E+02 0.  0.
        -11    1    3    3    0    0 -0.42613209877E+02 -0.83000505525E+01  0.73013406977E+02  0.84945477181E+02  0.00000000000E+00 0.  1.
         11    1    3    3    0    0  0.42613209877E+02  0.83000505525E+01  0.14789757415E+03  0.15413782447E+03  0.00000000000E+00 0. -1.
<mgrwt>
<rscale>  0 0.91428461E+02</rscale>
<asrwt>0</asrwt>
<pdfrwt beam="1">  1        2 0.35384171E-01 0.91428461E+02</pdfrwt>
<pdfrwt beam="2">  1       -2 0.13978710E-02 0.91428461E+02</pdfrwt>
<totfact> 0.16157341E+05</totfact>
</mgrwt>
</event>
<event>
 5    1  0.1197825E+001  0.9055290E+02  0.7546771E-02  0.1301518E+00
          1   -1    0    0  501    0  0.00000000000E+00  0.00000000000E+00  0.15958755594E+03  0.15958755594E+03  0.00000000000E+00 0. -1.
         -1   -1    0    0    0  501 -0.00000000000E+00 -0.00000000000E+00 -0.12845342033E+02  0.12845342033E+02  0.00000000000E+00 0.  1.
         23    2    1    2    0    0  0.00000000000E+00  0.00000000000E+00  0.14674221391E+03  0.17243289798E+03  0.90552895929E+02 0.  0.
        -13    1    3    3    0    0 -0.37337437065E+02 -0.14440087997E+02  0.33095266942E+02  0.51941284562E+02  0.00000000000E+00 0.  1.
         13    1    3    3    0    0  0.37337437065E+02  0.14440087997E+02  0.11364694697E+03  0.12049161341E+03  0.00000000000E+00 0. -1.
<mgrwt>
<rscale>  0 0.90552896E+02</rscale>
<asrwt>0</asrwt>
<pdfrwt beam="1">  1        1 0.24551930E-01 0.90552896E+02</pdfrwt>
<pdfrwt beam="2">  1       -1 0.19762066E-02 0.90552896E+02</pdfrwt>
<totfact> 0.11554139E+05</totfact>
</mgrwt>
</event>
<event>
 5    1  0.1197825E+001  0.8926370E+02  0.7546771E-02  0.1304645E+00
          2   -1    0    0  501    0  0.00000000000E+00  0.00000000000E+00  0.30715220644E+03  0.30715220644E+03  0.00000000000E+00 0. -1.
         -2   -1    0    0    0  501 -0.00000000000E+00 -0.00000000000E+00 -0.64853903360E+01  0.64853903360E+01  0.00000000000E+00 0.  1.
         23    2    1    2    0    0  0.00000000000E+00  0.00000000000E+00  0.30066681611E+03  0.31363759678E+03  0.89263698138E+02 0.  0.
        -11    1    3    3    0    0 -0.61994379048E+01 -0.38066958601E+02  0.71415908252E+02  0.81165006739E+02  0.00000000000E+00 0. -1.
         11    1    3    3    0    0  0.61994379048E+01  0.38066958601E+02  0.22925090785E+03  0.23247259004E+03  0.00000000000E+00 0.  1.
<mgrwt>
<rscale>  0 0.89263698E+02</rscale>
<asrwt>0</asrwt>
<pdfrwt beam="1">  1        2 0.47254174E-01 0.89263698E+02</pdfrwt>
<pdfrwt beam="2">  1       -2 0.99775260E-03 0.89263698E+02</pdfrwt>
<totfact> 0.19176949E+05</totfact>
</mgrwt>
</event>
<event>
 5    1  0.1197825E+001  0.8744153E+02  0.7546771E-02  0.1309168E+00
         -3   -1    0    0    0  501 -0.00000000000E+00  0.00000000000E+00  0.17325208163E+03  0.17325208163E+03  0.00000000000E+00 0.  1.
          3   -1    0    0  501    0  0.00000000000E+00 -0.00000000000E+00 -0.11033087233E+02  0.11033087233E+02  0.00000000000E+00 0. -1.
         23    2    1    2    0    0  0.00000000000E+00  0.00000000000E+00  0.16221899440E+03  0.18428516886E+03  0.87441530864E+02 0.  0.
        -13    1    3    3    0    0 -0.30156179342E+02  0.72242200560E+01  0.16153936450E+02  0.34964756123E+02  0.00000000000E+00 0. -1.
         13    1    3    3    0    0  0.30156179342E+02 -0.72242200560E+01  0.14606505795E+03  0.14932041274E+03  0.00000000000E+00 0.  1.
<mgrwt>
<rscale>  0 0.87441531E+02</rscale>
<asrwt>0</asrwt>
<pdfrwt beam="2">  1        3 0.16973982E-02 0.87441531E+02</pdfrwt>
<pdfrwt beam="1">  1       -3 0.26654164E-01 0.87441531E+02</pdfrwt>
<totfact> 0.32825201E+04</totfact>
</mgrwt>
</event>
<event>
 5    1  0.1197825E+001  0.9024321E+02  0.7546771E-02  0.1302264E+00
         -1   -1    0    0    0  501 -0.00000000000E+00  0.00000000000E+00  0.18825894484E+02  0.18825894484E+02  0.00000000000E+00 0.  1.
          1   -1    0    0  501    0  0.00000000000E+00 -0.00000000000E+00 -0.10814675793E+03  0.10814675793E+03  0.00000000000E+00 0. -1.
         23    2    1    2    0    0  0.00000000000E+00  0.00000000000E+00 -0.89320863449E+02  0.12697265242E+03  0.90243214784E+02 0.  0.
        -11    1    3    3    0    0 -0.32806245005E+02  0.10289495096E+02 -0.35470809842E+01  0.34564507868E+02  0.00000000000E+00 0.  1.
         11    1    3    3    0    0  0.32806245005E+02 -0.10289495096E+02 -0.85773782465E+02  0.92408144549E+02  0.00000000000E+00 0. -1.
<mgrwt>
<rscale>  0 0.90243215E+02</rscale>
<asrwt>0</asrwt>
<pdfrwt beam="2">  1        1 0.16637963E-01 0.90243215E+02</pdfrwt>
<pdfrwt beam="1">  1       -1 0.28962915E-02 0.90243215E+02</pdfrwt>
<totfact> 0.10883466E+05</totfact>
</mgrwt>
</event>
<event>
 5    1  0.1197825E+001  0.9223101E+02  0.7546771E-02  0.1297537E+00
         -2   -1    0    0    0  501 -0.00000000000E+00  0.00000000000E+00  0.23082350691E+03  0.23082350691E+03  0.00000000000E+00 0.  1.
          2   -1    0    0  501    0  0.00000000000E+00 -0.00000000000E+00 -0.92132728827E+01  0.92132728827E+01  0.00000000000E+00 0. -1.
         23    2    1    2    0    0  0.00000000000E+00  0.00000000000E+00  0.22161023403E+03  0.24003677979E+03  0.92231013372E+02 0.  0.
        -13    1    3    3    0    0 -0.25463729350E+02  0.32787198830E+02  0.16306657935E+03  0.16826797443E+03  0.00000000000E+00 0.  1.
         13    1    3    3    0    0  0.25463729350E+02 -0.32787198830E+02  0.58543654681E+02  0.71768805361E+02  0.00000000000E+00 0. -1.
<mgrwt>
<rscale>  0 0.92231013E+02</rscale>
<asrwt>0</asrwt>
<pdfrwt beam="2">  1        2 0.14174268E-02 0.92231013E+02</pdfrwt>
<pdfrwt beam="1">  1       -2 0.35511304E-01 0.92231013E+02</pdfrwt>
<totfact> 0.56703854E+04</totfact>
</mgrwt>
</event>
<event>
 5    1  0.1197825E+001  0.9180669E+02  0.7546771E-02  0.1298535E+00
          2   -1    0    0  501    0  0.00000000000E+00  0.00000000000E+00  0.24560971317E+03  0.24560971317E+03  0.00000000000E+00 0. -1.
         -2   -1    0    0    0  501 -0.00000000000E+00 -0.00000000000E+00 -0.85791269111E+01  0.85791269111E+01  0.00000000000E+00 0.  1.
         23    2    1    2    0    0  0.00000000000E+00  0.00000000000E+00  0.23703058625E+03  0.25418884008E+03  0.91806686028E+02 0.  0.
        -13    1    3    3    0    0 -0.33453231466E+02  0.21873618453E+02  0.18101422526E+03  0.18537454956E+03  0.00000000000E+00 0.  1.
         13    1    3    3    0    0  0.33453231466E+02 -0.21873618453E+02  0.56016360999E+02  0.68814290517E+02  0.00000000000E+00 0. -1.
<mgrwt>
<rscale>  0 0.91806686E+02</rscale>
<asrwt>0</asrwt>
<pdfrwt beam="1">  1        2 0.37786104E-01 0.91806686E+02</pdfrwt>
<pdfrwt beam="2">  1       -2 0.13198659E-02 0.91806686E+02</pdfrwt>
<totfact> 0.16371314E+05</totfact>
</mgrwt>
</event>
<event>
 5    1  0.1197825E+001  0.9051224E+02  0.7546771E-02  0.1301616E+00
         -1   -1    0    0    0  501 -0.00000000000E+00  0.00000000000E+00  0.56507919518E+01  0.56507919518E+01  0.00000000000E+00 0.  1.
          1   -1    0    0  501    0  0.00000000000E+00 -0.00000000000E+00 -0.36244765716E+03  0.36244765716E+03  0.00000000000E+00 0. -1.
         23    2    1    2    0    0  0.00000000000E+00  0.00000000000E+00 -0.35679686520E+03  0.36809844911E+03  0.90512237935E+02 0.  0.
        -11    1    3    3    0    0  0.16529331672E+02  0.41701164640E+02 -0.20276905391E+03  0.20767160413E+03  0.00000000000E+00 0. -1.
         11    1    3    3    0    0 -0.16529331672E+02 -0.41701164640E+02 -0.15402781129E+03  0.16042684498E+03  0.00000000000E+00 0.  1.
<mgrwt>
<rscale>  0 0.90512238E+02</rscale>
<asrwt>0</asrwt>
<pdfrwt beam="2">  1        1 0.55761182E-01 0.90512238E+02</pdfrwt>
<pdfrwt beam="1">  1       -1 0.86935255E-03 0.90512238E+02</pdfrwt>
<totfact> 0.13525225E+05</totfact>
</mgrwt>
</event>
<event>
 5    1  0.1197825E+001  0.9066269E+02  0.7546771E-02  0.1301255E+00
         -1   -1    0    0    0  501 -0.00000000000E+00  0.00000000000E+00  0.88483827643E+01  0.88483827643E+01  0.00000000000E+00 0.  1.
          1   -1    0    0  501    0  0.00000000000E+00 -0.00000000000E+00 -0.23223801945E+03  0.23223801945E+03  0.00000000000E+00 0. -1.
         23    2    1    2    0    0  0.00000000000E+00  0.00000000000E+00 -0.22338963668E+03  0.24108640221E+03  0.90662691081E+02 0.  0.
        -11    1    3    3    0    0  0.28858432648E+02  0.23691916610E+02 -0.18005197726E+03  0.18388265433E+03  0.00000000000E+00 0. -1.
         11    1    3    3    0    0 -0.28858432648E+02 -0.23691916610E+02 -0.43337659421E+02  0.57203747881E+02  0.00000000000E+00 0.  1.
<mgrwt>
<rscale>  0 0.90662691E+02</rscale>
<asrwt>0</asrwt>
<pdfrwt beam="2">  1        1 0.35728922E-01 0.90662691E+02</pdfrwt>
<pdfrwt beam="1">  1       -1 0.13612898E-02 0.90662691E+02</pdfrwt>
<totfact> 0.12376186E+05</totfact>
</mgrwt>
</event>
<event>
 5    1  0.1197825E+001  0.9120639E+02  0.7546771E-02  0.1299956E+00
          1   -1    0    0  501    0  0.00000000000E+00  0.00000000000E+00  0.67898949986E+02  0.67898949986E+02  0.00000000000E+00 0. -1.
         -1   -1    0    0    0  501 -0.00000000000E+00 -0.00000000000E+00 -0.30628625814E+02  0.30628625814E+02  0.00000000000E+00 0.  1.
         23    2    1    2    0    0  0.00000000000E+00  0.00000000000E+00  0.37270324173E+02  0.98527575800E+02  0.91206393028E+02 0.  0.
        -13    1    3    3    0    0  0.22729118916E+02  0.32137031436E+02 -0.62403948327E+01  0.39854035728E+02  0.00000000000E+00 0.  1.
         13    1    3    3    0    0 -0.22729118916E+02 -0.32137031436E+02  0.43510719005E+02  0.58673540072E+02  0.00000000000E+00 0. -1.
<mgrwt>
<rscale>  0 0.91206393E+02</rscale>
<asrwt>0</asrwt>
<pdfrwt beam="1">  1        1 0.10445992E-01 0.91206393E+02</pdfrwt>
<pdfrwt beam="2">  1       -1 0.47120963E-02 0.91206393E+02</pdfrwt>
<totfact> 0.98117115E+04</totfact>
</mgrwt>
</event>
<event>
 5    1  0.1197825E+001  0.9089258E+02  0.7546771E-02  0.1300704E+00
          1   -1    0    0  501    0  0.00000000000E+00  0.00000000000E+00  0.92358149883E+02  0.92358149883E+02  0.00000000000E+00 0. -1.
         -1   -1    0    0    0  501 -0.00000000000E+00 -0.00000000000E+00 -0.22362568149E+02  0.22362568149E+02  0.00000000000E+00 0.  1.
         23    2    1    2    0    0  0.00000000000E+00  0.00000000000E+00  0.69995581734E+02  0.11472071803E+03  0.90892583215E+02 0.  0.
        -11    1    3    3    0    0 -0.39620139868E+02 -0.28381511376E+01  0.71285496676E+01  0.40356248654E+02  0.00000000000E+00 0.  1.
         11    1    3    3    0    0  0.39620139868E+02  0.28381511376E+01  0.62867032067E+02  0.74364469378E+02  0.00000000000E+00 0. -1.
<mgrwt>
<rscale>  0 0.90892583E+02</rscale>
<asrwt>0</asrwt>
<pdfrwt beam="1">  1        1 0.14208946E-01 0.90892583E+02</pdfrwt>
<pdfrwt beam="2">  1       -1 0.34403952E-02 0.90892583E+02</pdfrwt>
<totfact> 0.10397637E+05</totfact>
</mgrwt>
</event>
<event>
 5    1  0.1197825E+001  0.9291809E+02  0.7546771E-02  0.1295935E+00
          2   -1    0    0  501    0  0.00000000000E+00  0.00000000000E+00  0.19129137120E+03  0.19129137120E+03  0.00000000000E+00 0. -1.
         -2   -1    0    0    0  501 -0.00000000000E+00 -0.00000000000E+00 -0.11283535875E+02  0.11283535875E+02  0.00000000000E+00 0.  1.
         23    2    1    2    0    0  0.00000000000E+00  0.00000000000E+00  0.18000783533E+03  0.20257490708E+03  0.92918094032E+02 0.  0.
        -11    1    3    3    0    0 -0.14341468499E+02  0.25227603238E+02  0.10905408072E+02  0.31000606592E+02  0.00000000000E+00 0.  1.
         11    1    3    3    0    0  0.14341468499E+02 -0.25227603238E+02  0.16910242726E+03  0.17157430049E+03  0.00000000000E+00 0. -1.
<mgrwt>
<rscale>  0 0.92918094E+02</rscale>
<asrwt>0</asrwt>
<pdfrwt beam="1">  1        2 0.29429439E-01 0.92918094E+02</pdfrwt>
<pdfrwt beam="2">  1       -2 0.17359287E-02 0.92918094E+02</pdfrwt>
<totfact> 0.14463679E+05</totfact>
</mgrwt>
</event>
<event>
 5    1  0.1197825E+001  0.9076708E+02  0.7546771E-02  0.1301005E+00
         -1   -1    0    0    0  501 -0.00000000000E+00  0.00000000000E+00  0.28383678208E+02  0.28383678208E+02  0.00000000000E+00 0.  1.
          1   -1    0    0  501    0  0.00000000000E+00 -0.00000000000E+00 -0.72565138890E+02  0.72565138890E+02  0.00000000000E+00 0. -1.
         23    2    1    2    0    0  0.00000000000E+00  0.00000000000E+00 -0.44181460682E+02  0.10094881710E+03  0.90767076661E+02 0.  0.
        -13    1    3    3    0    0 -0.23534648609E+01  0.17003956333E+02 -0.68815189612E+02  0.70923928608E+02  0.00000000000E+00 0. -1.
         13    1    3    3    0    0  0.23534648609E+01 -0.17003956333E+02  0.24633728931E+02  0.30024888490E+02  0.00000000000E+00 0.  1.
<mgrwt>
<rscale>  0 0.90767077E+02</rscale>
<asrwt>0</asrwt>
<pdfrwt beam="2">  1        1 0.11163867E-01 0.90767077E+02</pdfrwt>
<pdfrwt beam="1">  1       -1 0.43667198E-02 0.90767077E+02</pdfrwt>
<totfact> 0.10045600E+05</totfact>
</mgrwt>
</event>
<event>
 5    1  0.1197825E+001  0.9071813E+02  0.7546771E-02  0.1301122E+00
          1   -1    0    0  501    0  0.00000000000E+00  0.00000000000E+00  0.63252245991E+02  0.63252245991E+02  0.00000000000E+00 0. -1.
         -1   -1    0    0    0  501 -0.00000000000E+00 -0.00000000000E+00 -0.32527612595E+02  0.32527612595E+02  0.00000000000E+00 0.  1.
         23    2    1    2    0    0  0.00000000000E+00  0.00000000000E+00  0.30724633396E+02  0.95779858587E+02  0.90718125055E+02 0.  0.
        -11    1    3    3    0    0 -0.18253632345E+02 -0.10906466403E+02  0.57664035988E+02  0.61459638378E+02  0.00000000000E+00 0. -1.
         11    1    3    3    0    0  0.18253632345E+02  0.10906466403E+02 -0.26939402591E+02  0.34320220208E+02  0.00000000000E+00 0.  1.
<mgrwt>
<rscale>  0 0.90718125E+02</rscale>
<asrwt>0</asrwt>
<pdfrwt beam="1">  1        1 0.97311148E-02 0.90718125E+02</pdfrwt>
<pdfrwt beam="2">  1       -1 0.50042481E-02 0.90718125E+02</pdfrwt>
<totfact> 0.98511204E+04</totfact>
</mgrwt>
</event>
<event>
 5    1  0.1197825E+001  0.8953115E+02  0.7546771E-02  0.1303991E+00
         -1   -1    0    0    0  501 -0.00000000000E+00  0.00000000000E+00  0.60904934216E+02  0.60904934216E+02  0.00000000000E+00 0.  1.
          1   -1    0    0  501    0  0.00000000000E+00 -0.00000000000E+00 -0.32903027038E+02  0.32903027038E+02  0.00000000000E+00 0. -1.
         23    2    1    2    0    0  0.00000000000E+00  0.00000000000E+00  0.28001907178E+02  0.93807961254E+02  0.89531149826E+02 0.  0.
        -13    1    3    3    0    0  0.38835108048E+02  0.21964986792E+02  0.10175458024E+02  0.45762060791E+02  0.00000000000E+00 0.  1.
         13    1    3    3    0    0 -0.38835108048E+02 -0.21964986792E+02  0.17826449154E+02  0.48045900463E+02  0.00000000000E+00 0. -1.
<mgrwt>
<rscale>  0 0.89531150E+02</rscale>
<asrwt>0</asrwt>
<pdfrwt beam="2">  1        1 0.50620042E-02 0.89531150E+02</pdfrwt>
<pdfrwt beam="1">  1       -1 0.93699899E-02 0.89531150E+02</pdfrwt>
<totfact> 0.92653550E+04</totfact>
</mgrwt>
</event>
<event>
 5    1  0.1197825E+001  0.9638200E+02  0.7546771E-02  0.1288093E+00
          2   -1    0    0  501    0  0.00000000000E+00  0.00000000000E+00  0.40064942172E+03  0.40064942172E+03  0.00000000000E+00 0. -1.
         -2   -1    0    0    0  501 -0.00000000000E+00 -0.00000000000E+00 -0.57965202792E+01  0.57965202792E+01  0.00000000000E+00 0.  1.
         23    2    1    2    0    0  0.00000000000E+00  0.00000000000E+00  0.39485290144E+03  0.40644594200E+03  0.96382000350E+02 0.  0.
        -11    1    3    3    0    0  0.47210253186E+02  0.31970801942E+00  0.15665792195E+03  0.16361728127E+03  0.00000000000E+00 0.  1.
         11    1    3    3    0    0 -0.47210253186E+02 -0.31970801942E+00  0.23819497949E+03  0.24282866073E+03  0.00000000000E+00 0. -1.
<mgrwt>
<rscale>  0 0.96382000E+02</rscale>
<asrwt>0</asrwt>
<pdfrwt beam="1">  1        2 0.61638351E-01 0.96382000E+02</pdfrwt>
<pdfrwt beam="2">  1       -2 0.89177266E-03 0.96382000E+02</pdfrwt>
<totfact> 0.17228164E+05</totfact>
</mgrwt>
</event>
<event>
 5    1  0.1197825E+001  0.8842081E+02  0.7546771E-02  0.1306722E+00
          2   -1    0    0  501    0  0.00000000000E+00  0.00000000000E+00  0.90455520985E+02  0.90455520985E+02  0.00000000000E+00 0. -1.
         -2   -1    0    0    0  501 -0.00000000000E+00 -0.00000000000E+00 -0.21607966382E+02  0.21607966382E+02  0.00000000000E+00 0.  1.
         23    2    1    2    0    0  0.00000000000E+00  0.00000000000E+00  0.68847554604E+02  0.11206348737E+03  0.88420808783E+02 0.  0.
        -11    1    3    3    0    0  0.25664625801E+01  0.30098663689E+02 -0.64883996856E+01  0.30896854477E+02  0.00000000000E+00 0.  1.
         11    1    3    3    0    0 -0.25664625801E+01 -0.30098663689E+02  0.75335954289E+02  0.81166632890E+02  0.00000000000E+00 0. -1.
<mgrwt>
<rscale>  0 0.88420809E+02</rscale>
<asrwt>0</asrwt>
<pdfrwt beam="1">  1        2 0.13916234E-01 0.88420809E+02</pdfrwt>
<pdfrwt beam="2">  1       -2 0.33243026E-02 0.88420809E+02</pdfrwt>
<totfact> 0.12954221E+05</totfact>
</mgrwt>
</event>
<event>
 5    1  0.1197825E+001  0.9059735E+02  0.7546771E-02  0.1301412E+00
         -3   -1    0    0    0  501 -0.00000000000E+00  0.00000000000E+00  0.79158208328E+02  0.79158208328E+02  0.00000000000E+00 0.  1.
          3   -1    0    0  501    0  0.00000000000E+00 -0.00000000000E+00 -0.25922388647E+02  0.25922388647E+02  0.00000000000E+00 0. -1.
         23    2    1    2    0    0  0.00000000000E+00  0.00000000000E+00  0.53235819681E+02  0.10508059698E+03  0.90597347442E+02 0.  0.
        -13    1    3    3    0    0  0.44864440405E+02  0.39502666384E+01  0.32246205248E+02  0.55391699489E+02  0.00000000000E+00 0.  1.
         13    1    3    3    0    0 -0.44864440405E+02 -0.39502666384E+01  0.20989614433E+02  0.49688897486E+02  0.00000000000E+00 0. -1.
<mgrwt>
<rscale>  0 0.90597347E+02</rscale>
<asrwt>0</asrwt>
<pdfrwt beam="2">  1        3 0.39880598E-02 0.90597347E+02</pdfrwt>
<pdfrwt beam="1">  1       -3 0.12178186E-01 0.90597347E+02</pdfrwt>
<totfact> 0.34899281E+04</totfact>
</mgrwt>
</event>
<event>
 5    1  0.1197825E+001  0.9813684E+02  0.7546771E-02  0.1284263E+00
         -4   -1    0    0    0  501 -0.00000000000E+00  0.00000000000E+00  0.48051550839E+02  0.48051550839E+02  0.00000000000E+00 0.  1.
          4   -1    0    0  501    0  0.00000000000E+00 -0.00000000000E+00 -0.50106810137E+02  0.50106810137E+02  0.00000000000E+00 0. -1.
         23    2    1    2    0    0  0.00000000000E+00  0.00000000000E+00 -0.20552592985E+01  0.98158360976E+02  0.98136841903E+02 0.  0.
        -11    1    3    3    0    0 -0.22431423866E+02 -0.26530043621E+02  0.33631057143E+02  0.48353490006E+02  0.00000000000E+00 0.  1.
         11    1    3    3    0    0  0.22431423866E+02  0.26530043621E+02 -0.35686316442E+02  0.49804870970E+02  0.00000000000E+00 0. -1.
<mgrwt>
<rscale>  0 0.98136842E+02</rscale>
<asrwt>0</asrwt>
<pdfrwt beam="2">  1        4 0.77087400E-02 0.98136842E+02</pdfrwt>
<pdfrwt beam="1">  1       -4 0.73925463E-02 0.98136842E+02</pdfrwt>
<totfact> 0.21739442E+04</totfact>
</mgrwt>
</event>
<event>
 5    1  0.1197825E+001  0.1054209E+03  0.7546771E-02  0.1269293E+00
         -1   -1    0    0    0  501 -0.00000000000E+00  0.00000000000E+00  0.41454415361E+02  0.41454415361E+02  0.00000000000E+00 0.  1.
          1   -1    0    0  501    0  0.00000000000E+00 -0.00000000000E+00 -0.67022835692E+02  0.67022835692E+02  0.00000000000E+00 0. -1.
         23    2    1    2    0    0  0.00000000000E+00  0.00000000000E+00 -0.25568420332E+02  0.10847725105E+03  0.10542091765E+03 0.  0.
        -11    1    3    3    0    0  0.25636667094E+02  0.83385073360E+01  0.33823811086E+02  0.43252972160E+02  0.00000000000E+00 0.  1.
         11    1    3    3    0    0 -0.25636667094E+02 -0.83385073360E+01 -0.59392231418E+02  0.65224278893E+02  0.00000000000E+00 0. -1.
<mgrwt>
<rscale>  0 0.10542092E+03</rscale>
<asrwt>0</asrwt>
<pdfrwt beam="2">  1        1 0.10311205E-01 0.10542092E+03</pdfrwt>
<pdfrwt beam="1">  1       -1 0.63776024E-02 0.10542092E+03</pdfrwt>
<totfact> 0.65336814E+04</totfact>
</mgrwt>
</event>
<event>
 5    1  0.1197825E+001  0.9237545E+02  0.7546771E-02  0.1297199E+00
          2   -1    0    0  501    0  0.00000000000E+00  0.00000000000E+00  0.92197301880E+02  0.92197301880E+02  0.00000000000E+00 0.  1.
         -2   -1    0    0    0  501 -0.00000000000E+00 -0.00000000000E+00 -0.23138483085E+02  0.23138483085E+02  0.00000000000E+00 0. -1.
         23    2    1    2    0    0  0.00000000000E+00  0.00000000000E+00  0.69058818795E+02  0.11533578496E+03  0.92375445006E+02 0.  0.
        -13    1    3    3    0    0 -0.18955665036E+01  0.40222325667E+02  0.62777582361E+02  0.74581857724E+02  0.00000000000E+00 0. -1.
         13    1    3    3    0    0  0.18955665036E+01 -0.40222325667E+02  0.62812364335E+01  0.40753927241E+02  0.00000000000E+00 0.  1.
<mgrwt>
<rscale>  0 0.92375445E+02</rscale>
<asrwt>0</asrwt>
<pdfrwt beam="1">  1        2 0.14184200E-01 0.92375445E+02</pdfrwt>
<pdfrwt beam="2">  1       -2 0.35597667E-02 0.92375445E+02</pdfrwt>
<totfact> 0.11546260E+05</totfact>
</mgrwt>
</event>
<event>
 5    1  0.1197825E+001  0.9128306E+02  0.7546771E-02  0.1299774E+00
         -1   -1    0    0    0  501 -0.00000000000E+00  0.00000000000E+00  0.62143717777E+01  0.62143717777E+01  0.00000000000E+00 0.  1.
          1   -1    0    0  501    0  0.00000000000E+00 -0.00000000000E+00 -0.33521474906E+03  0.33521474906E+03  0.00000000000E+00 0. -1.
         23    2    1    2    0    0  0.00000000000E+00  0.00000000000E+00 -0.32900037729E+03  0.34142912084E+03  0.91283055953E+02 0.  0.
        -11    1    3    3    0    0 -0.44504669208E+01 -0.41352965083E+02 -0.94198354375E+02  0.10297186190E+03  0.00000000000E+00 0.  1.
         11    1    3    3    0    0  0.44504669208E+01  0.41352965083E+02 -0.23480202291E+03  0.23845725894E+03  0.00000000000E+00 0. -1.
<mgrwt>
<rscale>  0 0.91283056E+02</rscale>
<asrwt>0</asrwt>
<pdfrwt beam="2">  1        1 0.51571518E-01 0.91283056E+02</pdfrwt>
<pdfrwt beam="1">  1       -1 0.95605687E-03 0.91283056E+02</pdfrwt>
<totfact> 0.13040376E+05</totfact>
</mgrwt>
</event>
<event>
 5    1  0.1197825E+001  0.9183063E+02  0.7546771E-02  0.1298478E+00
         -2   -1    0    0    0  501 -0.00000000000E+00  0.00000000000E+00  0.32975563350E+02  0.32975563350E+02  0.00000000000E+00 0.  1.
          2   -1    0    0  501    0  0.00000000000E+00 -0.00000000000E+00 -0.63932681093E+02  0.63932681093E+02  0.00000000000E+00 0. -1.
         23    2    1    2    0    0  0.00000000000E+00  0.00000000000E+00 -0.30957117743E+02  0.96908244443E+02  0.91830630523E+02 0.  0.
        -13    1    3    3    0    0 -0.24216707959E+02  0.18162032206E+02 -0.51911521972E+02  0.60092549219E+02  0.00000000000E+00 0. -1.
         13    1    3    3    0    0  0.24216707959E+02 -0.18162032206E+02  0.20954404229E+02  0.36815695224E+02  0.00000000000E+00 0.  1.
<mgrwt>
<rscale>  0 0.91830631E+02</rscale>
<asrwt>0</asrwt>
<pdfrwt beam="2">  1        2 0.98357970E-02 0.91830631E+02</pdfrwt>
<pdfrwt beam="1">  1       -2 0.50731636E-02 0.91830631E+02</pdfrwt>
<totfact> 0.10575384E+05</totfact>
</mgrwt>
</event>
<event>
 5    1  0.1197825E+001  0.9442704E+02  0.7546771E-02  0.1292472E+00
          3   -1    0    0  501    0  0.00000000000E+00  0.00000000000E+00  0.32396547976E+03  0.32396547976E+03  0.00000000000E+00 0. -1.
         -3   -1    0    0    0  501 -0.00000000000E+00 -0.00000000000E+00 -0.68807220044E+01  0.68807220044E+01  0.00000000000E+00 0.  1.
         23    2    1    2    0    0  0.00000000000E+00  0.00000000000E+00  0.31708475775E+03  0.33084620176E+03  0.94427038612E+02 0.  0.
        -11    1    3    3    0    0 -0.33697812379E+02 -0.29375291921E+02  0.21175585653E+03  0.21642318062E+03  0.00000000000E+00 0.  1.
         11    1    3    3    0    0  0.33697812379E+02  0.29375291921E+02  0.10532890122E+03  0.11442302114E+03  0.00000000000E+00 0. -1.
<mgrwt>
<rscale>  0 0.94427039E+02</rscale>
<asrwt>0</asrwt>
<pdfrwt beam="1">  1        3 0.49840831E-01 0.94427039E+02</pdfrwt>
<pdfrwt beam="2">  1       -3 0.10585729E-02 0.94427039E+02</pdfrwt>
<totfact> 0.20827534E+04</totfact>
</mgrwt>
</event>
<event>
 5    1  0.1197825E+001  0.9243921E+02  0.7546771E-02  0.1297050E+00
         -3   -1    0    0    0  501 -0.00000000000E+00  0.00000000000E+00  0.87969490398E+01  0.87969490398E+01  0.00000000000E+00 0.  1.
          3   -1    0    0  501    0  0.00000000000E+00 -0.00000000000E+00 -0.24284008235E+03  0.24284008235E+03  0.00000000000E+00 0. -1.
         23    2    1    2    0    0  0.00000000000E+00  0.00000000000E+00 -0.23404313331E+03  0.25163703139E+03  0.92439208764E+02 0.  0.
        -11    1    3    3    0    0  0.22210096273E+02  0.35535431049E+02 -0.63942601886E+02  0.76450713353E+02  0.00000000000E+00 0.  1.
         11    1    3    3    0    0 -0.22210096273E+02 -0.35535431049E+02 -0.17010053142E+03  0.17518631803E+03  0.00000000000E+00 0. -1.
<mgrwt>
<rscale>  0 0.92439209E+02</rscale>
<asrwt>0</asrwt>
<pdfrwt beam="2">  1        3 0.37360013E-01 0.92439209E+02</pdfrwt>
<pdfrwt beam="1">  1       -3 0.13533768E-02 0.92439209E+02</pdfrwt>
<totfact> 0.25084074E+04</totfact>
</mgrwt>
</event>
<event>
 5    1  0.1197825E+001  0.8516731E+02  0.7546771E-02  0.1314996E+00
         -3   -1    0    0    0  501 -0.00000000000E+00  0.00000000000E+00  0.47281826059E+03  0.47281826059E+03  0.00000000000E+00 0.  1.
          3   -1    0    0  501    0  0.00000000000E+00 -0.00000000000E+00 -0.38352320963E+01  0.38352320963E+01  0.00000000000E+00 0. -1.
         23    2    1    2    0    0  0.00000000000E+00  0.00000000000E+00  0.46898302850E+03  0.47665349269E+03  0.85167312244E+02 0.  0.
        -13    1    3    3    0    0 -0.35397291131E+02  0.23590057088E+02  0.24555645547E+03  0.24921362691E+03  0.00000000000E+00 0.  1.
         13    1    3    3    0    0  0.35397291131E+02 -0.23590057088E+02  0.22342657303E+03  0.22743986578E+03  0.00000000000E+00 0. -1.
<mgrwt>
<rscale>  0 0.85167312E+02</rscale>
<asrwt>0</asrwt>
<pdfrwt beam="2">  1        3 0.59003608E-03 0.85167312E+02</pdfrwt>
<pdfrwt beam="1">  1       -3 0.72741225E-01 0.85167312E+02</pdfrwt>
<totfact> 0.22139411E+04</totfact>
</mgrwt>
</event>
<event>
 5    1  0.1197825E+001  0.9257130E+02  0.7546771E-02  0.1296742E+00
          3   -1    0    0  501    0  0.00000000000E+00  0.00000000000E+00  0.89915487741E+01  0.89915487741E+01  0.00000000000E+00 0. -1.
         -3   -1    0    0    0  501 -0.00000000000E+00 -0.00000000000E+00 -0.23826391401E+03  0.23826391401E+03  0.00000000000E+00 0.  1.
         23    2    1    2    0    0  0.00000000000E+00  0.00000000000E+00 -0.22927236524E+03  0.24725546278E+03  0.92571304494E+02 0.  0.
        -13    1    3    3    0    0 -0.12067202648E+02 -0.31018158250E+02 -0.20054931312E+03  0.20329232773E+03  0.00000000000E+00 0.  1.
         13    1    3    3    0    0  0.12067202648E+02  0.31018158250E+02 -0.28723052117E+02  0.43963135055E+02  0.00000000000E+00 0. -1.
<mgrwt>
<rscale>  0 0.92571304E+02</rscale>
<asrwt>0</asrwt>
<pdfrwt beam="1">  1        3 0.13833151E-02 0.92571304E+02</pdfrwt>
<pdfrwt beam="2">  1       -3 0.36655990E-01 0.92571304E+02</pdfrwt>
<totfact> 0.25170497E+04</totfact>
</mgrwt>
</event>
<event>
 5    1  0.1197825E+001  0.9307811E+02  0.7546771E-02  0.1295564E+00
         -2   -1    0    0    0  501 -0.00000000000E+00  0.00000000000E+00  0.11066363412E+02  0.11066363412E+02  0.00000000000E+00 0.  1.
          2   -1    0    0  501    0  0.00000000000E+00 -0.00000000000E+00 -0.19571775521E+03  0.19571775521E+03  0.00000000000E+00 0. -1.
         23    2    1    2    0    0  0.00000000000E+00  0.00000000000E+00 -0.18465139180E+03  0.20678411862E+03  0.93078113546E+02 0.  0.
        -11    1    3    3    0    0 -0.16660680958E+02 -0.24298503396E+02 -0.17236222720E+03  0.17486203968E+03  0.00000000000E+00 0. -1.
         11    1    3    3    0    0  0.16660680958E+02  0.24298503396E+02 -0.12289164601E+02  0.31922078940E+02  0.00000000000E+00 0.  1.
<mgrwt>
<rscale>  0 0.93078114E+02</rscale>
<asrwt>0</asrwt>
<pdfrwt beam="2">  1        2 0.30110420E-01 0.93078114E+02</pdfrwt>
<pdfrwt beam="1">  1       -2 0.17025177E-02 0.93078114E+02</pdfrwt>
<totfact> 0.14515985E+05</totfact>
</mgrwt>
</event>
<event>
 5    1  0.1197825E+001  0.9170814E+02  0.7546771E-02  0.1298767E+00
          1   -1    0    0  501    0  0.00000000000E+00  0.00000000000E+00  0.17583029070E+03  0.17583029070E+03  0.00000000000E+00 0. -1.
         -1   -1    0    0    0  501 -0.00000000000E+00 -0.00000000000E+00 -0.11958097975E+02  0.11958097975E+02  0.00000000000E+00 0.  1.
         23    2    1    2    0    0  0.00000000000E+00  0.00000000000E+00  0.16387219272E+03  0.18778838867E+03  0.91708142346E+02 0.  0.
        -13    1    3    3    0    0  0.33827810776E+02  0.50839636227E+01  0.14446323856E+03  0.14845805725E+03  0.00000000000E+00 0. -1.
         13    1    3    3    0    0 -0.33827810776E+02 -0.50839636227E+01  0.19408954165E+02  0.39330331422E+02  0.00000000000E+00 0.  1.
<mgrwt>
<rscale>  0 0.91708142E+02</rscale>
<asrwt>0</asrwt>
<pdfrwt beam="1">  1        1 0.27050812E-01 0.91708142E+02</pdfrwt>
<pdfrwt beam="2">  1       -1 0.18397075E-02 0.91708142E+02</pdfrwt>
<totfact> 0.11371650E+05</totfact>
</mgrwt>
</event>
<event>
 5    1  0.1197825E+001  0.9296582E+02  0.7546771E-02  0.1295824E+00
          1   -1    0    0  501    0  0.00000000000E+00  0.00000000000E+00  0.54875475774E+01  0.54875475774E+01  0.00000000000E+00 0. -1.
         -1   -1    0    0    0  501 -0.00000000000E+00 -0.00000000000E+00 -0.39373891040E+03  0.39373891040E+03  0.00000000000E+00 0.  1.
         23    2    1    2    0    0  0.00000000000E+00  0.00000000000E+00 -0.38825136282E+03  0.39922645798E+03  0.92965821761E+02 0.  0.
        -13    1    3    3    0    0  0.10220365048E+02 -0.42530590251E+02 -0.12658654507E+03  0.13393080438E+03  0.00000000000E+00 0. -1.
         13    1    3    3    0    0 -0.10220365048E+02  0.42530590251E+02 -0.26166481775E+03  0.26529565360E+03  0.00000000000E+00 0.  1.
<mgrwt>
<rscale>  0 0.92965822E+02</rscale>
<asrwt>0</asrwt>
<pdfrwt beam="1">  1        1 0.84423786E-03 0.92965822E+02</pdfrwt>
<pdfrwt beam="2">  1       -1 0.60575233E-01 0.92965822E+02</pdfrwt>
<totfact> 0.51044228E+04</totfact>
</mgrwt>
</event>
<event>
 5    1  0.1197825E+001  0.8764928E+02  0.7546771E-02  0.1308646E+00
         -2   -1    0    0    0  501 -0.00000000000E+00  0.00000000000E+00  0.18621087084E+02  0.18621087084E+02  0.00000000000E+00 0.  1.
          2   -1    0    0  501    0  0.00000000000E+00 -0.00000000000E+00 -0.10314108920E+03  0.10314108920E+03  0.00000000000E+00 0. -1.
         23    2    1    2    0    0  0.00000000000E+00  0.00000000000E+00 -0.84520002117E+02  0.12176217629E+03  0.87649283032E+02 0.  0.
        -11    1    3    3    0    0  0.13320900253E+02  0.38491791339E+02 -0.64726158222E+02  0.76475747412E+02  0.00000000000E+00 0. -1.
         11    1    3    3    0    0 -0.13320900253E+02 -0.38491791339E+02 -0.19793843895E+02  0.45286428874E+02  0.00000000000E+00 0.  1.
<mgrwt>
<rscale>  0 0.87649283E+02</rscale>
<asrwt>0</asrwt>
<pdfrwt beam="2">  1        2 0.15867860E-01 0.87649283E+02</pdfrwt>
<pdfrwt beam="1">  1       -2 0.28647827E-02 0.87649283E+02</pdfrwt>
<totfact> 0.13797929E+05</totfact>
</mgrwt>
</event>
<event>
 5    1  0.1197825E+001  0.9014646E+02  0.7546771E-02  0.1302497E+00
         -1   -1    0    0    0  501 -0.00000000000E+00  0.00000000000E+00  0.85657010891E+01  0.85657010891E+01  0.00000000000E+00 0.  1.
          1   -1    0    0  501    0  0.00000000000E+00 -0.00000000000E+00 -0.23717802731E+03  0.23717802731E+03  0.00000000000E+00 0. -1.
         23    2    1    2    0    0  0.00000000000E+00  0.00000000000E+00 -0.22861232622E+03  0.24574372840E+03  0.90146460536E+02 0.  0.
        -13    1    3    3    0    0  0.26832879403E+02  0.27088139067E+02 -0.48777384272E+02  0.61911258359E+02  0.00000000000E+00 0.  1.
         13    1    3    3    0    0 -0.26832879403E+02 -0.27088139067E+02 -0.17983494194E+03  0.18383247004E+03  0.00000000000E+00 0. -1.
<mgrwt>
<rscale>  0 0.90146461E+02</rscale>
<asrwt>0</asrwt>
<pdfrwt beam="2">  1        1 0.36488919E-01 0.90146461E+02</pdfrwt>
<pdfrwt beam="1">  1       -1 0.13178005E-02 0.90146461E+02</pdfrwt>
<totfact> 0.12617939E+05</totfact>
</mgrwt>
</event>
<event>
 5    1  0.1197825E+001  0.9099097E+02  0.7546771E-02  0.1300470E+00
         -2   -1    0    0    0  501 -0.00000000000E+00  0.00000000000E+00  0.10761541216E+03  0.10761541216E+03  0.00000000000E+00 0. -1.
          2   -1    0    0  501    0  0.00000000000E+00 -0.00000000000E+00 -0.19233670072E+02  0.19233670072E+02  0.00000000000E+00 0.  1.
         23    2    1    2    0    0  0.00000000000E+00  0.00000000000E+00  0.88381742086E+02  0.12684908223E+03  0.90990973886E+02 0.  0.
        -11    1    3    3    0    0  0.42363174411E+02  0.65529793752E+01  0.22944951956E+02  0.48621506611E+02  0.00000000000E+00 0.  1.
         11    1    3    3    0    0 -0.42363174411E+02 -0.65529793752E+01  0.65436790130E+02  0.78227575620E+02  0.00000000000E+00 0. -1.
<mgrwt>
<rscale>  0 0.90990974E+02</rscale>
<asrwt>0</asrwt>
<pdfrwt beam="2">  1        2 0.29590262E-02 0.90990974E+02</pdfrwt>
<pdfrwt beam="1">  1       -2 0.16556217E-01 0.90990974E+02</pdfrwt>
<totfact> 0.78450899E+04</totfact>
</mgrwt>
</event>
<event>
 5    1  0.1197825E+001  0.9039859E+02  0.7546771E-02  0.1301889E+00
         -1   -1    0    0    0  501 -0.00000000000E+00  0.00000000000E+00  0.67362763259E+02  0.67362763259E+02  0.00000000000E+00 0.  1.
          1   -1    0    0  501    0  0.00000000000E+00 -0.00000000000E+00 -0.30327978358E+02  0.30327978358E+02  0.00000000000E+00 0. -1.
         23    2    1    2    0    0  0.00000000000E+00  0.00000000000E+00  0.37034784900E+02  0.97690741617E+02  0.90398593490E+02 0.  0.
        -11    1    3    3    0    0 -0.17488303016E+02  0.16074979042E+01  0.63524940049E+02  0.65907835650E+02  0.00000000000E+00 0.  1.
         11    1    3    3    0    0  0.17488303016E+02 -0.16074979042E+01 -0.26490155148E+02  0.31782905967E+02  0.00000000000E+00 0. -1.
<mgrwt>
<rscale>  0 0.90398593E+02</rscale>
<asrwt>0</asrwt>
<pdfrwt beam="2">  1        1 0.46658428E-02 0.90398593E+02</pdfrwt>
<pdfrwt beam="1">  1       -1 0.10363502E-01 0.90398593E+02</pdfrwt>
<totfact> 0.88995479E+04</totfact>
</mgrwt>
</event>
<event>
 5    1  0.1197825E+001  0.9945415E+02  0.7546771E-02  0.1281448E+00
         -2   -1    0    0    0  501 -0.00000000000E+00  0.00000000000E+00  0.18961071083E+02  0.18961071083E+02  0.00000000000E+00 0.  1.
          2   -1    0    0  501    0  0.00000000000E+00 -0.00000000000E+00 -0.13041363375E+03  0.13041363375E+03  0.00000000000E+00 0. -1.
         23    2    1    2    0    0  0.00000000000E+00  0.00000000000E+00 -0.11145256266E+03  0.14937470483E+03  0.99454153854E+02 0.  0.
        -13    1    3    3    0    0  0.39449783836E+02 -0.29976352801E+02 -0.62083433883E+02  0.79430598227E+02  0.00000000000E+00 0.  1.
         13    1    3    3    0    0 -0.39449783836E+02  0.29976352801E+02 -0.49369128779E+02  0.69944106602E+02  0.00000000000E+00 0. -1.
<mgrwt>
<rscale>  0 0.99454154E+02</rscale>
<asrwt>0</asrwt>
<pdfrwt beam="2">  1        2 0.20063636E-01 0.99454154E+02</pdfrwt>
<pdfrwt beam="1">  1       -2 0.29170879E-02 0.99454154E+02</pdfrwt>
<totfact> 0.10511340E+05</totfact>
</mgrwt>
</event>
<event>
 5    1  0.1197825E+001  0.8014265E+02  0.7546771E-02  0.1328647E+00
          2   -1    0    0  501    0  0.00000000000E+00  0.00000000000E+00  0.53289770495E+02  0.53289770495E+02  0.00000000000E+00 0. -1.
         -2   -1    0    0    0  501 -0.00000000000E+00 -0.00000000000E+00 -0.30131695363E+02  0.30131695363E+02  0.00000000000E+00 0.  1.
         23    2    1    2    0    0  0.00000000000E+00  0.00000000000E+00  0.23158075132E+02  0.83421465858E+02  0.80142651080E+02 0.  0.
        -11    1    3    3    0    0  0.15124371719E+02 -0.12038006098E+02  0.48115663675E+02  0.51853421311E+02  0.00000000000E+00 0. -1.
         11    1    3    3    0    0 -0.15124371719E+02  0.12038006098E+02 -0.24957588543E+02  0.31568044548E+02  0.00000000000E+00 0.  1.
<mgrwt>
<rscale>  0 0.80142651E+02</rscale>
<asrwt>0</asrwt>
<pdfrwt beam="1">  1        2 0.81984262E-02 0.80142651E+02</pdfrwt>
<pdfrwt beam="2">  1       -2 0.46356454E-02 0.80142651E+02</pdfrwt>
<totfact> 0.14759028E+05</totfact>
</mgrwt>
</event>
<event>
 5    1  0.1197825E+001  0.9514064E+02  0.7546771E-02  0.1290860E+00
          2   -1    0    0  501    0  0.00000000000E+00  0.00000000000E+00  0.16574215280E+03  0.16574215280E+03  0.00000000000E+00 0. -1.
         -2   -1    0    0    0  501 -0.00000000000E+00 -0.00000000000E+00 -0.13653348684E+02  0.13653348684E+02  0.00000000000E+00 0.  1.
         23    2    1    2    0    0  0.00000000000E+00  0.00000000000E+00  0.15208880411E+03  0.17939550148E+03  0.95140641239E+02 0.  0.
        -11    1    3    3    0    0  0.15283103544E+02 -0.23734472897E+02  0.38476048343E+01  0.28490393479E+02  0.00000000000E+00 0.  1.
         11    1    3    3    0    0 -0.15283103544E+02  0.23734472897E+02  0.14824119928E+03  0.15090510800E+03  0.00000000000E+00 0. -1.
<mgrwt>
<rscale>  0 0.95140641E+02</rscale>
<asrwt>0</asrwt>
<pdfrwt beam="1">  1        2 0.25498791E-01 0.95140641E+02</pdfrwt>
<pdfrwt beam="2">  1       -2 0.21005153E-02 0.95140641E+02</pdfrwt>
<totfact> 0.12890327E+05</totfact>
</mgrwt>
</event>
<event>
 5    1  0.1197825E+001  0.8951977E+02  0.7546771E-02  0.1304019E+00
          1   -1    0    0  501    0  0.00000000000E+00  0.00000000000E+00  0.25039322943E+03  0.25039322943E+03  0.00000000000E+00 0. -1.
         -1   -1    0    0    0  501 -0.00000000000E+00 -0.00000000000E+00 -0.80012047722E+01  0.80012047722E+01  0.00000000000E+00 0.  1.
         23    2    1    2    0    0  0.00000000000E+00  0.00000000000E+00  0.24239202466E+03  0.25839443420E+03  0.89519774401E+02 0.  0.
        -13    1    3    3    0    0 -0.44010619301E+02 -0.54239857123E+01  0.10361630114E+03  0.11270622030E+03  0.00000000000E+00 0. -1.
         13    1    3    3    0    0  0.44010619301E+02  0.54239857123E+01  0.13877572352E+03  0.14568821390E+03  0.00000000000E+00 0.  1.
<mgrwt>
<rscale>  0 0.89519774E+02</rscale>
<asrwt>0</asrwt>
<pdfrwt beam="1">  1        1 0.38522029E-01 0.89519774E+02</pdfrwt>
<pdfrwt beam="2">  1       -1 0.12309548E-02 0.89519774E+02</pdfrwt>
<totfact> 0.12991036E+05</totfact>
</mgrwt>
</event>
<event>
 5    1  0.1197825E+001  0.8707167E+02  0.7546771E-02  0.1310102E+00
         -3   -1    0    0    0  501 -0.00000000000E+00  0.00000000000E+00  0.48311799634E+02  0.48311799634E+02  0.00000000000E+00 0.  1.
          3   -1    0    0  501    0  0.00000000000E+00 -0.00000000000E+00 -0.39232010813E+02  0.39232010813E+02  0.00000000000E+00 0. -1.
         23    2    1    2    0    0  0.00000000000E+00  0.00000000000E+00  0.90797888208E+01  0.87543810448E+02  0.87071672676E+02 0.  0.
        -13    1    3    3    0    0  0.16080439698E+02 -0.18018702131E+02 -0.31879648299E+02  0.39994576421E+02  0.00000000000E+00 0. -1.
         13    1    3    3    0    0 -0.16080439698E+02  0.18018702131E+02  0.40959437120E+02  0.47549234027E+02  0.00000000000E+00 0.  1.
<mgrwt>
<rscale>  0 0.87071673E+02</rscale>
<asrwt>0</asrwt>
<pdfrwt beam="2">  1        3 0.60356940E-02 0.87071673E+02</pdfrwt>
<pdfrwt beam="1">  1       -3 0.74325846E-02 0.87071673E+02</pdfrwt>
<totfact> 0.40366034E+04</totfact>
</mgrwt>
</event>
<event>
 5    1  0.1197825E+001  0.9255691E+02  0.7546771E-02  0.1296775E+00
          1   -1    0    0  501    0  0.00000000000E+00  0.00000000000E+00  0.17490448504E+03  0.17490448504E+03  0.00000000000E+00 0. -1.
         -1   -1    0    0    0  501 -0.00000000000E+00 -0.00000000000E+00 -0.12244942488E+02  0.12244942488E+02  0.00000000000E+00 0.  1.
         23    2    1    2    0    0  0.00000000000E+00  0.00000000000E+00  0.16265954255E+03  0.18714942753E+03  0.92556909201E+02 0.  0.
        -11    1    3    3    0    0  0.14470912190E+02  0.23691543161E+02  0.64614313373E+01  0.28503449123E+02  0.00000000000E+00 0.  1.
         11    1    3    3    0    0 -0.14470912190E+02 -0.23691543161E+02  0.15619811122E+03  0.15864597841E+03  0.00000000000E+00 0. -1.
<mgrwt>
<rscale>  0 0.92556909E+02</rscale>
<asrwt>0</asrwt>
<pdfrwt beam="1">  1        1 0.26908381E-01 0.92556909E+02</pdfrwt>
<pdfrwt beam="2">  1       -1 0.18838374E-02 0.92556909E+02</pdfrwt>
<totfact> 0.11081798E+05</totfact>
</mgrwt>
</event>
<event>
 5    1  0.1197825E+001  0.8936052E+02  0.7546771E-02  0.1304408E+00
         -2   -1    0    0    0  501 -0.00000000000E+00  0.00000000000E+00  0.25856703273E+03  0.25856703273E+03  0.00000000000E+00 0.  1.
          2   -1    0    0  501    0  0.00000000000E+00 -0.00000000000E+00 -0.77207284024E+01  0.77207284024E+01  0.00000000000E+00 0. -1.
         23    2    1    2    0    0  0.00000000000E+00  0.00000000000E+00  0.25084630433E+03  0.26628776113E+03  0.89360524473E+02 0.  0.
        -11    1    3    3    0    0 -0.36380029519E+02  0.25520377169E+02  0.13925002056E+03  0.14616895848E+03  0.00000000000E+00 0.  1.
         11    1    3    3    0    0  0.36380029519E+02 -0.25520377169E+02  0.11159628377E+03  0.12011880265E+03  0.00000000000E+00 0. -1.
<mgrwt>
<rscale>  0 0.89360524E+02</rscale>
<asrwt>0</asrwt>
<pdfrwt beam="2">  1        2 0.11878046E-02 0.89360524E+02</pdfrwt>
<pdfrwt beam="1">  1       -2 0.39779537E-01 0.89360524E+02</pdfrwt>
<totfact> 0.58155924E+04</totfact>
</mgrwt>
</event>
<event>
 5    1  0.1197825E+001  0.8867554E+02  0.7546771E-02  0.1306091E+00
         -1   -1    0    0    0  501 -0.00000000000E+00  0.00000000000E+00  0.17421441477E+02  0.17421441477E+02  0.00000000000E+00 0.  1.
          1   -1    0    0  501    0  0.00000000000E+00 -0.00000000000E+00 -0.11284013929E+03  0.11284013929E+03  0.00000000000E+00 0. -1.
         23    2    1    2    0    0  0.00000000000E+00  0.00000000000E+00 -0.95418697814E+02  0.13026158077E+03  0.88675540776E+02 0.  0.
        -13    1    3    3    0    0  0.28686311812E+02 -0.17758224957E+02 -0.89968151635E+02  0.96086041377E+02  0.00000000000E+00 0. -1.
         13    1    3    3    0    0 -0.28686311812E+02  0.17758224957E+02 -0.54505461793E+01  0.34175539391E+02  0.00000000000E+00 0.  1.
<mgrwt>
<rscale>  0 0.88675541E+02</rscale>
<asrwt>0</asrwt>
<pdfrwt beam="2">  1        1 0.17360021E-01 0.88675541E+02</pdfrwt>
<pdfrwt beam="1">  1       -1 0.26802218E-02 0.88675541E+02</pdfrwt>
<totfact> 0.11494762E+05</totfact>
</mgrwt>
</event>
<event>
 5    1  0.1197825E+001  0.9412934E+02  0.7546771E-02  0.1293149E+00
         -2   -1    0    0    0  501 -0.00000000000E+00  0.00000000000E+00  0.88177139060E+02  0.88177139060E+02  0.00000000000E+00 0.  1.
          2   -1    0    0  501    0  0.00000000000E+00 -0.00000000000E+00 -0.25120831108E+02  0.25120831108E+02  0.00000000000E+00 0. -1.
         23    2    1    2    0    0  0.00000000000E+00  0.00000000000E+00  0.63056307952E+02  0.11329797017E+03  0.94129336933E+02 0.  0.
        -13    1    3    3    0    0  0.39611265346E+02 -0.20465078754E+02  0.49671276080E+02  0.66746591360E+02  0.00000000000E+00 0. -1.
         13    1    3    3    0    0 -0.39611265346E+02  0.20465078754E+02  0.13385031872E+02  0.46551378808E+02  0.00000000000E+00 0.  1.
<mgrwt>
<rscale>  0 0.94129337E+02</rscale>
<asrwt>0</asrwt>
<pdfrwt beam="2">  1        2 0.38647433E-02 0.94129337E+02</pdfrwt>
<pdfrwt beam="1">  1       -2 0.13565714E-01 0.94129337E+02</pdfrwt>
<totfact> 0.76515208E+04</totfact>
</mgrwt>
</event>
<event>
 5    1  0.1197825E+001  0.9060598E+02  0.7546771E-02  0.1301391E+00
         -3   -1    0    0    0  501 -0.00000000000E+00  0.00000000000E+00  0.58110662296E+02  0.58110662296E+02  0.00000000000E+00 0.  1.
          3   -1    0    0  501    0  0.00000000000E+00 -0.00000000000E+00 -0.35318146403E+02  0.35318146403E+02  0.00000000000E+00 0. -1.
         23    2    1    2    0    0  0.00000000000E+00  0.00000000000E+00  0.22792515893E+02  0.93428808699E+02  0.90605979462E+02 0.  0.
        -11    1    3    3    0    0 -0.49311730991E+01 -0.37475075463E+02  0.37147547758E+02  0.52996585301E+02  0.00000000000E+00 0.  1.
         11    1    3    3    0    0  0.49311730991E+01  0.37475075463E+02 -0.14355031866E+02  0.40432223399E+02  0.00000000000E+00 0. -1.
<mgrwt>
<rscale>  0 0.90605979E+02</rscale>
<asrwt>0</asrwt>
<pdfrwt beam="2">  1        3 0.54335610E-02 0.90605979E+02</pdfrwt>
<pdfrwt beam="1">  1       -3 0.89401019E-02 0.90605979E+02</pdfrwt>
<totfact> 0.35773121E+04</totfact>
</mgrwt>
</event>
<event>
 5    1  0.1197825E+001  0.9127119E+02  0.7546771E-02  0.1299802E+00
         -2   -1    0    0    0  501 -0.00000000000E+00  0.00000000000E+00  0.25874462568E+03  0.25874462568E+03  0.00000000000E+00 0.  1.
          2   -1    0    0  501    0  0.00000000000E+00 -0.00000000000E+00 -0.80488917103E+01  0.80488917103E+01  0.00000000000E+00 0. -1.
         23    2    1    2    0    0  0.00000000000E+00  0.00000000000E+00  0.25069573397E+03  0.26679351739E+03  0.91271188723E+02 0.  0.
        -13    1    3    3    0    0 -0.18877359333E+02  0.40664280409E+02  0.15026605082E+03  0.15681142951E+03  0.00000000000E+00 0. -1.
         13    1    3    3    0    0  0.18877359333E+02 -0.40664280409E+02  0.10042968315E+03  0.10998208788E+03  0.00000000000E+00 0.  1.
<mgrwt>
<rscale>  0 0.91271189E+02</rscale>
<asrwt>0</asrwt>
<pdfrwt beam="2">  1        2 0.12382912E-02 0.91271189E+02</pdfrwt>
<pdfrwt beam="1">  1       -2 0.39806859E-01 0.91271189E+02</pdfrwt>
<totfact> 0.55063998E+04</totfact>
</mgrwt>
</event>
<event>
 4    1  0.1197825E+001  0.4235813E+02  0.7546771E-02  0.1491542E+00
         -1   -1    0    0    0  501 -0.00000000000E+00  0.00000000000E+00  0.23407591566E+01  0.23407591566E+01  0.00000000000E+00 0.  1.
          1   -1    0    0  501    0  0.00000000000E+00 -0.00000000000E+00 -0.19162702843E+03  0.19162702843E+03  0.00000000000E+00 0. -1.
        -11    1    1    2    0    0 -0.89499088420E+01  0.18874920205E+02 -0.11063065792E+03  0.11258554948E+03  0.00000000000E+00 0. -1.
         11    1    1    2    0    0  0.89499088420E+01 -0.18874920205E+02 -0.78655611354E+02  0.81382238102E+02  0.00000000000E+00 0.  1.
<mgrwt>
<rscale>  0 0.42358127E+02</rscale>
<asrwt>0</asrwt>
<pdfrwt beam="2">  1        1 0.29481086E-01 0.42358127E+02</pdfrwt>
<pdfrwt beam="1">  1       -1 0.36011673E-03 0.42358127E+02</pdfrwt>
<totfact> 0.84181667E+05</totfact>
</mgrwt>
</event>
<event>
 5    1  0.1197825E+001  0.9032017E+02  0.7546771E-02  0.1302078E+00
         -2   -1    0    0    0  501 -0.00000000000E+00  0.00000000000E+00  0.11603451347E+02  0.11603451347E+02  0.00000000000E+00 0.  1.
          2   -1    0    0  501    0  0.00000000000E+00 -0.00000000000E+00 -0.17576092820E+03  0.17576092820E+03  0.00000000000E+00 0. -1.
         23    2    1    2    0    0  0.00000000000E+00  0.00000000000E+00 -0.16415747685E+03  0.18736437955E+03  0.90320172257E+02 0.  0.
        -13    1    3    3    0    0 -0.28609986806E+02  0.31347966322E+02 -0.50061817032E+02  0.65630875829E+02  0.00000000000E+00 0.  1.
         13    1    3    3    0    0  0.28609986806E+02 -0.31347966322E+02 -0.11409565982E+03  0.12173350372E+03  0.00000000000E+00 0. -1.
<mgrwt>
<rscale>  0 0.90320172E+02</rscale>
<asrwt>0</asrwt>
<pdfrwt beam="2">  1        2 0.27040143E-01 0.90320172E+02</pdfrwt>
<pdfrwt beam="1">  1       -2 0.17851464E-02 0.90320172E+02</pdfrwt>
<totfact> 0.15150598E+05</totfact>
</mgrwt>
</event>
<event>
 5    1  0.1197825E+001  0.9219643E+02  0.7546771E-02  0.1297618E+00
         -2   -1    0    0    0  501 -0.00000000000E+00  0.00000000000E+00  0.17662738661E+02  0.17662738661E+02  0.00000000000E+00 0.  1.
          2   -1    0    0  501    0  0.00000000000E+00 -0.00000000000E+00 -0.12031234181E+03  0.12031234181E+03  0.00000000000E+00 0. -1.
         23    2    1    2    0    0  0.00000000000E+00  0.00000000000E+00 -0.10264960314E+03  0.13797508047E+03  0.92196430540E+02 0.  0.
        -11    1    3    3    0    0  0.11929472346E+02 -0.32304006661E+02 -0.54618543833E+01  0.34866789501E+02  0.00000000000E+00 0.  1.
         11    1    3    3    0    0 -0.11929472346E+02  0.32304006661E+02 -0.97187748761E+02  0.10310829097E+03  0.00000000000E+00 0. -1.
<mgrwt>
<rscale>  0 0.92196431E+02</rscale>
<asrwt>0</asrwt>
<pdfrwt beam="2">  1        2 0.18509591E-01 0.92196431E+02</pdfrwt>
<pdfrwt beam="1">  1       -2 0.27173444E-02 0.92196431E+02</pdfrwt>
<totfact> 0.12607425E+05</totfact>
</mgrwt>
</event>
<event>
 5    1  0.1197825E+001  0.9176437E+02  0.7546771E-02  0.1298634E+00
          4   -1    0    0  501    0  0.00000000000E+00  0.00000000000E+00  0.57776906526E+02  0.57776906526E+02  0.00000000000E+00 0. -1.
         -4   -1    0    0    0  501 -0.00000000000E+00 -0.00000000000E+00 -0.36436270745E+02  0.36436270745E+02  0.00000000000E+00 0.  1.
         23    2    1    2    0    0  0.00000000000E+00  0.00000000000E+00  0.21340635781E+02  0.94213177271E+02  0.91764372368E+02 0.  0.
        -11    1    3    3    0    0  0.34066037178E+02 -0.15583255619E+02 -0.16528956013E+02  0.40945563027E+02  0.00000000000E+00 0.  1.
         11    1    3    3    0    0 -0.34066037178E+02  0.15583255619E+02  0.37869591794E+02  0.53267614245E+02  0.00000000000E+00 0. -1.
<mgrwt>
<rscale>  0 0.91764372E+02</rscale>
<asrwt>0</asrwt>
<pdfrwt beam="1">  1        4 0.88887548E-02 0.91764372E+02</pdfrwt>
<pdfrwt beam="2">  1       -4 0.56055801E-02 0.91764372E+02</pdfrwt>
<totfact> 0.26357677E+04</totfact>
</mgrwt>
</event>
<event>
 5    1  0.1197825E+001  0.9066675E+02  0.7546771E-02  0.1301245E+00
         -1   -1    0    0    0  501 -0.00000000000E+00  0.00000000000E+00  0.23304679232E+03  0.23304679232E+03  0.00000000000E+00 0.  1.
          1   -1    0    0  501    0  0.00000000000E+00 -0.00000000000E+00 -0.88184648087E+01  0.88184648087E+01  0.00000000000E+00 0. -1.
         23    2    1    2    0    0  0.00000000000E+00  0.00000000000E+00  0.22422832751E+03  0.24186525713E+03  0.90666751059E+02 0.  0.
        -11    1    3    3    0    0  0.17611347551E+02  0.34367112519E+02  0.48769519092E+02  0.62207105526E+02  0.00000000000E+00 0. -1.
         11    1    3    3    0    0 -0.17611347551E+02 -0.34367112519E+02  0.17545880842E+03  0.17965815161E+03  0.00000000000E+00 0.  1.
<mgrwt>
<rscale>  0 0.90666751E+02</rscale>
<asrwt>0</asrwt>
<pdfrwt beam="2">  1        1 0.13566871E-02 0.90666751E+02</pdfrwt>
<pdfrwt beam="1">  1       -1 0.35853348E-01 0.90666751E+02</pdfrwt>
<totfact> 0.67259027E+04</totfact>
</mgrwt>
</event>
<event>
 5    1  0.1197825E+001  0.8650314E+02  0.7546771E-02  0.1311548E+00
         -3   -1    0    0    0  501 -0.00000000000E+00  0.00000000000E+00  0.66541440384E+02  0.66541440384E+02  0.00000000000E+00 0.  1.
          3   -1    0    0  501    0  0.00000000000E+00 -0.00000000000E+00 -0.28113285127E+02  0.28113285127E+02  0.00000000000E+00 0. -1.
         23    2    1    2    0    0  0.00000000000E+00  0.00000000000E+00  0.38428155257E+02  0.94654725511E+02  0.86503144134E+02 0.  0.
        -11    1    3    3    0    0  0.19974388242E+02 -0.30380490486E+02  0.44846929127E+02  0.57733850036E+02  0.00000000000E+00 0.  1.
         11    1    3    3    0    0 -0.19974388242E+02  0.30380490486E+02 -0.64187738693E+01  0.36920875475E+02  0.00000000000E+00 0. -1.
<mgrwt>
<rscale>  0 0.86503144E+02</rscale>
<asrwt>0</asrwt>
<pdfrwt beam="2">  1        3 0.43251208E-02 0.86503144E+02</pdfrwt>
<pdfrwt beam="1">  1       -3 0.10237145E-01 0.86503144E+02</pdfrwt>
<totfact> 0.40451405E+04</totfact>
</mgrwt>
</event>
<event>
 5    1  0.1197825E+001  0.8757425E+02  0.7546771E-02  0.1308835E+00
         -2   -1    0    0    0  501 -0.00000000000E+00  0.00000000000E+00  0.35310892398E+02  0.35310892398E+02  0.00000000000E+00 0.  1.
          2   -1    0    0  501    0  0.00000000000E+00 -0.00000000000E+00 -0.54298047681E+02  0.54298047681E+02  0.00000000000E+00 0. -1.
         23    2    1    2    0    0  0.00000000000E+00  0.00000000000E+00 -0.18987155282E+02  0.89608940079E+02  0.87574254643E+02 0.  0.
        -13    1    3    3    0    0  0.12213387044E+02 -0.41055692539E+02 -0.19532586175E+00  0.42834272086E+02  0.00000000000E+00 0.  1.
         13    1    3    3    0    0 -0.12213387044E+02  0.41055692539E+02 -0.18791829421E+02  0.46774667993E+02  0.00000000000E+00 0. -1.
<mgrwt>
<rscale>  0 0.87574255E+02</rscale>
<asrwt>0</asrwt>
<pdfrwt beam="2">  1        2 0.83535458E-02 0.87574255E+02</pdfrwt>
<pdfrwt beam="1">  1       -2 0.54324450E-02 0.87574255E+02</pdfrwt>
<totfact> 0.11574469E+05</totfact>
</mgrwt>
</event>
<event>
 5    1  0.1197825E+001  0.8010607E+02  0.7546771E-02  0.1328751E+00
          2   -1    0    0  501    0  0.00000000000E+00  0.00000000000E+00  0.42721568695E+02  0.42721568695E+02  0.00000000000E+00 0. -1.
         -2   -1    0    0    0  501 -0.00000000000E+00 -0.00000000000E+00 -0.37551182955E+02  0.37551182955E+02  0.00000000000E+00 0.  1.
         23    2    1    2    0    0  0.00000000000E+00  0.00000000000E+00  0.51703857396E+01  0.80272751650E+02  0.80106065743E+02 0.  0.
        -11    1    3    3    0    0  0.28842438792E+02  0.15004894726E+02  0.26026437835E+02  0.41646231613E+02  0.00000000000E+00 0. -1.
         11    1    3    3    0    0 -0.28842438792E+02 -0.15004894726E+02 -0.20856052095E+02  0.38626520037E+02  0.00000000000E+00 0.  1.
<mgrwt>
<rscale>  0 0.80106066E+02</rscale>
<asrwt>0</asrwt>
<pdfrwt beam="1">  1        2 0.65725491E-02 0.80106066E+02</pdfrwt>
<pdfrwt beam="2">  1       -2 0.57771050E-02 0.80106066E+02</pdfrwt>
<totfact> 0.14019737E+05</totfact>
</mgrwt>
</event>
<event>
 5    1  0.1197825E+001  0.1086296E+03  0.7546771E-02  0.1263129E+00
         -1   -1    0    0    0  501 -0.00000000000E+00  0.00000000000E+00  0.27720699397E+03  0.27720699397E+03  0.00000000000E+00 0.  1.
          1   -1    0    0  501    0  0.00000000000E+00 -0.00000000000E+00 -0.10642212018E+02  0.10642212018E+02  0.00000000000E+00 0. -1.
         23    2    1    2    0    0  0.00000000000E+00  0.00000000000E+00  0.26656478195E+03  0.28784920599E+03  0.10862956509E+03 0.  0.
        -13    1    3    3    0    0 -0.71797171576E+01 -0.52258981030E+02  0.98983171106E+02  0.11216156917E+03  0.00000000000E+00 0.  1.
         13    1    3    3    0    0  0.71797171576E+01  0.52258981030E+02  0.16758161085E+03  0.17568763682E+03  0.00000000000E+00 0. -1.
<mgrwt>
<rscale>  0 0.10862957E+03</rscale>
<asrwt>0</asrwt>
<pdfrwt beam="2">  1        1 0.16372636E-02 0.10862957E+03</pdfrwt>
<pdfrwt beam="1">  1       -1 0.42647224E-01 0.10862957E+03</pdfrwt>
<totfact> 0.39401951E+04</totfact>
</mgrwt>
</event>
<event>
 5    1  0.1197825E+001  0.9381091E+02  0.7546771E-02  0.1293877E+00
          1   -1    0    0  501    0  0.00000000000E+00  0.00000000000E+00  0.10445425196E+03  0.10445425196E+03  0.00000000000E+00 0. -1.
         -1   -1    0    0    0  501 -0.00000000000E+00 -0.00000000000E+00 -0.21063017988E+02  0.21063017988E+02  0.00000000000E+00 0.  1.
         23    2    1    2    0    0  0.00000000000E+00  0.00000000000E+00  0.83391233972E+02  0.12551726995E+03  0.93810911690E+02 0.  0.
        -11    1    3    3    0    0  0.26684273991E+01  0.27071874343E+02 -0.94305983421E+01  0.28791371456E+02  0.00000000000E+00 0.  1.
         11    1    3    3    0    0 -0.26684273991E+01 -0.27071874343E+02  0.92821832314E+02  0.96725898493E+02  0.00000000000E+00 0. -1.
<mgrwt>
<rscale>  0 0.93810912E+02</rscale>
<asrwt>0</asrwt>
<pdfrwt beam="1">  1        1 0.16069885E-01 0.93810912E+02</pdfrwt>
<pdfrwt beam="2">  1       -1 0.32404644E-02 0.93810912E+02</pdfrwt>
<totfact> 0.97344538E+04</totfact>
</mgrwt>
</event>
<event>
 5    1  0.1197825E+001  0.9970479E+02  0.7546771E-02  0.1280918E+00
          1   -1    0    0  501    0  0.00000000000E+00  0.00000000000E+00  0.18327329772E+02  0.18327329772E+02  0.00000000000E+00 0. -1.
         -1   -1    0    0    0  501 -0.00000000000E+00 -0.00000000000E+00 -0.13560411574E+03  0.13560411574E+03  0.00000000000E+00 0.  1.
         23    2    1    2    0    0  0.00000000000E+00  0.00000000000E+00 -0.11727678597E+03  0.15393144551E+03  0.99704791209E+02 0.  0.
        -13    1    3    3    0    0 -0.46203293854E+02  0.18709390884E+02 -0.59703191785E+02  0.77776968181E+02  0.00000000000E+00 0.  1.
         13    1    3    3    0    0  0.46203293854E+02 -0.18709390884E+02 -0.57573594182E+02  0.76154477329E+02  0.00000000000E+00 0. -1.
<mgrwt>
<rscale>  0 0.99704791E+02</rscale>
<asrwt>0</asrwt>
<pdfrwt beam="1">  1        1 0.28195891E-02 0.99704791E+02</pdfrwt>
<pdfrwt beam="2">  1       -1 0.20862173E-01 0.99704791E+02</pdfrwt>
<totfact> 0.60660165E+04</totfact>
</mgrwt>
</event>
<event>
 5    1  0.1197825E+001  0.9148225E+02  0.7546771E-02  0.1299301E+00
         -4   -1    0    0    0  501 -0.00000000000E+00  0.00000000000E+00  0.11092058432E+02  0.11092058432E+02  0.00000000000E+00 0.  1.
          4   -1    0    0  501    0  0.00000000000E+00 -0.00000000000E+00 -0.18862600700E+03  0.18862600700E+03  0.00000000000E+00 0. -1.
         23    2    1    2    0    0  0.00000000000E+00  0.00000000000E+00 -0.17753394857E+03  0.19971806543E+03  0.91482253832E+02 0.  0.
        -13    1    3    3    0    0 -0.30677786001E+02  0.16560589545E+02 -0.15341397064E+03  0.15732522388E+03  0.00000000000E+00 0.  1.
         13    1    3    3    0    0  0.30677786001E+02 -0.16560589545E+02 -0.24119977926E+02  0.42392841556E+02  0.00000000000E+00 0. -1.
<mgrwt>
<rscale>  0 0.91482254E+02</rscale>
<asrwt>0</asrwt>
<pdfrwt beam="2">  1        4 0.29019385E-01 0.91482254E+02</pdfrwt>
<pdfrwt beam="1">  1       -4 0.17064706E-02 0.91482254E+02</pdfrwt>
<totfact> 0.21206868E+04</totfact>
</mgrwt>
</event>
<event>
 5    1  0.1197825E+001  0.9077414E+02  0.7546771E-02  0.1300988E+00
          1   -1    0    0  501    0  0.00000000000E+00  0.00000000000E+00  0.41923531592E+02  0.41923531592E+02  0.00000000000E+00 0. -1.
         -1   -1    0    0    0  501 -0.00000000000E+00 -0.00000000000E+00 -0.49136754774E+02  0.49136754774E+02  0.00000000000E+00 0.  1.
         23    2    1    2    0    0  0.00000000000E+00  0.00000000000E+00 -0.72132231818E+01  0.91060286366E+02  0.90774143699E+02 0.  0.
        -11    1    3    3    0    0  0.36030309161E+02  0.13158222113E+02  0.20732274692E+02  0.43602169686E+02  0.00000000000E+00 0.  1.
         11    1    3    3    0    0 -0.36030309161E+02 -0.13158222113E+02 -0.27945497874E+02  0.47458116680E+02  0.00000000000E+00 0. -1.
<mgrwt>
<rscale>  0 0.90774144E+02</rscale>
<asrwt>0</asrwt>
<pdfrwt beam="1">  1        1 0.64497741E-02 0.90774144E+02</pdfrwt>
<pdfrwt beam="2">  1       -1 0.75595007E-02 0.90774144E+02</pdfrwt>
<totfact> 0.92456885E+04</totfact>
</mgrwt>
</event>
<event>
 5    1  0.1197825E+001  0.8984745E+02  0.7546771E-02  0.1303222E+00
          3   -1    0    0  501    0  0.00000000000E+00  0.00000000000E+00  0.32939975718E+02  0.32939975718E+02  0.00000000000E+00 0. -1.
         -3   -1    0    0    0  501 -0.00000000000E+00 -0.00000000000E+00 -0.61267233511E+02  0.61267233511E+02  0.00000000000E+00 0.  1.
         23    2    1    2    0    0  0.00000000000E+00  0.00000000000E+00 -0.28327257792E+02  0.94207209229E+02  0.89847452589E+02 0.  0.
        -11    1    3    3    0    0 -0.29070458303E+02 -0.31776361034E+02 -0.27563113911E+02  0.51132708856E+02  0.00000000000E+00 0. -1.
         11    1    3    3    0    0  0.29070458303E+02  0.31776361034E+02 -0.76414388153E+00  0.43074500373E+02  0.00000000000E+00 0.  1.
<mgrwt>
<rscale>  0 0.89847453E+02</rscale>
<asrwt>0</asrwt>
<pdfrwt beam="1">  1        3 0.50676886E-02 0.89847453E+02</pdfrwt>
<pdfrwt beam="2">  1       -3 0.94257281E-02 0.89847453E+02</pdfrwt>
<totfact> 0.36537017E+04</totfact>
</mgrwt>
</event>
<event>
 5    1  0.1197825E+001  0.9038386E+02  0.7546771E-02  0.1301925E+00
         -1   -1    0    0    0  501 -0.00000000000E+00  0.00000000000E+00  0.34933759702E+02  0.34933759702E+02  0.00000000000E+00 0.  1.
          1   -1    0    0  501    0  0.00000000000E+00 -0.00000000000E+00 -0.58462378954E+02  0.58462378954E+02  0.00000000000E+00 0. -1.
         23    2    1    2    0    0  0.00000000000E+00  0.00000000000E+00 -0.23528619253E+02  0.93396138656E+02  0.90383863560E+02 0.  0.
        -13    1    3    3    0    0 -0.28698572005E+02  0.34839938592E+02 -0.94813006175E+01  0.46122927245E+02  0.00000000000E+00 0.  1.
         13    1    3    3    0    0  0.28698572005E+02 -0.34839938592E+02 -0.14047318635E+02  0.47273211411E+02  0.00000000000E+00 0. -1.
<mgrwt>
<rscale>  0 0.90383864E+02</rscale>
<asrwt>0</asrwt>
<pdfrwt beam="2">  1        1 0.89942120E-02 0.90383864E+02</pdfrwt>
<pdfrwt beam="1">  1       -1 0.53744246E-02 0.90383864E+02</pdfrwt>
<totfact> 0.98347409E+04</totfact>
</mgrwt>
</event>
<event>
 5    1  0.1197825E+001  0.9094567E+02  0.7546771E-02  0.1300578E+00
         -1   -1    0    0    0  501 -0.00000000000E+00  0.00000000000E+00  0.28431432079E+02  0.28431432079E+02  0.00000000000E+00 0.  1.
          1   -1    0    0  501    0  0.00000000000E+00 -0.00000000000E+00 -0.72728611364E+02  0.72728611364E+02  0.00000000000E+00 0. -1.
         23    2    1    2    0    0  0.00000000000E+00  0.00000000000E+00 -0.44297179285E+02  0.10116004344E+03  0.90945666729E+02 0.  0.
        -13    1    3    3    0    0  0.19065547081E+02  0.23974130810E+02  0.15234468960E+02  0.34210277376E+02  0.00000000000E+00 0.  1.
         13    1    3    3    0    0 -0.19065547081E+02 -0.23974130810E+02 -0.59531648245E+02  0.66949766067E+02  0.00000000000E+00 0. -1.
<mgrwt>
<rscale>  0 0.90945667E+02</rscale>
<asrwt>0</asrwt>
<pdfrwt beam="2">  1        1 0.11189017E-01 0.90945667E+02</pdfrwt>
<pdfrwt beam="1">  1       -1 0.43740665E-02 0.90945667E+02</pdfrwt>
<totfact> 0.99949283E+04</totfact>
</mgrwt>
</event>
<event>
 4    1  0.1197825E+001  0.5050817E+02  0.7546771E-02  0.1442620E+00
          4   -1    0    0  501    0  0.00000000000E+00  0.00000000000E+00  0.10160822865E+02  0.10160822865E+02  0.00000000000E+00 0.  1.
         -4   -1    0    0    0  501 -0.00000000000E+00 -0.00000000000E+00 -0.62767435236E+02  0.62767435236E+02  0.00000000000E+00 0. -1.
        -11    1    1    2    0    0 -0.46092341943E+00 -0.18252480739E+02 -0.11115245934E+01  0.18292101860E+02  0.00000000000E+00 0.  1.
         11    1    1    2    0    0  0.46092341943E+00  0.18252480739E+02 -0.51495087778E+02  0.54636156241E+02  0.00000000000E+00 0. -1.
<mgrwt>
<rscale>  0 0.50508169E+02</rscale>
<asrwt>0</asrwt>
<pdfrwt beam="1">  1        4 0.15632035E-02 0.50508169E+02</pdfrwt>
<pdfrwt beam="2">  1       -4 0.96565286E-02 0.50508169E+02</pdfrwt>
<totfact> 0.13140683E+05</totfact>
</mgrwt>
</event>
<event>
 5    1  0.1197825E+001  0.8618170E+02  0.7546771E-02  0.1312371E+00
         -1   -1    0    0    0  501 -0.00000000000E+00  0.00000000000E+00  0.13707626265E+02  0.13707626265E+02  0.00000000000E+00 0.  1.
          1   -1    0    0  501    0  0.00000000000E+00 -0.00000000000E+00 -0.13545899321E+03  0.13545899321E+03  0.00000000000E+00 0. -1.
         23    2    1    2    0    0  0.00000000000E+00  0.00000000000E+00 -0.12175136694E+03  0.14916661947E+03  0.86181697664E+02 0.  0.
        -13    1    3    3    0    0  0.18919162149E+02 -0.35678910556E+02 -0.34861120001E+02  0.53349948853E+02  0.00000000000E+00 0.  1.
         13    1    3    3    0    0 -0.18919162149E+02  0.35678910556E+02 -0.86890246942E+02  0.95816670619E+02  0.00000000000E+00 0. -1.
<mgrwt>
<rscale>  0 0.86181698E+02</rscale>
<asrwt>0</asrwt>
<pdfrwt beam="2">  1        1 0.20839845E-01 0.86181698E+02</pdfrwt>
<pdfrwt beam="1">  1       -1 0.21088656E-02 0.86181698E+02</pdfrwt>
<totfact> 0.12810946E+05</totfact>
</mgrwt>
</event>
<event>
 5    1  0.1197825E+001  0.9177246E+02  0.7546771E-02  0.1298615E+00
         -4   -1    0    0    0  501 -0.00000000000E+00  0.00000000000E+00  0.48768446779E+02  0.48768446779E+02  0.00000000000E+00 0.  1.
          4   -1    0    0  501    0  0.00000000000E+00 -0.00000000000E+00 -0.43174351170E+02  0.43174351170E+02  0.00000000000E+00 0. -1.
         23    2    1    2    0    0  0.00000000000E+00  0.00000000000E+00  0.55940956084E+01  0.91942797949E+02  0.91772458772E+02 0.  0.
        -13    1    3    3    0    0 -0.28947924189E+02 -0.16704661832E+02  0.34296111194E+02  0.47887903324E+02  0.00000000000E+00 0.  1.
         13    1    3    3    0    0  0.28947924189E+02  0.16704661832E+02 -0.28702015585E+02  0.44054894625E+02  0.00000000000E+00 0. -1.
<mgrwt>
<rscale>  0 0.91772459E+02</rscale>
<asrwt>0</asrwt>
<pdfrwt beam="2">  1        4 0.66422079E-02 0.91772459E+02</pdfrwt>
<pdfrwt beam="1">  1       -4 0.75028380E-02 0.91772459E+02</pdfrwt>
<totfact> 0.26493393E+04</totfact>
</mgrwt>
</event>
<event>
 5    1  0.1197825E+001  0.8970337E+02  0.7546771E-02  0.1303572E+00
         -4   -1    0    0    0  501 -0.00000000000E+00  0.00000000000E+00  0.43078322940E+02  0.43078322940E+02  0.00000000000E+00 0. -1.
          4   -1    0    0  501    0  0.00000000000E+00 -0.00000000000E+00 -0.46698047330E+02  0.46698047330E+02  0.00000000000E+00 0.  1.
         23    2    1    2    0    0  0.00000000000E+00  0.00000000000E+00 -0.36197243900E+01  0.89776370271E+02  0.89703368133E+02 0.  0.
        -13    1    3    3    0    0 -0.40005698186E+02 -0.16959536577E+02 -0.12936094236E+02  0.45336787517E+02  0.00000000000E+00 0.  1.
         13    1    3    3    0    0  0.40005698186E+02  0.16959536577E+02  0.93163698456E+01  0.44439582754E+02  0.00000000000E+00 0. -1.
<mgrwt>
<rscale>  0 0.89703368E+02</rscale>
<asrwt>0</asrwt>
<pdfrwt beam="2">  1        4 0.71843150E-02 0.89703368E+02</pdfrwt>
<pdfrwt beam="1">  1       -4 0.66274343E-02 0.89703368E+02</pdfrwt>
<totfact> 0.28329504E+04</totfact>
</mgrwt>
</event>
<event>
 5    1  0.1197825E+001  0.9106541E+02  0.7546771E-02  0.1300292E+00
         -1   -1    0    0    0  501 -0.00000000000E+00  0.00000000000E+00  0.38358596599E+02  0.38358596599E+02  0.00000000000E+00 0.  1.
          1   -1    0    0  501    0  0.00000000000E+00 -0.00000000000E+00 -0.54048564582E+02  0.54048564582E+02  0.00000000000E+00 0. -1.
         23    2    1    2    0    0  0.00000000000E+00  0.00000000000E+00 -0.15689967983E+02  0.92407161181E+02  0.91065406946E+02 0.  0.
        -13    1    3    3    0    0  0.23026549707E+02  0.39280702355E+02 -0.80251289706E+01  0.46234167711E+02  0.00000000000E+00 0. -1.
         13    1    3    3    0    0 -0.23026549707E+02 -0.39280702355E+02 -0.76648390123E+01  0.46172993470E+02  0.00000000000E+00 0.  1.
<mgrwt>
<rscale>  0 0.91065407E+02</rscale>
<asrwt>0</asrwt>
<pdfrwt beam="2">  1        1 0.83151637E-02 0.91065407E+02</pdfrwt>
<pdfrwt beam="1">  1       -1 0.59013226E-02 0.91065407E+02</pdfrwt>
<totfact> 0.95190134E+04</totfact>
</mgrwt>
</event>
<event>
 5    1  0.1197825E+001  0.8878107E+02  0.7546771E-02  0.1305831E+00
          2   -1    0    0  501    0  0.00000000000E+00  0.00000000000E+00  0.35454086167E+02  0.35454086167E+02  0.00000000000E+00 0. -1.
         -2   -1    0    0    0  501 -0.00000000000E+00 -0.00000000000E+00 -0.55579477852E+02  0.55579477852E+02  0.00000000000E+00 0.  1.
         23    2    1    2    0    0  0.00000000000E+00  0.00000000000E+00 -0.20125391685E+02  0.91033564018E+02  0.88781069984E+02 0.  0.
        -13    1    3    3    0    0  0.62212517152E+01  0.12879598910E+02  0.33026471785E+02  0.35990774923E+02  0.00000000000E+00 0. -1.
         13    1    3    3    0    0 -0.62212517152E+01 -0.12879598910E+02 -0.53151863470E+02  0.55042789095E+02  0.00000000000E+00 0.  1.
<mgrwt>
<rscale>  0 0.88781070E+02</rscale>
<asrwt>0</asrwt>
<pdfrwt beam="1">  1        2 0.54544748E-02 0.88781070E+02</pdfrwt>
<pdfrwt beam="2">  1       -2 0.85506889E-02 0.88781070E+02</pdfrwt>
<totfact> 0.99904792E+04</totfact>
</mgrwt>
</event>
<event>
 5    1  0.1197825E+001  0.8879508E+02  0.7546771E-02  0.1305796E+00
          2   -1    0    0  501    0  0.00000000000E+00  0.00000000000E+00  0.43171930279E+02  0.43171930279E+02  0.00000000000E+00 0. -1.
         -2   -1    0    0    0  501 -0.00000000000E+00 -0.00000000000E+00 -0.45657947070E+02  0.45657947070E+02  0.00000000000E+00 0.  1.
         23    2    1    2    0    0  0.00000000000E+00  0.00000000000E+00 -0.24860167903E+01  0.88829877349E+02  0.88795083368E+02 0.  0.
        -13    1    3    3    0    0  0.21196219261E+02  0.74945124491E+01 -0.39542396865E+02  0.45486795640E+02  0.00000000000E+00 0.  1.
         13    1    3    3    0    0 -0.21196219261E+02 -0.74945124491E+01  0.37056380074E+02  0.43343081709E+02  0.00000000000E+00 0. -1.
<mgrwt>
<rscale>  0 0.88795083E+02</rscale>
<asrwt>0</asrwt>
<pdfrwt beam="1">  1        2 0.66418355E-02 0.88795083E+02</pdfrwt>
<pdfrwt beam="2">  1       -2 0.70242995E-02 0.88795083E+02</pdfrwt>
<totfact> 0.10497121E+05</totfact>
</mgrwt>
</event>
<event>
 5    1  0.1197825E+001  0.9173525E+02  0.7546771E-02  0.1298703E+00
         -2   -1    0    0    0  501 -0.00000000000E+00  0.00000000000E+00  0.40402121261E+02  0.40402121261E+02  0.00000000000E+00 0.  1.
          2   -1    0    0  501    0  0.00000000000E+00 -0.00000000000E+00 -0.52072489430E+02  0.52072489430E+02  0.00000000000E+00 0. -1.
         23    2    1    2    0    0  0.00000000000E+00  0.00000000000E+00 -0.11670368169E+02  0.92474610691E+02  0.91735250200E+02 0.  0.
        -11    1    3    3    0    0 -0.29082814855E+02  0.28079299576E+02 -0.27679674199E+02  0.48994097077E+02  0.00000000000E+00 0. -1.
         11    1    3    3    0    0  0.29082814855E+02 -0.28079299576E+02  0.16009306030E+02  0.43480513614E+02  0.00000000000E+00 0.  1.
<mgrwt>
<rscale>  0 0.91735250E+02</rscale>
<asrwt>0</asrwt>
<pdfrwt beam="2">  1        2 0.80111522E-02 0.91735250E+02</pdfrwt>
<pdfrwt beam="1">  1       -2 0.62157110E-02 0.91735250E+02</pdfrwt>
<totfact> 0.10039670E+05</totfact>
</mgrwt>
</event>
<event>
 5    1  0.1197825E+001  0.8948454E+02  0.7546771E-02  0.1304105E+00
         -1   -1    0    0    0  501 -0.00000000000E+00  0.00000000000E+00  0.11630643655E+02  0.11630643655E+02  0.00000000000E+00 0.  1.
          1   -1    0    0  501    0  0.00000000000E+00 -0.00000000000E+00 -0.17212036650E+03  0.17212036650E+03  0.00000000000E+00 0. -1.
         23    2    1    2    0    0  0.00000000000E+00  0.00000000000E+00 -0.16048972285E+03  0.18375101016E+03  0.89484538297E+02 0.  0.
        -11    1    3    3    0    0 -0.12925140999E+02  0.32835263675E+02 -0.13672961186E+03  0.14120977505E+03  0.00000000000E+00 0.  1.
         11    1    3    3    0    0  0.12925140999E+02 -0.32835263675E+02 -0.23760110991E+02  0.42541235111E+02  0.00000000000E+00 0. -1.
<mgrwt>
<rscale>  0 0.89484538E+02</rscale>
<asrwt>0</asrwt>
<pdfrwt beam="2">  1        1 0.26480053E-01 0.89484538E+02</pdfrwt>
<pdfrwt beam="1">  1       -1 0.17893300E-02 0.89484538E+02</pdfrwt>
<totfact> 0.12097890E+05</totfact>
</mgrwt>
</event>
<event>
 5    1  0.1197825E+001  0.8671919E+02  0.7546771E-02  0.1310997E+00
         -1   -1    0    0    0  501 -0.00000000000E+00  0.00000000000E+00  0.30724815848E+02  0.30724815848E+02  0.00000000000E+00 0.  1.
          1   -1    0    0  501    0  0.00000000000E+00 -0.00000000000E+00 -0.61190094278E+02  0.61190094278E+02  0.00000000000E+00 0. -1.
         23    2    1    2    0    0  0.00000000000E+00  0.00000000000E+00 -0.30465278430E+02  0.91914910126E+02  0.86719187690E+02 0.  0.
        -11    1    3    3    0    0  0.81293521778E+01  0.30132128817E+02 -0.47136286484E+02  0.56531947228E+02  0.00000000000E+00 0. -1.
         11    1    3    3    0    0 -0.81293521778E+01 -0.30132128817E+02  0.16671008055E+02  0.35382962898E+02  0.00000000000E+00 0.  1.
<mgrwt>
<rscale>  0 0.86719188E+02</rscale>
<asrwt>0</asrwt>
<pdfrwt beam="2">  1        1 0.94138605E-02 0.86719188E+02</pdfrwt>
<pdfrwt beam="1">  1       -1 0.47268948E-02 0.86719188E+02</pdfrwt>
<totfact> 0.11099527E+05</totfact>
</mgrwt>
</event>
<event>
 5    1  0.1197825E+001  0.9549879E+02  0.7546771E-02  0.1290057E+00
         -1   -1    0    0    0  501 -0.00000000000E+00  0.00000000000E+00  0.26043341520E+02  0.26043341520E+02  0.00000000000E+00 0.  1.
          1   -1    0    0  501    0  0.00000000000E+00 -0.00000000000E+00 -0.87546546629E+02  0.87546546629E+02  0.00000000000E+00 0. -1.
         23    2    1    2    0    0  0.00000000000E+00  0.00000000000E+00 -0.61503205108E+02  0.11358988815E+03  0.95498787695E+02 0.  0.
        -13    1    3    3    0    0 -0.41844892682E+02 -0.19739079618E+02 -0.16709265187E+02  0.49191725431E+02  0.00000000000E+00 0.  1.
         13    1    3    3    0    0  0.41844892682E+02  0.19739079618E+02 -0.44793939922E+02  0.64398162718E+02  0.00000000000E+00 0. -1.
<mgrwt>
<rscale>  0 0.95498788E+02</rscale>
<asrwt>0</asrwt>
<pdfrwt beam="2">  1        1 0.13468700E-01 0.95498788E+02</pdfrwt>
<pdfrwt beam="1">  1       -1 0.40066679E-02 0.95498788E+02</pdfrwt>
<totfact> 0.89990472E+04</totfact>
</mgrwt>
</event>
<event>
 5    1  0.1197825E+001  0.9162242E+02  0.7546771E-02  0.1298970E+00
         -1   -1    0    0    0  501 -0.00000000000E+00  0.00000000000E+00  0.14175384807E+03  0.14175384807E+03  0.00000000000E+00 0.  1.
          1   -1    0    0  501    0  0.00000000000E+00 -0.00000000000E+00 -0.14805007633E+02  0.14805007633E+02  0.00000000000E+00 0. -1.
         23    2    1    2    0    0  0.00000000000E+00  0.00000000000E+00  0.12694884043E+03  0.15655885570E+03  0.91622416529E+02 0.  0.
        -13    1    3    3    0    0 -0.45335945840E+02  0.33287496663E+01  0.53772413315E+02  0.70412363923E+02  0.00000000000E+00 0.  1.
         13    1    3    3    0    0  0.45335945840E+02 -0.33287496663E+01  0.73176427118E+02  0.86146491776E+02  0.00000000000E+00 0. -1.
<mgrwt>
<rscale>  0 0.91622417E+02</rscale>
<asrwt>0</asrwt>
<pdfrwt beam="2">  1        1 0.22776936E-02 0.91622417E+02</pdfrwt>
<pdfrwt beam="1">  1       -1 0.21808283E-01 0.91622417E+02</pdfrwt>
<totfact> 0.74814662E+04</totfact>
</mgrwt>
</event>
<event>
 5    1  0.1197825E+001  0.9057727E+02  0.7546771E-02  0.1301460E+00
          3   -1    0    0  501    0  0.00000000000E+00  0.00000000000E+00  0.12679455258E+02  0.12679455258E+02  0.00000000000E+00 0. -1.
         -3   -1    0    0    0  501 -0.00000000000E+00 -0.00000000000E+00 -0.16176250949E+03  0.16176250949E+03  0.00000000000E+00 0.  1.
         23    2    1    2    0    0  0.00000000000E+00  0.00000000000E+00 -0.14908305424E+03  0.17444196475E+03  0.90577270913E+02 0.  0.
        -13    1    3    3    0    0 -0.32765343534E+02 -0.26774790092E+02 -0.10563160145E+03  0.11379144233E+03  0.00000000000E+00 0.  1.
         13    1    3    3    0    0  0.32765343534E+02  0.26774790092E+02 -0.43451452783E+02  0.60650522424E+02  0.00000000000E+00 0. -1.
<mgrwt>
<rscale>  0 0.90577271E+02</rscale>
<asrwt>0</asrwt>
<pdfrwt beam="1">  1        3 0.19506855E-02 0.90577271E+02</pdfrwt>
<pdfrwt beam="2">  1       -3 0.24886539E-01 0.90577271E+02</pdfrwt>
<totfact> 0.30412156E+04</totfact>
</mgrwt>
</event>
<event>
 5    1  0.1197825E+001  0.9281862E+02  0.7546771E-02  0.1296166E+00
          1   -1    0    0  501    0  0.00000000000E+00  0.00000000000E+00  0.10768910615E+02  0.10768910615E+02  0.00000000000E+00 0. -1.
         -1   -1    0    0    0  501 -0.00000000000E+00 -0.00000000000E+00 -0.20000389202E+03  0.20000389202E+03  0.00000000000E+00 0.  1.
         23    2    1    2    0    0  0.00000000000E+00  0.00000000000E+00 -0.18923498140E+03  0.21077280263E+03  0.92818619594E+02 0.  0.
        -13    1    3    3    0    0 -0.34200692119E+02  0.31132204330E+02 -0.10338953783E+03  0.11326207671E+03  0.00000000000E+00 0. -1.
         13    1    3    3    0    0  0.34200692119E+02 -0.31132204330E+02 -0.85845443567E+02  0.97510725918E+02  0.00000000000E+00 0.  1.
<mgrwt>
<rscale>  0 0.92818620E+02</rscale>
<asrwt>0</asrwt>
<pdfrwt beam="1">  1        1 0.16567556E-02 0.92818620E+02</pdfrwt>
<pdfrwt beam="2">  1       -1 0.30769827E-01 0.92818620E+02</pdfrwt>
<totfact> 0.66265939E+04</totfact>
</mgrwt>
</event>
<event>
 5    1  0.1197825E+001  0.9215470E+02  0.7546771E-02  0.1297716E+00
          3   -1    0    0  501    0  0.00000000000E+00  0.00000000000E+00  0.10343246327E+03  0.10343246327E+03  0.00000000000E+00 0. -1.
         -3   -1    0    0    0  501 -0.00000000000E+00 -0.00000000000E+00 -0.20526650453E+02  0.20526650453E+02  0.00000000000E+00 0.  1.
         23    2    1    2    0    0  0.00000000000E+00  0.00000000000E+00  0.82905812815E+02  0.12395911372E+03  0.92154696441E+02 0.  0.
        -11    1    3    3    0    0  0.65435280316E+01 -0.29563655009E+02 -0.52654628182E+01  0.30733573748E+02  0.00000000000E+00 0.  1.
         11    1    3    3    0    0 -0.65435280316E+01  0.29563655009E+02  0.88171275633E+02  0.93225539973E+02  0.00000000000E+00 0. -1.
<mgrwt>
<rscale>  0 0.92154696E+02</rscale>
<asrwt>0</asrwt>
<pdfrwt beam="1">  1        3 0.15912686E-01 0.92154696E+02</pdfrwt>
<pdfrwt beam="2">  1       -3 0.31579463E-02 0.92154696E+02</pdfrwt>
<totfact> 0.32034216E+04</totfact>
</mgrwt>
</event>
<event>
 5    1  0.1197825E+001  0.9036006E+02  0.7546771E-02  0.1301982E+00
          2   -1    0    0  501    0  0.00000000000E+00  0.00000000000E+00  0.81868809529E+01  0.81868809529E+01  0.00000000000E+00 0. -1.
         -2   -1    0    0    0  501 -0.00000000000E+00 -0.00000000000E+00 -0.24932998411E+03  0.24932998411E+03  0.00000000000E+00 0.  1.
         23    2    1    2    0    0  0.00000000000E+00  0.00000000000E+00 -0.24114310316E+03  0.25751686506E+03  0.90360055288E+02 0.  0.
        -11    1    3    3    0    0 -0.42209383257E+02  0.90098432580E+01 -0.15863934961E+03  0.16440575584E+03  0.00000000000E+00 0. -1.
         11    1    3    3    0    0  0.42209383257E+02 -0.90098432580E+01 -0.82503753552E+02  0.93111109222E+02  0.00000000000E+00 0.  1.
<mgrwt>
<rscale>  0 0.90360055E+02</rscale>
<asrwt>0</asrwt>
<pdfrwt beam="1">  1        2 0.12595201E-02 0.90360055E+02</pdfrwt>
<pdfrwt beam="2">  1       -2 0.38358460E-01 0.90360055E+02</pdfrwt>
<totfact> 0.57565482E+04</totfact>
</mgrwt>
</event>
<event>
 4    1  0.1197825E+001  0.2594086E+02  0.7546771E-02  0.1647844E+00
          2   -1    0    0  501    0  0.00000000000E+00  0.00000000000E+00  0.32752699039E+02  0.32752699039E+02  0.00000000000E+00 0. -1.
         -2   -1    0    0    0  501 -0.00000000000E+00 -0.00000000000E+00 -0.51364345075E+01  0.51364345075E+01  0.00000000000E+00 0.  1.
        -11    1    1    2    0    0  0.12830075930E+02 -0.14952536785E+01  0.15527336632E+02  0.20197643793E+02  0.00000000000E+00 0. -1.
         11    1    1    2    0    0 -0.12830075930E+02  0.14952536785E+01  0.12088927900E+02  0.17691489753E+02  0.00000000000E+00 0.  1.
<mgrwt>
<rscale>  0 0.25940863E+02</rscale>
<asrwt>0</asrwt>
<pdfrwt beam="1">  1        2 0.50388767E-02 0.25940863E+02</pdfrwt>
<pdfrwt beam="2">  1       -2 0.79022071E-03 0.25940863E+02</pdfrwt>
<totfact> 0.24130095E+06</totfact>
</mgrwt>
</event>
<event>
 5    1  0.1197825E+001  0.9164740E+02  0.7546771E-02  0.1298911E+00
         -3   -1    0    0    0  501 -0.00000000000E+00  0.00000000000E+00  0.12262145559E+02  0.12262145559E+02  0.00000000000E+00 0.  1.
          3   -1    0    0  501    0  0.00000000000E+00 -0.00000000000E+00 -0.17124339592E+03  0.17124339592E+03  0.00000000000E+00 0. -1.
         23    2    1    2    0    0  0.00000000000E+00  0.00000000000E+00 -0.15898125036E+03  0.18350554148E+03  0.91647399241E+02 0.  0.
        -11    1    3    3    0    0  0.37396015426E+02  0.17860544358E+02 -0.11864315521E+03  0.12567282639E+03  0.00000000000E+00 0. -1.
         11    1    3    3    0    0 -0.37396015426E+02 -0.17860544358E+02 -0.40338095157E+02  0.57832715096E+02  0.00000000000E+00 0.  1.
<mgrwt>
<rscale>  0 0.91647399E+02</rscale>
<asrwt>0</asrwt>
<pdfrwt beam="2">  1        3 0.26345137E-01 0.91647399E+02</pdfrwt>
<pdfrwt beam="1">  1       -3 0.18864840E-02 0.91647399E+02</pdfrwt>
<totfact> 0.28967759E+04</totfact>
</mgrwt>
</event>
<event>
 5    1  0.1197825E+001  0.9291755E+02  0.7546771E-02  0.1295936E+00
         -1   -1    0    0    0  501 -0.00000000000E+00  0.00000000000E+00  0.90626395457E+02  0.90626395457E+02  0.00000000000E+00 0.  1.
          1   -1    0    0  501    0  0.00000000000E+00 -0.00000000000E+00 -0.23816658542E+02  0.23816658542E+02  0.00000000000E+00 0. -1.
         23    2    1    2    0    0  0.00000000000E+00  0.00000000000E+00  0.66809736915E+02  0.11444305400E+03  0.92917553036E+02 0.  0.
        -11    1    3    3    0    0 -0.23580384086E+01 -0.41483871066E+02  0.59002890504E+02  0.72165178525E+02  0.00000000000E+00 0.  1.
         11    1    3    3    0    0  0.23580384086E+01  0.41483871066E+02  0.78068464109E+01  0.42277875474E+02  0.00000000000E+00 0. -1.
<mgrwt>
<rscale>  0 0.92917553E+02</rscale>
<asrwt>0</asrwt>
<pdfrwt beam="2">  1        1 0.36641014E-02 0.92917553E+02</pdfrwt>
<pdfrwt beam="1">  1       -1 0.13942522E-01 0.92917553E+02</pdfrwt>
<totfact> 0.78907013E+04</totfact>
</mgrwt>
</event>
<event>
 5    1  0.1197825E+001  0.9180284E+02  0.7546771E-02  0.1298544E+00
          2   -1    0    0  501    0  0.00000000000E+00  0.00000000000E+00  0.39903165550E+02  0.39903165550E+02  0.00000000000E+00 0. -1.
         -2   -1    0    0    0  501 -0.00000000000E+00 -0.00000000000E+00 -0.52801331060E+02  0.52801331060E+02  0.00000000000E+00 0.  1.
         23    2    1    2    0    0  0.00000000000E+00  0.00000000000E+00 -0.12898165510E+02  0.92704496610E+02  0.91802837746E+02 0.  0.
        -13    1    3    3    0    0 -0.17249588521E+02 -0.35781300679E+02  0.16778802094E+02  0.43120505356E+02  0.00000000000E+00 0. -1.
         13    1    3    3    0    0  0.17249588521E+02  0.35781300679E+02 -0.29676967604E+02  0.49583991253E+02  0.00000000000E+00 0.  1.
<mgrwt>
<rscale>  0 0.91802838E+02</rscale>
<asrwt>0</asrwt>
<pdfrwt beam="1">  1        2 0.61389485E-02 0.91802838E+02</pdfrwt>
<pdfrwt beam="2">  1       -2 0.81232817E-02 0.91802838E+02</pdfrwt>
<totfact> 0.93454304E+04</totfact>
</mgrwt>
</event>
<event>
 5    1  0.1197825E+001  0.9274745E+02  0.7546771E-02  0.1296332E+00
          1   -1    0    0  501    0  0.00000000000E+00  0.00000000000E+00  0.14626600519E+03  0.14626600519E+03  0.00000000000E+00 0. -1.
         -1   -1    0    0    0  501 -0.00000000000E+00 -0.00000000000E+00 -0.14702816773E+02  0.14702816773E+02  0.00000000000E+00 0.  1.
         23    2    1    2    0    0  0.00000000000E+00  0.00000000000E+00  0.13156318842E+03  0.16096882197E+03  0.92747447934E+02 0.  0.
        -11    1    3    3    0    0 -0.15678327683E+02 -0.43599819511E+02  0.69150573717E+02  0.83237948471E+02  0.00000000000E+00 0. -1.
         11    1    3    3    0    0  0.15678327683E+02  0.43599819511E+02  0.62412614704E+02  0.77730873496E+02  0.00000000000E+00 0.  1.
<mgrwt>
<rscale>  0 0.92747448E+02</rscale>
<asrwt>0</asrwt>
<pdfrwt beam="1">  1        1 0.22502461E-01 0.92747448E+02</pdfrwt>
<pdfrwt beam="2">  1       -1 0.22619719E-02 0.92747448E+02</pdfrwt>
<totfact> 0.10657766E+05</totfact>
</mgrwt>
</event>
<event>
 5    1  0.1197825E+001  0.1013300E+03  0.7546771E-02  0.1277524E+00
          2   -1    0    0  501    0  0.00000000000E+00  0.00000000000E+00  0.23004571037E+03  0.23004571037E+03  0.00000000000E+00 0. -1.
         -2   -1    0    0    0  501 -0.00000000000E+00 -0.00000000000E+00 -0.11158404511E+02  0.11158404511E+02  0.00000000000E+00 0.  1.
         23    2    1    2    0    0  0.00000000000E+00  0.00000000000E+00  0.21888730586E+03  0.24120411489E+03  0.10133001712E+03 0.  0.
        -13    1    3    3    0    0 -0.33289911110E+02 -0.37972117804E+02  0.11921284488E+03  0.12946737927E+03  0.00000000000E+00 0. -1.
         13    1    3    3    0    0  0.33289911110E+02  0.37972117804E+02  0.99674460986E+02  0.11173673561E+03  0.00000000000E+00 0.  1.
<mgrwt>
<rscale>  0 0.10133002E+03</rscale>
<asrwt>0</asrwt>
<pdfrwt beam="1">  1        2 0.35391644E-01 0.10133002E+03</pdfrwt>
<pdfrwt beam="2">  1       -2 0.17166778E-02 0.10133002E+03</pdfrwt>
<totfact> 0.12239231E+05</totfact>
</mgrwt>
</event>
<event>
 5    1  0.1197825E+001  0.9136012E+02  0.7546771E-02  0.1299591E+00
          2   -1    0    0  501    0  0.00000000000E+00  0.00000000000E+00  0.10089976244E+03  0.10089976244E+03  0.00000000000E+00 0. -1.
         -2   -1    0    0    0  501 -0.00000000000E+00 -0.00000000000E+00 -0.20680604395E+02  0.20680604395E+02  0.00000000000E+00 0.  1.
         23    2    1    2    0    0  0.00000000000E+00  0.00000000000E+00  0.80219158044E+02  0.12158036683E+03  0.91360124137E+02 0.  0.
        -11    1    3    3    0    0  0.18321444102E+02  0.24814611284E+02  0.84947790583E+02  0.90374594727E+02  0.00000000000E+00 0. -1.
         11    1    3    3    0    0 -0.18321444102E+02 -0.24814611284E+02 -0.47286325390E+01  0.31205772108E+02  0.00000000000E+00 0.  1.
<mgrwt>
<rscale>  0 0.91360124E+02</rscale>
<asrwt>0</asrwt>
<pdfrwt beam="1">  1        2 0.15523040E-01 0.91360124E+02</pdfrwt>
<pdfrwt beam="2">  1       -2 0.31816315E-02 0.91360124E+02</pdfrwt>
<totfact> 0.12233297E+05</totfact>
</mgrwt>
</event>
<event>
 5    1  0.1197825E+001  0.8893178E+02  0.7546771E-02  0.1305459E+00
         -2   -1    0    0    0  501 -0.00000000000E+00  0.00000000000E+00  0.67229608413E+02  0.67229608413E+02  0.00000000000E+00 0.  1.
          2   -1    0    0  501    0  0.00000000000E+00 -0.00000000000E+00 -0.29409888196E+02  0.29409888196E+02  0.00000000000E+00 0. -1.
         23    2    1    2    0    0  0.00000000000E+00  0.00000000000E+00  0.37819720217E+02  0.96639496610E+02  0.88931777603E+02 0.  0.
        -11    1    3    3    0    0 -0.28458896325E+02  0.31015465077E+02  0.33379350945E+01  0.42225699102E+02  0.00000000000E+00 0. -1.
         11    1    3    3    0    0  0.28458896325E+02 -0.31015465077E+02  0.34481785123E+02  0.54413797508E+02  0.00000000000E+00 0.  1.
<mgrwt>
<rscale>  0 0.88931778E+02</rscale>
<asrwt>0</asrwt>
<pdfrwt beam="2">  1        2 0.45245982E-02 0.88931778E+02</pdfrwt>
<pdfrwt beam="1">  1       -2 0.10343017E-01 0.88931778E+02</pdfrwt>
<totfact> 0.94740341E+04</totfact>
</mgrwt>
</event>
<event>
 5    1  0.1197825E+001  0.1109550E+03  0.7546771E-02  0.1258812E+00
          1   -1    0    0  501    0  0.00000000000E+00  0.00000000000E+00  0.31666884764E+02  0.31666884764E+02  0.00000000000E+00 0. -1.
         -1   -1    0    0    0  501 -0.00000000000E+00 -0.00000000000E+00 -0.97191503533E+02  0.97191503533E+02  0.00000000000E+00 0.  1.
         23    2    1    2    0    0  0.00000000000E+00  0.00000000000E+00 -0.65524618769E+02  0.12885838830E+03  0.11095498443E+03 0.  0.
        -13    1    3    3    0    0 -0.47196928582E+02  0.28465966112E+02 -0.40097349835E+02  0.68159069522E+02  0.00000000000E+00 0. -1.
         13    1    3    3    0    0  0.47196928582E+02 -0.28465966112E+02 -0.25427268934E+02  0.60699318775E+02  0.00000000000E+00 0.  1.
<mgrwt>
<rscale>  0 0.11095498E+03</rscale>
<asrwt>0</asrwt>
<pdfrwt beam="1">  1        1 0.48718284E-02 0.11095498E+03</pdfrwt>
<pdfrwt beam="2">  1       -1 0.14952539E-01 0.11095498E+03</pdfrwt>
<totfact> 0.49290638E+04</totfact>
</mgrwt>
</event>
<event>
 5    1  0.1197825E+001  0.9002564E+02  0.7546771E-02  0.1302790E+00
          2   -1    0    0  501    0  0.00000000000E+00  0.00000000000E+00  0.13852261551E+03  0.13852261551E+03  0.00000000000E+00 0. -1.
         -2   -1    0    0    0  501 -0.00000000000E+00 -0.00000000000E+00 -0.14626880684E+02  0.14626880684E+02  0.00000000000E+00 0.  1.
         23    2    1    2    0    0  0.00000000000E+00  0.00000000000E+00  0.12389573482E+03  0.15314949619E+03  0.90025635660E+02 0.  0.
        -13    1    3    3    0    0 -0.31859625069E+02  0.12210672486E+02  0.11189463952E+03  0.11698096677E+03  0.00000000000E+00 0. -1.
         13    1    3    3    0    0  0.31859625069E+02 -0.12210672486E+02  0.12001095299E+02  0.36168529420E+02  0.00000000000E+00 0.  1.
<mgrwt>
<rscale>  0 0.90025636E+02</rscale>
<asrwt>0</asrwt>
<pdfrwt beam="1">  1        2 0.21311171E-01 0.90025636E+02</pdfrwt>
<pdfrwt beam="2">  1       -2 0.22502894E-02 0.90025636E+02</pdfrwt>
<totfact> 0.14089100E+05</totfact>
</mgrwt>
</event>
<event>
 5    1  0.1197825E+001  0.9234375E+02  0.7546771E-02  0.1297273E+00
          1   -1    0    0  501    0  0.00000000000E+00  0.00000000000E+00  0.87054451283E+02  0.87054451283E+02  0.00000000000E+00 0. -1.
         -1   -1    0    0    0  501 -0.00000000000E+00 -0.00000000000E+00 -0.24488606112E+02  0.24488606112E+02  0.00000000000E+00 0.  1.
         23    2    1    2    0    0  0.00000000000E+00  0.00000000000E+00  0.62565845170E+02  0.11154305739E+03  0.92343752745E+02 0.  0.
        -11    1    3    3    0    0  0.13778737668E+01 -0.43752926769E+02  0.49020104154E+02  0.65720527602E+02  0.00000000000E+00 0.  1.
         11    1    3    3    0    0 -0.13778737668E+01  0.43752926769E+02  0.13545741016E+02  0.45822529793E+02  0.00000000000E+00 0. -1.
<mgrwt>
<rscale>  0 0.92343753E+02</rscale>
<asrwt>0</asrwt>
<pdfrwt beam="1">  1        1 0.13392992E-01 0.92343753E+02</pdfrwt>
<pdfrwt beam="2">  1       -1 0.37674779E-02 0.92343753E+02</pdfrwt>
<totfact> 0.98610344E+04</totfact>
</mgrwt>
</event>
<event>
 5    1  0.1197825E+001  0.9261188E+02  0.7546771E-02  0.1296647E+00
          1   -1    0    0  501    0  0.00000000000E+00  0.00000000000E+00  0.15236560014E+02  0.15236560014E+02  0.00000000000E+00 0. -1.
         -1   -1    0    0    0  501 -0.00000000000E+00 -0.00000000000E+00 -0.14072992730E+03  0.14072992730E+03  0.00000000000E+00 0.  1.
         23    2    1    2    0    0  0.00000000000E+00  0.00000000000E+00 -0.12549336729E+03  0.15596648731E+03  0.92611877921E+02 0.  0.
        -11    1    3    3    0    0 -0.14103973864E+02  0.34099093282E+02 -0.10985809623E+03  0.11588991133E+03  0.00000000000E+00 0.  1.
         11    1    3    3    0    0  0.14103973864E+02 -0.34099093282E+02 -0.15635271058E+02  0.40076575982E+02  0.00000000000E+00 0. -1.
<mgrwt>
<rscale>  0 0.92611878E+02</rscale>
<asrwt>0</asrwt>
<pdfrwt beam="1">  1        1 0.23440862E-02 0.92611878E+02</pdfrwt>
<pdfrwt beam="2">  1       -1 0.21650757E-01 0.92611878E+02</pdfrwt>
<totfact> 0.72876117E+04</totfact>
</mgrwt>
</event>
<event>
 5    1  0.1197825E+001  0.9171711E+02  0.7546771E-02  0.1298746E+00
          1   -1    0    0  501    0  0.00000000000E+00  0.00000000000E+00  0.49825990673E+02  0.49825990673E+02  0.00000000000E+00 0. -1.
         -1   -1    0    0    0  501 -0.00000000000E+00 -0.00000000000E+00 -0.42207029703E+02  0.42207029703E+02  0.00000000000E+00 0.  1.
         23    2    1    2    0    0  0.00000000000E+00  0.00000000000E+00  0.76189609696E+01  0.92033020376E+02  0.91717110036E+02 0.  0.
        -13    1    3    3    0    0  0.31153517597E+02 -0.32543444912E+02 -0.47868000961E+01  0.45304866411E+02  0.00000000000E+00 0.  1.
         13    1    3    3    0    0 -0.31153517597E+02  0.32543444912E+02  0.12405761066E+02  0.46728153965E+02  0.00000000000E+00 0. -1.
<mgrwt>
<rscale>  0 0.91717110E+02</rscale>
<asrwt>0</asrwt>
<pdfrwt beam="1">  1        1 0.76655370E-02 0.91717110E+02</pdfrwt>
<pdfrwt beam="2">  1       -1 0.64933892E-02 0.91717110E+02</pdfrwt>
<totfact> 0.92177448E+04</totfact>
</mgrwt>
</event>
<event>
 5    1  0.1197825E+001  0.9073555E+02  0.7546771E-02  0.1301080E+00
         -2   -1    0    0    0  501 -0.00000000000E+00  0.00000000000E+00  0.63473958769E+01  0.63473958769E+01  0.00000000000E+00 0.  1.
          2   -1    0    0  501    0  0.00000000000E+00 -0.00000000000E+00 -0.32426449205E+03  0.32426449205E+03  0.00000000000E+00 0. -1.
         23    2    1    2    0    0  0.00000000000E+00  0.00000000000E+00 -0.31791709617E+03  0.33061188792E+03  0.90735552014E+02 0.  0.
        -13    1    3    3    0    0  0.16194859743E+02 -0.37975513794E+02 -0.90420240239E+02  0.99399361039E+02  0.00000000000E+00 0.  1.
         13    1    3    3    0    0 -0.16194859743E+02  0.37975513794E+02 -0.22749685593E+03  0.23121252689E+03  0.00000000000E+00 0. -1.
<mgrwt>
<rscale>  0 0.90735552E+02</rscale>
<asrwt>0</asrwt>
<pdfrwt beam="2">  1        2 0.49886846E-01 0.90735552E+02</pdfrwt>
<pdfrwt beam="1">  1       -2 0.97652242E-03 0.90735552E+02</pdfrwt>
<totfact> 0.18732898E+05</totfact>
</mgrwt>
</event>
<event>
 5    1  0.1197825E+001  0.9230289E+02  0.7546771E-02  0.1297369E+00
         -2   -1    0    0    0  501 -0.00000000000E+00  0.00000000000E+00  0.14414708436E+03  0.14414708436E+03  0.00000000000E+00 0. -1.
          2   -1    0    0  501    0  0.00000000000E+00 -0.00000000000E+00 -0.14776269055E+02  0.14776269055E+02  0.00000000000E+00 0.  1.
         23    2    1    2    0    0  0.00000000000E+00  0.00000000000E+00  0.12937081531E+03  0.15892335342E+03  0.92302894906E+02 0.  0.
        -13    1    3    3    0    0  0.26267815928E+02 -0.36507483464E+02  0.46861948627E+02  0.64952572941E+02  0.00000000000E+00 0.  1.
         13    1    3    3    0    0 -0.26267815928E+02  0.36507483464E+02  0.82508866679E+02  0.93970780475E+02  0.00000000000E+00 0. -1.
<mgrwt>
<rscale>  0 0.92302895E+02</rscale>
<asrwt>0</asrwt>
<pdfrwt beam="2">  1        2 0.22732723E-02 0.92302895E+02</pdfrwt>
<pdfrwt beam="1">  1       -2 0.22176474E-01 0.92302895E+02</pdfrwt>
<totfact> 0.68697588E+04</totfact>
</mgrwt>
</event>
<event>
 5    1  0.1197825E+001  0.9184518E+02  0.7546771E-02  0.1298444E+00
          1   -1    0    0  501    0  0.00000000000E+00  0.00000000000E+00  0.89548187362E+01  0.89548187362E+01  0.00000000000E+00 0. -1.
         -1   -1    0    0    0  501 -0.00000000000E+00 -0.00000000000E+00 -0.23550275253E+03  0.23550275253E+03  0.00000000000E+00 0.  1.
         23    2    1    2    0    0  0.00000000000E+00  0.00000000000E+00 -0.22654793380E+03  0.24445757127E+03  0.91845184104E+02 0.  0.
        -13    1    3    3    0    0  0.10322471217E+01  0.42022707536E+02 -0.64058271460E+02  0.76618768101E+02  0.00000000000E+00 0. -1.
         13    1    3    3    0    0 -0.10322471217E+01 -0.42022707536E+02 -0.16248966234E+03  0.16783880317E+03  0.00000000000E+00 0.  1.
<mgrwt>
<rscale>  0 0.91845184E+02</rscale>
<asrwt>0</asrwt>
<pdfrwt beam="1">  1        1 0.13776645E-02 0.91845184E+02</pdfrwt>
<pdfrwt beam="2">  1       -1 0.36231192E-01 0.91845184E+02</pdfrwt>
<totfact> 0.64810196E+04</totfact>
</mgrwt>
</event>
<event>
 5    1  0.1197825E+001  0.9011327E+02  0.7546771E-02  0.1302578E+00
         -3   -1    0    0    0  501 -0.00000000000E+00  0.00000000000E+00  0.40898572894E+02  0.40898572894E+02  0.00000000000E+00 0.  1.
          3   -1    0    0  501    0  0.00000000000E+00 -0.00000000000E+00 -0.49637441810E+02  0.49637441810E+02  0.00000000000E+00 0. -1.
         23    2    1    2    0    0  0.00000000000E+00  0.00000000000E+00 -0.87388689151E+01  0.90536014704E+02  0.90113273876E+02 0.  0.
        -11    1    3    3    0    0  0.16388971598E+01 -0.14763059778E+02 -0.47106814272E+02  0.49393176338E+02  0.00000000000E+00 0. -1.
         11    1    3    3    0    0 -0.16388971598E+01  0.14763059778E+02  0.38367945357E+02  0.41142838366E+02  0.00000000000E+00 0.  1.
<mgrwt>
<rscale>  0 0.90113274E+02</rscale>
<asrwt>0</asrwt>
<pdfrwt beam="2">  1        3 0.76365295E-02 0.90113274E+02</pdfrwt>
<pdfrwt beam="1">  1       -3 0.62920881E-02 0.90113274E+02</pdfrwt>
<totfact> 0.36535609E+04</totfact>
</mgrwt>
</event>
<event>
 5    1  0.1197825E+001  0.9256198E+02  0.7546771E-02  0.1296763E+00
         -4   -1    0    0    0  501 -0.00000000000E+00  0.00000000000E+00  0.10571983607E+03  0.10571983607E+03  0.00000000000E+00 0.  1.
          4   -1    0    0  501    0  0.00000000000E+00 -0.00000000000E+00 -0.20260436522E+02  0.20260436522E+02  0.00000000000E+00 0. -1.
         23    2    1    2    0    0  0.00000000000E+00  0.00000000000E+00  0.85459399549E+02  0.12598027259E+03  0.92561979838E+02 0.  0.
        -11    1    3    3    0    0  0.24837814195E+02  0.20594585415E+02 -0.24287602389E+01  0.32356650610E+02  0.00000000000E+00 0. -1.
         11    1    3    3    0    0 -0.24837814195E+02 -0.20594585415E+02  0.87888159788E+02  0.93623621984E+02  0.00000000000E+00 0.  1.
<mgrwt>
<rscale>  0 0.92561980E+02</rscale>
<asrwt>0</asrwt>
<pdfrwt beam="2">  1        4 0.31169903E-02 0.92561980E+02</pdfrwt>
<pdfrwt beam="1">  1       -4 0.16264590E-01 0.92561980E+02</pdfrwt>
<totfact> 0.23940534E+04</totfact>
</mgrwt>
</event>
<event>
 5    1  0.1197825E+001  0.9054002E+02  0.7546771E-02  0.1301549E+00
          2   -1    0    0  501    0  0.00000000000E+00  0.00000000000E+00  0.81096790743E+02  0.81096790743E+02  0.00000000000E+00 0. -1.
         -2   -1    0    0    0  501 -0.00000000000E+00 -0.00000000000E+00 -0.25270711250E+02  0.25270711250E+02  0.00000000000E+00 0.  1.
         23    2    1    2    0    0  0.00000000000E+00  0.00000000000E+00  0.55826079492E+02  0.10636750199E+03  0.90540015069E+02 0.  0.
        -13    1    3    3    0    0  0.19000071232E+02 -0.17913986980E+02  0.71356629588E+02  0.75984749934E+02  0.00000000000E+00 0. -1.
         13    1    3    3    0    0 -0.19000071232E+02  0.17913986980E+02 -0.15530550096E+02  0.30382752058E+02  0.00000000000E+00 0.  1.
<mgrwt>
<rscale>  0 0.90540015E+02</rscale>
<asrwt>0</asrwt>
<pdfrwt beam="1">  1        2 0.12476429E-01 0.90540015E+02</pdfrwt>
<pdfrwt beam="2">  1       -2 0.38878018E-02 0.90540015E+02</pdfrwt>
<totfact> 0.11756893E+05</totfact>
</mgrwt>
</event>
<event>
 5    1  0.1197825E+001  0.9284185E+02  0.7546771E-02  0.1296112E+00
          2   -1    0    0  501    0  0.00000000000E+00  0.00000000000E+00  0.15024665174E+02  0.15024665174E+02  0.00000000000E+00 0.  1.
         -2   -1    0    0    0  501 -0.00000000000E+00 -0.00000000000E+00 -0.14342432234E+03  0.14342432234E+03  0.00000000000E+00 0. -1.
         23    2    1    2    0    0  0.00000000000E+00  0.00000000000E+00 -0.12839965716E+03  0.15844898751E+03  0.92841853082E+02 0.  0.
        -13    1    3    3    0    0 -0.30983237317E+02  0.23548273431E+02 -0.21010326791E+02  0.44225739204E+02  0.00000000000E+00 0.  1.
         13    1    3    3    0    0  0.30983237317E+02 -0.23548273431E+02 -0.10738933037E+03  0.11422324831E+03  0.00000000000E+00 0. -1.
<mgrwt>
<rscale>  0 0.92841853E+02</rscale>
<asrwt>0</asrwt>
<pdfrwt beam="1">  1        2 0.23114870E-02 0.92841853E+02</pdfrwt>
<pdfrwt beam="2">  1       -2 0.22065280E-01 0.92841853E+02</pdfrwt>
<totfact> 0.67814609E+04</totfact>
</mgrwt>
</event>
<event>
 5    1  0.1197825E+001  0.8896540E+02  0.7546771E-02  0.1305377E+00
         -1   -1    0    0    0  501 -0.00000000000E+00  0.00000000000E+00  0.47487740664E+02  0.47487740664E+02  0.00000000000E+00 0.  1.
          1   -1    0    0  501    0  0.00000000000E+00 -0.00000000000E+00 -0.41667818023E+02  0.41667818023E+02  0.00000000000E+00 0. -1.
         23    2    1    2    0    0  0.00000000000E+00  0.00000000000E+00  0.58199226412E+01  0.89155558688E+02  0.88965398585E+02 0.  0.
        -13    1    3    3    0    0  0.40501885447E+02  0.10653204571E+02 -0.12115987786E+02  0.43596911042E+02  0.00000000000E+00 0. -1.
         13    1    3    3    0    0 -0.40501885447E+02 -0.10653204571E+02  0.17935910427E+02  0.45558647645E+02  0.00000000000E+00 0.  1.
<mgrwt>
<rscale>  0 0.88965399E+02</rscale>
<asrwt>0</asrwt>
<pdfrwt beam="2">  1        1 0.64104335E-02 0.88965399E+02</pdfrwt>
<pdfrwt beam="1">  1       -1 0.73058063E-02 0.88965399E+02</pdfrwt>
<totfact> 0.97745336E+04</totfact>
</mgrwt>
</event>
<event>
 5    1  0.1197825E+001  0.9180573E+02  0.7546771E-02  0.1298537E+00
         -2   -1    0    0    0  501 -0.00000000000E+00  0.00000000000E+00  0.17859186992E+02  0.17859186992E+02  0.00000000000E+00 0.  1.
          2   -1    0    0  501    0  0.00000000000E+00 -0.00000000000E+00 -0.11798258006E+03  0.11798258006E+03  0.00000000000E+00 0. -1.
         23    2    1    2    0    0  0.00000000000E+00  0.00000000000E+00 -0.10012339307E+03  0.13584176706E+03  0.91805728778E+02 0.  0.
        -11    1    3    3    0    0 -0.13691937479E+02 -0.17047985913E+02  0.96583421953E+01  0.23903693220E+02  0.00000000000E+00 0.  1.
         11    1    3    3    0    0  0.13691937479E+02  0.17047985913E+02 -0.10978173527E+03  0.11193807384E+03  0.00000000000E+00 0. -1.
<mgrwt>
<rscale>  0 0.91805729E+02</rscale>
<asrwt>0</asrwt>
<pdfrwt beam="2">  1        2 0.18151166E-01 0.91805729E+02</pdfrwt>
<pdfrwt beam="1">  1       -2 0.27475672E-02 0.91805729E+02</pdfrwt>
<totfact> 0.12675328E+05</totfact>
</mgrwt>
</event>
<event>
 5    1  0.1197825E+001  0.9297467E+02  0.7546771E-02  0.1295804E+00
          3   -1    0    0  501    0  0.00000000000E+00  0.00000000000E+00  0.46624293332E+01  0.46624293332E+01  0.00000000000E+00 0. -1.
         -3   -1    0    0    0  501 -0.00000000000E+00 -0.00000000000E+00 -0.46350783493E+03  0.46350783493E+03  0.00000000000E+00 0.  1.
         23    2    1    2    0    0  0.00000000000E+00  0.00000000000E+00 -0.45884540560E+03  0.46817026426E+03  0.92974674524E+02 0.  0.
        -11    1    3    3    0    0 -0.12468997954E+02  0.44140903173E+02 -0.26749866752E+03  0.27140271253E+03  0.00000000000E+00 0.  1.
         11    1    3    3    0    0  0.12468997954E+02 -0.44140903173E+02 -0.19134673807E+03  0.19676755173E+03  0.00000000000E+00 0. -1.
<mgrwt>
<rscale>  0 0.92974675E+02</rscale>
<asrwt>0</asrwt>
<pdfrwt beam="1">  1        3 0.71729688E-03 0.92974675E+02</pdfrwt>
<pdfrwt beam="2">  1       -3 0.71308892E-01 0.92974675E+02</pdfrwt>
<totfact> 0.17738256E+04</totfact>
</mgrwt>
</event>
<event>
 5    1  0.1197825E+001  0.8991905E+02  0.7546771E-02  0.1303048E+00
         -1   -1    0    0    0  501 -0.00000000000E+00  0.00000000000E+00  0.31289575437E+02  0.31289575437E+02  0.00000000000E+00 0.  1.
          1   -1    0    0  501    0  0.00000000000E+00 -0.00000000000E+00 -0.64601672467E+02  0.64601672467E+02  0.00000000000E+00 0. -1.
         23    2    1    2    0    0  0.00000000000E+00  0.00000000000E+00 -0.33312097030E+02  0.95891247904E+02  0.89919050351E+02 0.  0.
        -13    1    3    3    0    0 -0.16933019930E+02  0.36897474954E+02  0.39456382107E+01  0.40788710238E+02  0.00000000000E+00 0.  1.
         13    1    3    3    0    0  0.16933019930E+02 -0.36897474954E+02 -0.37257735241E+02  0.55102537666E+02  0.00000000000E+00 0. -1.
<mgrwt>
<rscale>  0 0.89919050E+02</rscale>
<asrwt>0</asrwt>
<pdfrwt beam="2">  1        1 0.99387187E-02 0.89919050E+02</pdfrwt>
<pdfrwt beam="1">  1       -1 0.48137809E-02 0.89919050E+02</pdfrwt>
<totfact> 0.10126994E+05</totfact>
</mgrwt>
</event>
<event>
 5    1  0.1197825E+001  0.8542196E+02  0.7546771E-02  0.1314333E+00
          3   -1    0    0  501    0  0.00000000000E+00  0.00000000000E+00  0.17589684913E+02  0.17589684913E+02  0.00000000000E+00 0. -1.
         -3   -1    0    0    0  501 -0.00000000000E+00 -0.00000000000E+00 -0.10371008695E+03  0.10371008695E+03  0.00000000000E+00 0.  1.
         23    2    1    2    0    0  0.00000000000E+00  0.00000000000E+00 -0.86120402042E+02  0.12129977187E+03  0.85421958578E+02 0.  0.
        -11    1    3    3    0    0  0.21504533250E+02 -0.21229505403E+02 -0.85922090701E+02  0.91080966840E+02  0.00000000000E+00 0.  1.
         11    1    3    3    0    0 -0.21504533250E+02  0.21229505403E+02 -0.19831134067E+00  0.30218805028E+02  0.00000000000E+00 0. -1.
<mgrwt>
<rscale>  0 0.85421959E+02</rscale>
<asrwt>0</asrwt>
<pdfrwt beam="1">  1        3 0.27061054E-02 0.85421959E+02</pdfrwt>
<pdfrwt beam="2">  1       -3 0.15955398E-01 0.85421959E+02</pdfrwt>
<totfact> 0.39544841E+04</totfact>
</mgrwt>
</event>
<event>
 5    1  0.1197825E+001  0.9086165E+02  0.7546771E-02  0.1300778E+00
         -2   -1    0    0    0  501 -0.00000000000E+00  0.00000000000E+00  0.13613429604E+03  0.13613429604E+03  0.00000000000E+00 0. -1.
          2   -1    0    0  501    0  0.00000000000E+00 -0.00000000000E+00 -0.15161204921E+02  0.15161204921E+02  0.00000000000E+00 0.  1.
         23    2    1    2    0    0  0.00000000000E+00  0.00000000000E+00  0.12097309112E+03  0.15129550096E+03  0.90861652175E+02 0.  0.
        -13    1    3    3    0    0 -0.32970558793E+02 -0.30774700091E+02  0.69579385370E+02  0.82918217427E+02  0.00000000000E+00 0.  1.
         13    1    3    3    0    0  0.32970558793E+02  0.30774700091E+02  0.51393705749E+02  0.68377283534E+02  0.00000000000E+00 0. -1.
<mgrwt>
<rscale>  0 0.90861652E+02</rscale>
<asrwt>0</asrwt>
<pdfrwt beam="2">  1        2 0.23324932E-02 0.90861652E+02</pdfrwt>
<pdfrwt beam="1">  1       -2 0.20943737E-01 0.90861652E+02</pdfrwt>
<totfact> 0.72935232E+04</totfact>
</mgrwt>
</event>
<event>
 5    1  0.1197825E+001  0.9327635E+02  0.7546771E-02  0.1295106E+00
          1   -1    0    0  501    0  0.00000000000E+00  0.00000000000E+00  0.36459717331E+03  0.36459717331E+03  0.00000000000E+00 0. -1.
         -1   -1    0    0    0  501 -0.00000000000E+00 -0.00000000000E+00 -0.59658151537E+01  0.59658151537E+01  0.00000000000E+00 0.  1.
         23    2    1    2    0    0  0.00000000000E+00  0.00000000000E+00  0.35863135816E+03  0.37056298847E+03  0.93276349447E+02 0.  0.
        -13    1    3    3    0    0 -0.32880295629E+02  0.32709795736E+02  0.15982300071E+03  0.16641645392E+03  0.00000000000E+00 0.  1.
         13    1    3    3    0    0  0.32880295629E+02 -0.32709795736E+02  0.19880835745E+03  0.20414653455E+03  0.00000000000E+00 0. -1.
<mgrwt>
<rscale>  0 0.93276349E+02</rscale>
<asrwt>0</asrwt>
<pdfrwt beam="1">  1        1 0.56091856E-01 0.93276349E+02</pdfrwt>
<pdfrwt beam="2">  1       -1 0.91781800E-03 0.93276349E+02</pdfrwt>
<totfact> 0.12497711E+05</totfact>
</mgrwt>
</event>
<event>
 5    1  0.1197825E+001  0.1061155E+03  0.7546771E-02  0.1267937E+00
          1   -1    0    0  501    0  0.00000000000E+00  0.00000000000E+00  0.54870346357E+02  0.54870346357E+02  0.00000000000E+00 0. -1.
         -1   -1    0    0    0  501 -0.00000000000E+00 -0.00000000000E+00 -0.51305076306E+02  0.51305076306E+02  0.00000000000E+00 0.  1.
         23    2    1    2    0    0  0.00000000000E+00  0.00000000000E+00  0.35652700508E+01  0.10617542266E+03  0.10611554658E+03 0.  0.
        -13    1    3    3    0    0  0.10047849036E+02 -0.44470707310E+00 -0.50342539997E+02  0.51337397363E+02  0.00000000000E+00 0.  1.
         13    1    3    3    0    0 -0.10047849036E+02  0.44470707310E+00  0.53907810048E+02  0.54838025300E+02  0.00000000000E+00 0. -1.
<mgrwt>
<rscale>  0 0.10611555E+03</rscale>
<asrwt>0</asrwt>
<pdfrwt beam="1">  1        1 0.84415917E-02 0.10611555E+03</pdfrwt>
<pdfrwt beam="2">  1       -1 0.78930887E-02 0.10611555E+03</pdfrwt>
<totfact> 0.61991149E+04</totfact>
</mgrwt>
</event>
<event>
 5    1  0.1197825E+001  0.9031407E+02  0.7546771E-02  0.1302093E+00
          2   -1    0    0  501    0  0.00000000000E+00  0.00000000000E+00  0.20360513385E+02  0.20360513385E+02  0.00000000000E+00 0. -1.
         -2   -1    0    0    0  501 -0.00000000000E+00 -0.00000000000E+00 -0.10015257506E+03  0.10015257506E+03  0.00000000000E+00 0.  1.
         23    2    1    2    0    0  0.00000000000E+00  0.00000000000E+00 -0.79792061673E+02  0.12051308844E+03  0.90314070776E+02 0.  0.
        -13    1    3    3    0    0  0.38013511148E+02 -0.24264098640E+02 -0.42992342951E+02  0.62306621358E+02  0.00000000000E+00 0.  1.
         13    1    3    3    0    0 -0.38013511148E+02  0.24264098640E+02 -0.36799718722E+02  0.58206467086E+02  0.00000000000E+00 0. -1.
<mgrwt>
<rscale>  0 0.90314071E+02</rscale>
<asrwt>0</asrwt>
<pdfrwt beam="1">  1        2 0.31323867E-02 0.90314071E+02</pdfrwt>
<pdfrwt beam="2">  1       -2 0.15408088E-01 0.90314071E+02</pdfrwt>
<totfact> 0.81678589E+04</totfact>
</mgrwt>
</event>
<event>
 5    1  0.1197825E+001  0.9213762E+02  0.7546771E-02  0.1297756E+00
          2   -1    0    0  501    0  0.00000000000E+00  0.00000000000E+00  0.32305673224E+02  0.32305673224E+02  0.00000000000E+00 0. -1.
         -2   -1    0    0    0  501 -0.00000000000E+00 -0.00000000000E+00 -0.65695430045E+02  0.65695430045E+02  0.00000000000E+00 0.  1.
         23    2    1    2    0    0  0.00000000000E+00  0.00000000000E+00 -0.33389756821E+02  0.98001103269E+02  0.92137616539E+02 0.  0.
        -11    1    3    3    0    0 -0.69005669353E+01 -0.29464407576E+02 -0.53641057008E+02  0.61588409094E+02  0.00000000000E+00 0.  1.
         11    1    3    3    0    0  0.69005669353E+01  0.29464407576E+02  0.20251300187E+02  0.36412694175E+02  0.00000000000E+00 0. -1.
<mgrwt>
<rscale>  0 0.92137617E+02</rscale>
<asrwt>0</asrwt>
<pdfrwt beam="1">  1        2 0.49701036E-02 0.92137617E+02</pdfrwt>
<pdfrwt beam="2">  1       -2 0.10106989E-01 0.92137617E+02</pdfrwt>
<totfact> 0.87469646E+04</totfact>
</mgrwt>
</event>
<event>
 5    1  0.1197825E+001  0.9172734E+02  0.7546771E-02  0.1298722E+00
         -1   -1    0    0    0  501 -0.00000000000E+00  0.00000000000E+00  0.65290906769E+02  0.65290906769E+02  0.00000000000E+00 0. -1.
          1   -1    0    0  501    0  0.00000000000E+00 -0.00000000000E+00 -0.32216982755E+02  0.32216982755E+02  0.00000000000E+00 0.  1.
         23    2    1    2    0    0  0.00000000000E+00  0.00000000000E+00  0.33073924014E+02  0.97507889524E+02  0.91727335455E+02 0.  0.
        -13    1    3    3    0    0 -0.17727022406E+02  0.13367213263E+02  0.59197623592E+02  0.63224112115E+02  0.00000000000E+00 0. -1.
         13    1    3    3    0    0  0.17727022406E+02 -0.13367213263E+02 -0.26123699578E+02  0.34283777409E+02  0.00000000000E+00 0.  1.
<mgrwt>
<rscale>  0 0.91727335E+02</rscale>
<asrwt>0</asrwt>
<pdfrwt beam="2">  1        1 0.49564589E-02 0.91727335E+02</pdfrwt>
<pdfrwt beam="1">  1       -1 0.10044755E-01 0.91727335E+02</pdfrwt>
<totfact> 0.86179296E+04</totfact>
</mgrwt>
</event>
<event>
 5    1  0.1197825E+001  0.9205126E+02  0.7546771E-02  0.1297959E+00
         -1   -1    0    0    0  501 -0.00000000000E+00  0.00000000000E+00  0.12490580383E+02  0.12490580383E+02  0.00000000000E+00 0.  1.
          1   -1    0    0  501    0  0.00000000000E+00 -0.00000000000E+00 -0.16959649647E+03  0.16959649647E+03  0.00000000000E+00 0. -1.
         23    2    1    2    0    0  0.00000000000E+00  0.00000000000E+00 -0.15710591609E+03  0.18208707686E+03  0.92051261195E+02 0.  0.
        -13    1    3    3    0    0 -0.35852552759E+02 -0.25560070234E+02 -0.10506517219E+03  0.11391844950E+03  0.00000000000E+00 0.  1.
         13    1    3    3    0    0  0.35852552759E+02  0.25560070234E+02 -0.52040743903E+02  0.68168627357E+02  0.00000000000E+00 0. -1.
<mgrwt>
<rscale>  0 0.92051261E+02</rscale>
<asrwt>0</asrwt>
<pdfrwt beam="2">  1        1 0.26091769E-01 0.92051261E+02</pdfrwt>
<pdfrwt beam="1">  1       -1 0.19216277E-02 0.92051261E+02</pdfrwt>
<totfact> 0.11181179E+05</totfact>
</mgrwt>
</event>
<event>
 5    1  0.1197825E+001  0.9109294E+02  0.7546771E-02  0.1300226E+00
          4   -1    0    0  501    0  0.00000000000E+00  0.00000000000E+00  0.69824562110E+02  0.69824562110E+02  0.00000000000E+00 0. -1.
         -4   -1    0    0    0  501 -0.00000000000E+00 -0.00000000000E+00 -0.29709900306E+02  0.29709900306E+02  0.00000000000E+00 0.  1.
         23    2    1    2    0    0  0.00000000000E+00  0.00000000000E+00  0.40114661804E+02  0.99534462416E+02  0.91092936701E+02 0.  0.
        -13    1    3    3    0    0 -0.19778832010E+02 -0.37334437227E+02  0.14685107182E+01  0.42275512090E+02  0.00000000000E+00 0.  1.
         13    1    3    3    0    0  0.19778832010E+02  0.37334437227E+02  0.38646151086E+02  0.57258950326E+02  0.00000000000E+00 0. -1.
<mgrwt>
<rscale>  0 0.91092937E+02</rscale>
<asrwt>0</asrwt>
<pdfrwt beam="1">  1        4 0.10742240E-01 0.91092937E+02</pdfrwt>
<pdfrwt beam="2">  1       -4 0.45707539E-02 0.91092937E+02</pdfrwt>
<totfact> 0.26553376E+04</totfact>
</mgrwt>
</event>
<event>
 5    1  0.1197825E+001  0.9551867E+02  0.7546771E-02  0.1290012E+00
          2   -1    0    0  501    0  0.00000000000E+00  0.00000000000E+00  0.21122054225E+02  0.21122054225E+02  0.00000000000E+00 0. -1.
         -2   -1    0    0    0  501 -0.00000000000E+00 -0.00000000000E+00 -0.10798922030E+03  0.10798922030E+03  0.00000000000E+00 0.  1.
         23    2    1    2    0    0  0.00000000000E+00  0.00000000000E+00 -0.86867166080E+02  0.12911127453E+03  0.95518671829E+02 0.  0.
        -11    1    3    3    0    0 -0.27871736338E+02 -0.96176263014E+01  0.73513709249E+01  0.30387087334E+02  0.00000000000E+00 0. -1.
         11    1    3    3    0    0  0.27871736338E+02  0.96176263014E+01 -0.94218537004E+02  0.98724187196E+02  0.00000000000E+00 0.  1.
<mgrwt>
<rscale>  0 0.95518672E+02</rscale>
<asrwt>0</asrwt>
<pdfrwt beam="1">  1        2 0.32495468E-02 0.95518672E+02</pdfrwt>
<pdfrwt beam="2">  1       -2 0.16613726E-01 0.95518672E+02</pdfrwt>
<totfact> 0.69411258E+04</totfact>
</mgrwt>
</event>
<event>
 5    1  0.1197825E+001  0.9271147E+02  0.7546771E-02  0.1296415E+00
          1   -1    0    0  501    0  0.00000000000E+00  0.00000000000E+00  0.14300277982E+02  0.14300277982E+02  0.00000000000E+00 0. -1.
         -1   -1    0    0    0  501 -0.00000000000E+00 -0.00000000000E+00 -0.15026660414E+03  0.15026660414E+03  0.00000000000E+00 0.  1.
         23    2    1    2    0    0  0.00000000000E+00  0.00000000000E+00 -0.13596632616E+03  0.16456688212E+03  0.92711470932E+02 0.  0.
        -13    1    3    3    0    0 -0.44614135302E+02  0.11764137828E+02 -0.75928976364E+02  0.88848328399E+02  0.00000000000E+00 0.  1.
         13    1    3    3    0    0  0.44614135302E+02 -0.11764137828E+02 -0.60037349796E+02  0.75718553724E+02  0.00000000000E+00 0. -1.
<mgrwt>
<rscale>  0 0.92711471E+02</rscale>
<asrwt>0</asrwt>
<pdfrwt beam="1">  1        1 0.22000426E-02 0.92711471E+02</pdfrwt>
<pdfrwt beam="2">  1       -1 0.23117940E-01 0.92711471E+02</pdfrwt>
<totfact> 0.71583720E+04</totfact>
</mgrwt>
</event>
<event>
 5    1  0.1197825E+001  0.9221156E+02  0.7546771E-02  0.1297583E+00
         -2   -1    0    0    0  501 -0.00000000000E+00  0.00000000000E+00  0.85603084407E+01  0.85603084407E+01  0.00000000000E+00 0.  1.
          2   -1    0    0  501    0  0.00000000000E+00 -0.00000000000E+00 -0.24832552471E+03  0.24832552471E+03  0.00000000000E+00 0. -1.
         23    2    1    2    0    0  0.00000000000E+00  0.00000000000E+00 -0.23976521627E+03  0.25688583315E+03  0.92211562945E+02 0.  0.
        -13    1    3    3    0    0  0.23665938523E+02  0.24908718099E+02 -0.34233720280E+02  0.48502252398E+02  0.00000000000E+00 0.  1.
         13    1    3    3    0    0 -0.23665938523E+02 -0.24908718099E+02 -0.20553149599E+03  0.20838358075E+03  0.00000000000E+00 0. -1.
<mgrwt>
<rscale>  0 0.92211563E+02</rscale>
<asrwt>0</asrwt>
<pdfrwt beam="2">  1        2 0.38203920E-01 0.92211563E+02</pdfrwt>
<pdfrwt beam="1">  1       -2 0.13169708E-02 0.92211563E+02</pdfrwt>
<totfact> 0.16245160E+05</totfact>
</mgrwt>
</event>
<event>
 5    1  0.1197825E+001  0.8978148E+02  0.7546771E-02  0.1303382E+00
          3   -1    0    0  501    0  0.00000000000E+00  0.00000000000E+00  0.79362740074E+02  0.79362740074E+02  0.00000000000E+00 0.  1.
         -3   -1    0    0    0  501 -0.00000000000E+00 -0.00000000000E+00 -0.25391996514E+02  0.25391996514E+02  0.00000000000E+00 0. -1.
         23    2    1    2    0    0  0.00000000000E+00  0.00000000000E+00  0.53970743559E+02  0.10475473659E+03  0.89781477362E+02 0.  0.
        -13    1    3    3    0    0  0.35316739740E+02  0.23275671948E+02  0.44531635403E+02  0.61417388109E+02  0.00000000000E+00 0.  1.
         13    1    3    3    0    0 -0.35316739740E+02 -0.23275671948E+02  0.94391081562E+01  0.43337348479E+02  0.00000000000E+00 0. -1.
<mgrwt>
<rscale>  0 0.89781477E+02</rscale>
<asrwt>0</asrwt>
<pdfrwt beam="1">  1        3 0.12209652E-01 0.89781477E+02</pdfrwt>
<pdfrwt beam="2">  1       -3 0.39064610E-02 0.89781477E+02</pdfrwt>
<totfact> 0.35789026E+04</totfact>
</mgrwt>
</event>
<event>
 5    1  0.1197825E+001  0.9064589E+02  0.7546771E-02  0.1301295E+00
          1   -1    0    0  501    0  0.00000000000E+00  0.00000000000E+00  0.39977313564E+02  0.39977313564E+02  0.00000000000E+00 0. -1.
         -1   -1    0    0    0  501 -0.00000000000E+00 -0.00000000000E+00 -0.51383374659E+02  0.51383374659E+02  0.00000000000E+00 0.  1.
         23    2    1    2    0    0  0.00000000000E+00  0.00000000000E+00 -0.11406061094E+02  0.91360688223E+02  0.90645888616E+02 0.  0.
        -11    1    3    3    0    0 -0.31763664990E+02 -0.21310228826E+02 -0.30207568177E+02  0.48739649582E+02  0.00000000000E+00 0.  1.
         11    1    3    3    0    0  0.31763664990E+02  0.21310228826E+02  0.18801507083E+02  0.42621038641E+02  0.00000000000E+00 0. -1.
<mgrwt>
<rscale>  0 0.90645889E+02</rscale>
<asrwt>0</asrwt>
<pdfrwt beam="1">  1        1 0.61503559E-02 0.90645889E+02</pdfrwt>
<pdfrwt beam="2">  1       -1 0.79051346E-02 0.90645889E+02</pdfrwt>
<totfact> 0.92162494E+04</totfact>
</mgrwt>
</event>
<event>
 5    1  0.1197825E+001  0.8390316E+02  0.7546771E-02  0.1318326E+00
          1   -1    0    0  501    0  0.00000000000E+00  0.00000000000E+00  0.57137336205E+01  0.57137336205E+01  0.00000000000E+00 0. -1.
         -1   -1    0    0    0  501 -0.00000000000E+00 -0.00000000000E+00 -0.30801836244E+03  0.30801836244E+03  0.00000000000E+00 0.  1.
         23    2    1    2    0    0  0.00000000000E+00  0.00000000000E+00 -0.30230462882E+03  0.31373209606E+03  0.83903155440E+02 0.  0.
        -13    1    3    3    0    0  0.43799587250E+01 -0.39134497428E+02 -0.20524082616E+03  0.20898442442E+03  0.00000000000E+00 0.  1.
         13    1    3    3    0    0 -0.43799587250E+01  0.39134497428E+02 -0.97063802664E+02  0.10474767164E+03  0.00000000000E+00 0. -1.
<mgrwt>
<rscale>  0 0.83903155E+02</rscale>
<asrwt>0</asrwt>
<pdfrwt beam="1">  1        1 0.87903571E-03 0.83903155E+02</pdfrwt>
<pdfrwt beam="2">  1       -1 0.47387453E-01 0.83903155E+02</pdfrwt>
<totfact> 0.74462408E+04</totfact>
</mgrwt>
</event>
<event>
 5    1  0.1197825E+001  0.9107980E+02  0.7546771E-02  0.1300258E+00
         -2   -1    0    0    0  501 -0.00000000000E+00  0.00000000000E+00  0.97604274790E+02  0.97604274790E+02  0.00000000000E+00 0.  1.
          2   -1    0    0  501    0  0.00000000000E+00 -0.00000000000E+00 -0.21247865920E+02  0.21247865920E+02  0.00000000000E+00 0. -1.
         23    2    1    2    0    0  0.00000000000E+00  0.00000000000E+00  0.76356408870E+02  0.11885214071E+03  0.91079801140E+02 0.  0.
        -13    1    3    3    0    0  0.29337843173E+02  0.33246470397E+02  0.51729673181E+02  0.68132194470E+02  0.00000000000E+00 0. -1.
         13    1    3    3    0    0 -0.29337843173E+02 -0.33246470397E+02  0.24626735689E+02  0.50719946240E+02  0.00000000000E+00 0.  1.
<mgrwt>
<rscale>  0 0.91079801E+02</rscale>
<asrwt>0</asrwt>
<pdfrwt beam="2">  1        2 0.32689025E-02 0.91079801E+02</pdfrwt>
<pdfrwt beam="1">  1       -2 0.15016042E-01 0.91079801E+02</pdfrwt>
<totfact> 0.80596292E+04</totfact>
</mgrwt>
</event>
<event>
 5    1  0.1197825E+001  0.8634705E+02  0.7546771E-02  0.1311947E+00
          1   -1    0    0  501    0  0.00000000000E+00  0.00000000000E+00  0.35304645085E+03  0.35304645085E+03  0.00000000000E+00 0. -1.
         -1   -1    0    0    0  501 -0.00000000000E+00 -0.00000000000E+00 -0.52796256087E+01  0.52796256087E+01  0.00000000000E+00 0.  1.
         23    2    1    2    0    0  0.00000000000E+00  0.00000000000E+00  0.34776682524E+03  0.35832607646E+03  0.86347045879E+02 0.  0.
        -11    1    3    3    0    0 -0.93689401919E+01 -0.42013116112E+02  0.16007367307E+03  0.16576024788E+03  0.00000000000E+00 0. -1.
         11    1    3    3    0    0  0.93689401919E+01  0.42013116112E+02  0.18769315217E+03  0.19256582858E+03  0.00000000000E+00 0.  1.
<mgrwt>
<rscale>  0 0.86347046E+02</rscale>
<asrwt>0</asrwt>
<pdfrwt beam="1">  1        1 0.54314820E-01 0.86347046E+02</pdfrwt>
<pdfrwt beam="2">  1       -1 0.81225037E-03 0.86347046E+02</pdfrwt>
<totfact> 0.15252492E+05</totfact>
</mgrwt>
</event>
<event>
 5    1  0.1197825E+001  0.9336382E+02  0.7546771E-02  0.1294904E+00
         -1   -1    0    0    0  501 -0.00000000000E+00  0.00000000000E+00  0.12252964353E+02  0.12252964353E+02  0.00000000000E+00 0.  1.
          1   -1    0    0  501    0  0.00000000000E+00 -0.00000000000E+00 -0.17785089896E+03  0.17785089896E+03  0.00000000000E+00 0. -1.
         23    2    1    2    0    0  0.00000000000E+00  0.00000000000E+00 -0.16559793461E+03  0.19010386331E+03  0.93363820081E+02 0.  0.
        -11    1    3    3    0    0 -0.38699580575E+02 -0.25612249190E+02 -0.72505593418E+02  0.86085457089E+02  0.00000000000E+00 0.  1.
         11    1    3    3    0    0  0.38699580575E+02  0.25612249190E+02 -0.93092341188E+02  0.10401840622E+03  0.00000000000E+00 0. -1.
<mgrwt>
<rscale>  0 0.93363820E+02</rscale>
<asrwt>0</asrwt>
<pdfrwt beam="2">  1        1 0.27361677E-01 0.93363820E+02</pdfrwt>
<pdfrwt beam="1">  1       -1 0.18850714E-02 0.93363820E+02</pdfrwt>
<totfact> 0.10860063E+05</totfact>
</mgrwt>
</event>
<event>
 5    1  0.1197825E+001  0.9111525E+02  0.7546771E-02  0.1300173E+00
         -2   -1    0    0    0  501 -0.00000000000E+00  0.00000000000E+00  0.93389037292E+01  0.93389037292E+01  0.00000000000E+00 0.  1.
          2   -1    0    0  501    0  0.00000000000E+00 -0.00000000000E+00 -0.22224205982E+03  0.22224205982E+03  0.00000000000E+00 0. -1.
         23    2    1    2    0    0  0.00000000000E+00  0.00000000000E+00 -0.21290315609E+03  0.23158096355E+03  0.91115250124E+02 0.  0.
        -13    1    3    3    0    0 -0.18582092892E+02 -0.37662632820E+02 -0.61576990746E+02  0.74535185494E+02  0.00000000000E+00 0.  1.
         13    1    3    3    0    0  0.18582092892E+02  0.37662632820E+02 -0.15132616535E+03  0.15704577806E+03  0.00000000000E+00 0. -1.
<mgrwt>
<rscale>  0 0.91115250E+02</rscale>
<asrwt>0</asrwt>
<pdfrwt beam="2">  1        2 0.34191085E-01 0.91115250E+02</pdfrwt>
<pdfrwt beam="1">  1       -2 0.14367545E-02 0.91115250E+02</pdfrwt>
<totfact> 0.16102844E+05</totfact>
</mgrwt>
</event>
<event>
 5    1  0.1197825E+001  0.9215583E+02  0.7546771E-02  0.1297713E+00
         -2   -1    0    0    0  501 -0.00000000000E+00  0.00000000000E+00  0.10993030366E+03  0.10993030366E+03  0.00000000000E+00 0.  1.
          2   -1    0    0  501    0  0.00000000000E+00 -0.00000000000E+00 -0.19313821157E+02  0.19313821157E+02  0.00000000000E+00 0. -1.
         23    2    1    2    0    0  0.00000000000E+00  0.00000000000E+00  0.90616482501E+02  0.12924412481E+03  0.92155829432E+02 0.  0.
        -11    1    3    3    0    0  0.23709013462E+02  0.11312858651E+02  0.98399451998E+02  0.10184571785E+03  0.00000000000E+00 0.  1.
         11    1    3    3    0    0 -0.23709013462E+02 -0.11312858651E+02 -0.77829694971E+01  0.27398406968E+02  0.00000000000E+00 0. -1.
<mgrwt>
<rscale>  0 0.92155829E+02</rscale>
<asrwt>0</asrwt>
<pdfrwt beam="2">  1        2 0.29713572E-02 0.92155829E+02</pdfrwt>
<pdfrwt beam="1">  1       -2 0.16912354E-01 0.92155829E+02</pdfrwt>
<totfact> 0.75495480E+04</totfact>
</mgrwt>
</event>
<event>
 5    1  0.1197825E+001  0.9063214E+02  0.7546771E-02  0.1301328E+00
          2   -1    0    0  501    0  0.00000000000E+00  0.00000000000E+00  0.64206596782E+02  0.64206596782E+02  0.00000000000E+00 0. -1.
         -2   -1    0    0    0  501 -0.00000000000E+00 -0.00000000000E+00 -0.31983411126E+02  0.31983411126E+02  0.00000000000E+00 0.  1.
         23    2    1    2    0    0  0.00000000000E+00  0.00000000000E+00  0.32223185655E+02  0.96190007908E+02  0.90632135182E+02 0.  0.
        -13    1    3    3    0    0 -0.29778082215E+02  0.28027230771E+02 -0.46123915580E+01  0.41152569798E+02  0.00000000000E+00 0.  1.
         13    1    3    3    0    0  0.29778082215E+02 -0.28027230771E+02  0.36835577213E+02  0.55037438110E+02  0.00000000000E+00 0. -1.
<mgrwt>
<rscale>  0 0.90632135E+02</rscale>
<asrwt>0</asrwt>
<pdfrwt beam="1">  1        2 0.98779379E-02 0.90632135E+02</pdfrwt>
<pdfrwt beam="2">  1       -2 0.49205248E-02 0.90632135E+02</pdfrwt>
<totfact> 0.10986079E+05</totfact>
</mgrwt>
</event>
<event>
 5    1  0.1197825E+001  0.9479456E+02  0.7546771E-02  0.1291639E+00
          2   -1    0    0  501    0  0.00000000000E+00  0.00000000000E+00  0.74382933942E+02  0.74382933942E+02  0.00000000000E+00 0. -1.
         -2   -1    0    0    0  501 -0.00000000000E+00 -0.00000000000E+00 -0.30201847853E+02  0.30201847853E+02  0.00000000000E+00 0.  1.
         23    2    1    2    0    0  0.00000000000E+00  0.00000000000E+00  0.44181086089E+02  0.10458478180E+03  0.94794557941E+02 0.  0.
        -11    1    3    3    0    0 -0.15880920738E+02  0.37290431512E+02 -0.50178414008E+01  0.40840649580E+02  0.00000000000E+00 0.  1.
         11    1    3    3    0    0  0.15880920738E+02 -0.37290431512E+02  0.49198927489E+02  0.63744132215E+02  0.00000000000E+00 0. -1.
<mgrwt>
<rscale>  0 0.94794558E+02</rscale>
<asrwt>0</asrwt>
<pdfrwt beam="1">  1        2 0.11443528E-01 0.94794558E+02</pdfrwt>
<pdfrwt beam="2">  1       -2 0.46464382E-02 0.94794558E+02</pdfrwt>
<totfact> 0.10089327E+05</totfact>
</mgrwt>
</event>
<event>
 5    1  0.1197825E+001  0.9089982E+02  0.7546771E-02  0.1300687E+00
          2   -1    0    0  501    0  0.00000000000E+00  0.00000000000E+00  0.31255746154E+02  0.31255746154E+02  0.00000000000E+00 0.  1.
         -2   -1    0    0    0  501 -0.00000000000E+00 -0.00000000000E+00 -0.66090069061E+02  0.66090069061E+02  0.00000000000E+00 0. -1.
         23    2    1    2    0    0  0.00000000000E+00  0.00000000000E+00 -0.34834322906E+02  0.97345815215E+02  0.90899822263E+02 0.  0.
        -13    1    3    3    0    0  0.12497961943E+02 -0.29086474171E+02  0.17506306387E+02  0.36175859295E+02  0.00000000000E+00 0.  1.
         13    1    3    3    0    0 -0.12497961943E+02  0.29086474171E+02 -0.52340629293E+02  0.61169955920E+02  0.00000000000E+00 0. -1.
<mgrwt>
<rscale>  0 0.90899822E+02</rscale>
<asrwt>0</asrwt>
<pdfrwt beam="1">  1        2 0.48085764E-02 0.90899822E+02</pdfrwt>
<pdfrwt beam="2">  1       -2 0.10167703E-01 0.90899822E+02</pdfrwt>
<totfact> 0.90244408E+04</totfact>
</mgrwt>
</event>
<event>
 5    1  0.1197825E+001  0.9069848E+02  0.7546771E-02  0.1301169E+00
         -1   -1    0    0    0  501 -0.00000000000E+00  0.00000000000E+00  0.50997350825E+02  0.50997350825E+02  0.00000000000E+00 0.  1.
          1   -1    0    0  501    0  0.00000000000E+00 -0.00000000000E+00 -0.40326675704E+02  0.40326675704E+02  0.00000000000E+00 0. -1.
         23    2    1    2    0    0  0.00000000000E+00  0.00000000000E+00  0.10670675121E+02  0.91324026529E+02  0.90698481321E+02 0.  0.
        -13    1    3    3    0    0  0.29405457437E+02 -0.38609615188E+01 -0.29208209895E+02  0.41625803009E+02  0.00000000000E+00 0. -1.
         13    1    3    3    0    0 -0.29405457437E+02  0.38609615188E+01  0.39878885016E+02  0.49698223520E+02  0.00000000000E+00 0.  1.
<mgrwt>
<rscale>  0 0.90698481E+02</rscale>
<asrwt>0</asrwt>
<pdfrwt beam="2">  1        1 0.62041039E-02 0.90698481E+02</pdfrwt>
<pdfrwt beam="1">  1       -1 0.78457463E-02 0.90698481E+02</pdfrwt>
<totfact> 0.92132993E+04</totfact>
</mgrwt>
</event>
<event>
 5    1  0.1197825E+001  0.9102130E+02  0.7546771E-02  0.1300397E+00
         -3   -1    0    0    0  501 -0.00000000000E+00  0.00000000000E+00  0.89874362665E+02  0.89874362665E+02  0.00000000000E+00 0.  1.
          3   -1    0    0  501    0  0.00000000000E+00 -0.00000000000E+00 -0.23045719830E+02  0.23045719830E+02  0.00000000000E+00 0. -1.
         23    2    1    2    0    0  0.00000000000E+00  0.00000000000E+00  0.66828642835E+02  0.11292008249E+03  0.91021302602E+02 0.  0.
        -11    1    3    3    0    0  0.45437147794E+01 -0.44634453337E+02  0.42889991097E+02  0.62067955540E+02  0.00000000000E+00 0.  1.
         11    1    3    3    0    0 -0.45437147794E+01  0.44634453337E+02  0.23938651738E+02  0.50852126954E+02  0.00000000000E+00 0. -1.
<mgrwt>
<rscale>  0 0.91021303E+02</rscale>
<asrwt>0</asrwt>
<pdfrwt beam="2">  1        3 0.35454954E-02 0.91021303E+02</pdfrwt>
<pdfrwt beam="1">  1       -3 0.13826825E-01 0.91021303E+02</pdfrwt>
<totfact> 0.33896548E+04</totfact>
</mgrwt>
</event>
<event>
 5    1  0.1197825E+001  0.9204079E+02  0.7546771E-02  0.1297984E+00
         -2   -1    0    0    0  501 -0.00000000000E+00  0.00000000000E+00  0.28680739301E+02  0.28680739301E+02  0.00000000000E+00 0.  1.
          2   -1    0    0  501    0  0.00000000000E+00 -0.00000000000E+00 -0.73843173591E+02  0.73843173591E+02  0.00000000000E+00 0. -1.
         23    2    1    2    0    0  0.00000000000E+00  0.00000000000E+00 -0.45162434290E+02  0.10252391289E+03  0.92040791194E+02 0.  0.
        -13    1    3    3    0    0  0.24989468330E+02 -0.23281164569E+02 -0.56938932032E+02  0.66396747903E+02  0.00000000000E+00 0. -1.
         13    1    3    3    0    0 -0.24989468330E+02  0.23281164569E+02  0.11776497742E+02  0.36127164989E+02  0.00000000000E+00 0.  1.
<mgrwt>
<rscale>  0 0.92040791E+02</rscale>
<asrwt>0</asrwt>
<pdfrwt beam="2">  1        2 0.11360488E-01 0.92040791E+02</pdfrwt>
<pdfrwt beam="1">  1       -2 0.44124215E-02 0.92040791E+02</pdfrwt>
<totfact> 0.10935901E+05</totfact>
</mgrwt>
</event>
<event>
 5    1  0.1197825E+001  0.9555599E+02  0.7546771E-02  0.1289929E+00
         -1   -1    0    0    0  501 -0.00000000000E+00  0.00000000000E+00  0.61167248506E+01  0.61167248506E+01  0.00000000000E+00 0.  1.
          1   -1    0    0  501    0  0.00000000000E+00 -0.00000000000E+00 -0.37319589636E+03  0.37319589636E+03  0.00000000000E+00 0. -1.
         23    2    1    2    0    0  0.00000000000E+00  0.00000000000E+00 -0.36707917151E+03  0.37931262121E+03  0.95555985965E+02 0.  0.
        -13    1    3    3    0    0 -0.47598756891E+02 -0.31056629859E+01 -0.19437416598E+03  0.20014145798E+03  0.00000000000E+00 0. -1.
         13    1    3    3    0    0  0.47598756891E+02  0.31056629859E+01 -0.17270500553E+03  0.17917116323E+03  0.00000000000E+00 0.  1.
<mgrwt>
<rscale>  0 0.95555986E+02</rscale>
<asrwt>0</asrwt>
<pdfrwt beam="2">  1        1 0.57414772E-01 0.95555986E+02</pdfrwt>
<pdfrwt beam="1">  1       -1 0.94103429E-03 0.95555986E+02</pdfrwt>
<totfact> 0.11765648E+05</totfact>
</mgrwt>
</event>
<event>
 5    1  0.1197825E+001  0.8789466E+02  0.7546771E-02  0.1308032E+00
         -4   -1    0    0    0  501 -0.00000000000E+00  0.00000000000E+00  0.53532493599E+02  0.53532493599E+02  0.00000000000E+00 0.  1.
          4   -1    0    0  501    0  0.00000000000E+00 -0.00000000000E+00 -0.36078422054E+02  0.36078422054E+02  0.00000000000E+00 0. -1.
         23    2    1    2    0    0  0.00000000000E+00  0.00000000000E+00  0.17454071544E+02  0.89610915653E+02  0.87894661901E+02 0.  0.
        -11    1    3    3    0    0  0.94435215758E+01 -0.36702953960E+01 -0.34871472901E+02  0.36313506996E+02  0.00000000000E+00 0. -1.
         11    1    3    3    0    0 -0.94435215758E+01  0.36702953960E+01  0.52325544445E+02  0.53297408657E+02  0.00000000000E+00 0.  1.
<mgrwt>
<rscale>  0 0.87894662E+02</rscale>
<asrwt>0</asrwt>
<pdfrwt beam="2">  1        4 0.55505264E-02 0.87894662E+02</pdfrwt>
<pdfrwt beam="1">  1       -4 0.82357683E-02 0.87894662E+02</pdfrwt>
<totfact> 0.29943258E+04</totfact>
</mgrwt>
</event>
<event>
 5    1  0.1197825E+001  0.9247664E+02  0.7546771E-02  0.1296963E+00
         -1   -1    0    0    0  501 -0.00000000000E+00  0.00000000000E+00  0.17944999812E+02  0.17944999812E+02  0.00000000000E+00 0.  1.
          1   -1    0    0  501    0  0.00000000000E+00 -0.00000000000E+00 -0.11914082934E+03  0.11914082934E+03  0.00000000000E+00 0. -1.
         23    2    1    2    0    0  0.00000000000E+00  0.00000000000E+00 -0.10119582953E+03  0.13708582915E+03  0.92476638349E+02 0.  0.
        -13    1    3    3    0    0  0.18056426618E+02  0.39939601378E+02 -0.72423504510E+02  0.84654416931E+02  0.00000000000E+00 0. -1.
         13    1    3    3    0    0 -0.18056426618E+02 -0.39939601378E+02 -0.28772325016E+02  0.52431412219E+02  0.00000000000E+00 0.  1.
<mgrwt>
<rscale>  0 0.92476638E+02</rscale>
<asrwt>0</asrwt>
<pdfrwt beam="2">  1        1 0.18329358E-01 0.92476638E+02</pdfrwt>
<pdfrwt beam="1">  1       -1 0.27607692E-02 0.92476638E+02</pdfrwt>
<totfact> 0.10354401E+05</totfact>
</mgrwt>
</event>
<event>
 5    1  0.1197825E+001  0.8373698E+02  0.7546771E-02  0.1318769E+00
          1   -1    0    0  501    0  0.00000000000E+00  0.00000000000E+00  0.10513545420E+03  0.10513545420E+03  0.00000000000E+00 0.  1.
         -1   -1    0    0    0  501 -0.00000000000E+00 -0.00000000000E+00 -0.16673448931E+02  0.16673448931E+02  0.00000000000E+00 0. -1.
         23    2    1    2    0    0  0.00000000000E+00  0.00000000000E+00  0.88462005272E+02  0.12180890313E+03  0.83736984097E+02 0.  0.
        -11    1    3    3    0    0 -0.17261223283E+02  0.19791562973E+02  0.91665319822E+02  0.95352958277E+02  0.00000000000E+00 0.  1.
         11    1    3    3    0    0  0.17261223283E+02 -0.19791562973E+02 -0.32033145499E+01  0.26455944856E+02  0.00000000000E+00 0. -1.
<mgrwt>
<rscale>  0 0.83736984E+02</rscale>
<asrwt>0</asrwt>
<pdfrwt beam="1">  1        1 0.16174685E-01 0.83736984E+02</pdfrwt>
<pdfrwt beam="2">  1       -1 0.25651461E-02 0.83736984E+02</pdfrwt>
<totfact> 0.13260577E+05</totfact>
</mgrwt>
</event>
<event>
 5    1  0.1197825E+001  0.9152195E+02  0.7546771E-02  0.1299207E+00
          1   -1    0    0  501    0  0.00000000000E+00  0.00000000000E+00  0.43673067170E+02  0.43673067170E+02  0.00000000000E+00 0. -1.
         -1   -1    0    0    0  501 -0.00000000000E+00 -0.00000000000E+00 -0.47948698381E+02  0.47948698381E+02  0.00000000000E+00 0.  1.
         23    2    1    2    0    0  0.00000000000E+00  0.00000000000E+00 -0.42756312104E+01  0.91621765551E+02  0.91521947643E+02 0.  0.
        -13    1    3    3    0    0 -0.45754441959E+01 -0.40103223669E+02 -0.23722023755E+02  0.46818133765E+02  0.00000000000E+00 0.  1.
         13    1    3    3    0    0  0.45754441959E+01  0.40103223669E+02  0.19446392545E+02  0.44803631786E+02  0.00000000000E+00 0. -1.
<mgrwt>
<rscale>  0 0.91521948E+02</rscale>
<asrwt>0</asrwt>
<pdfrwt beam="1">  1        1 0.67189334E-02 0.91521948E+02</pdfrwt>
<pdfrwt beam="2">  1       -1 0.73767228E-02 0.91521948E+02</pdfrwt>
<totfact> 0.90904386E+04</totfact>
</mgrwt>
</event>
<event>
 5    1  0.1197825E+001  0.9077728E+02  0.7546771E-02  0.1300980E+00
          1   -1    0    0  501    0  0.00000000000E+00  0.00000000000E+00  0.61945340802E+02  0.61945340802E+02  0.00000000000E+00 0. -1.
         -1   -1    0    0    0  501 -0.00000000000E+00 -0.00000000000E+00 -0.33257203729E+02  0.33257203729E+02  0.00000000000E+00 0.  1.
         23    2    1    2    0    0  0.00000000000E+00  0.00000000000E+00  0.28688137072E+02  0.95202544531E+02  0.90777283923E+02 0.  0.
        -11    1    3    3    0    0 -0.39740197840E+02  0.21625728496E+02  0.18150514613E+02  0.48748298822E+02  0.00000000000E+00 0.  1.
         11    1    3    3    0    0  0.39740197840E+02 -0.21625728496E+02  0.10537622460E+02  0.46454245709E+02  0.00000000000E+00 0. -1.
<mgrwt>
<rscale>  0 0.90777284E+02</rscale>
<asrwt>0</asrwt>
<pdfrwt beam="1">  1        1 0.95300525E-02 0.90777284E+02</pdfrwt>
<pdfrwt beam="2">  1       -1 0.51164929E-02 0.90777284E+02</pdfrwt>
<totfact> 0.98023233E+04</totfact>
</mgrwt>
</event>
<event>
 5    1  0.1197825E+001  0.9089411E+02  0.7546771E-02  0.1300701E+00
          1   -1    0    0  501    0  0.00000000000E+00  0.00000000000E+00  0.86652654618E+02  0.86652654618E+02  0.00000000000E+00 0. -1.
         -1   -1    0    0    0  501 -0.00000000000E+00 -0.00000000000E+00 -0.23835791820E+02  0.23835791820E+02  0.00000000000E+00 0.  1.
         23    2    1    2    0    0  0.00000000000E+00  0.00000000000E+00  0.62816862798E+02  0.11048844644E+03  0.90894106213E+02 0.  0.
        -13    1    3    3    0    0 -0.80684946959E+01 -0.41377281766E+02  0.10770353179E+02  0.43510694784E+02  0.00000000000E+00 0.  1.
         13    1    3    3    0    0  0.80684946959E+01  0.41377281766E+02  0.52046509619E+02  0.66977751653E+02  0.00000000000E+00 0. -1.
<mgrwt>
<rscale>  0 0.90894106E+02</rscale>
<asrwt>0</asrwt>
<pdfrwt beam="1">  1        1 0.13331177E-01 0.90894106E+02</pdfrwt>
<pdfrwt beam="2">  1       -1 0.36670449E-02 0.90894106E+02</pdfrwt>
<totfact> 0.10290513E+05</totfact>
</mgrwt>
</event>
<event>
 5    1  0.1197825E+001  0.9110943E+02  0.7546771E-02  0.1300187E+00
         -3   -1    0    0    0  501 -0.00000000000E+00  0.00000000000E+00  0.82008135471E+01  0.82008135471E+01  0.00000000000E+00 0.  1.
          3   -1    0    0  501    0  0.00000000000E+00 -0.00000000000E+00 -0.25305196790E+03  0.25305196790E+03  0.00000000000E+00 0. -1.
         23    2    1    2    0    0  0.00000000000E+00  0.00000000000E+00 -0.24485115435E+03  0.26125278145E+03  0.91109428853E+02 0.  0.
        -11    1    3    3    0    0 -0.22006969473E+02 -0.26453547407E+02 -0.36826441157E+02  0.50401226613E+02  0.00000000000E+00 0.  1.
         11    1    3    3    0    0  0.22006969473E+02  0.26453547407E+02 -0.20802471320E+03  0.21085155483E+03  0.00000000000E+00 0. -1.
<mgrwt>
<rscale>  0 0.91109429E+02</rscale>
<asrwt>0</asrwt>
<pdfrwt beam="2">  1        3 0.38931070E-01 0.91109429E+02</pdfrwt>
<pdfrwt beam="1">  1       -3 0.12616637E-02 0.91109429E+02</pdfrwt>
<totfact> 0.25663095E+04</totfact>
</mgrwt>
</event>
<event>
 5    1  0.1197825E+001  0.9008817E+02  0.7546771E-02  0.1302638E+00
          2   -1    0    0  501    0  0.00000000000E+00  0.00000000000E+00  0.70340855078E+02  0.70340855078E+02  0.00000000000E+00 0. -1.
         -2   -1    0    0    0  501 -0.00000000000E+00 -0.00000000000E+00 -0.28844822060E+02  0.28844822060E+02  0.00000000000E+00 0.  1.
         23    2    1    2    0    0  0.00000000000E+00  0.00000000000E+00  0.41496033018E+02  0.99185677138E+02  0.90088166776E+02 0.  0.
        -13    1    3    3    0    0 -0.32486270524E+02 -0.13862750539E+02  0.51525128968E+02  0.62468972620E+02  0.00000000000E+00 0. -1.
         13    1    3    3    0    0  0.32486270524E+02  0.13862750539E+02 -0.10029095950E+02  0.36716704518E+02  0.00000000000E+00 0.  1.
<mgrwt>
<rscale>  0 0.90088167E+02</rscale>
<asrwt>0</asrwt>
<pdfrwt beam="1">  1        2 0.10821670E-01 0.90088167E+02</pdfrwt>
<pdfrwt beam="2">  1       -2 0.44376649E-02 0.90088167E+02</pdfrwt>
<totfact> 0.11454668E+05</totfact>
</mgrwt>
</event>
<event>
 5    1  0.1197825E+001  0.9206966E+02  0.7546771E-02  0.1297916E+00
          1   -1    0    0  501    0  0.00000000000E+00  0.00000000000E+00  0.12030625993E+03  0.12030625993E+03  0.00000000000E+00 0. -1.
         -1   -1    0    0    0  501 -0.00000000000E+00 -0.00000000000E+00 -0.17615089691E+02  0.17615089691E+02  0.00000000000E+00 0.  1.
         23    2    1    2    0    0  0.00000000000E+00  0.00000000000E+00  0.10269117024E+03  0.13792134962E+03  0.92069659694E+02 0.  0.
        -11    1    3    3    0    0  0.16353621691E+02  0.16828132715E+02 -0.79835610759E+01  0.24786372073E+02  0.00000000000E+00 0.  1.
         11    1    3    3    0    0 -0.16353621691E+02 -0.16828132715E+02  0.11067473132E+03  0.11313497755E+03  0.00000000000E+00 0. -1.
<mgrwt>
<rscale>  0 0.92069660E+02</rscale>
<asrwt>0</asrwt>
<pdfrwt beam="1">  1        1 0.18508655E-01 0.92069660E+02</pdfrwt>
<pdfrwt beam="2">  1       -1 0.27100139E-02 0.92069660E+02</pdfrwt>
<totfact> 0.10497119E+05</totfact>
</mgrwt>
</event>
<event>
 5    1  0.1197825E+001  0.9577365E+02  0.7546771E-02  0.1289443E+00
          1   -1    0    0  501    0  0.00000000000E+00  0.00000000000E+00  0.16586475037E+03  0.16586475037E+03  0.00000000000E+00 0. -1.
         -1   -1    0    0    0  501 -0.00000000000E+00 -0.00000000000E+00 -0.13825409171E+02  0.13825409171E+02  0.00000000000E+00 0.  1.
         23    2    1    2    0    0  0.00000000000E+00  0.00000000000E+00  0.15203934120E+03  0.17969015954E+03  0.95773650675E+02 0.  0.
        -11    1    3    3    0    0 -0.37704345387E+02  0.20854427597E+02  0.11522378709E+03  0.12301644574E+03  0.00000000000E+00 0.  1.
         11    1    3    3    0    0  0.37704345387E+02 -0.20854427597E+02  0.36815554108E+02  0.56673713798E+02  0.00000000000E+00 0. -1.
<mgrwt>
<rscale>  0 0.95773651E+02</rscale>
<asrwt>0</asrwt>
<pdfrwt beam="1">  1        1 0.25517652E-01 0.95773651E+02</pdfrwt>
<pdfrwt beam="2">  1       -1 0.21269861E-02 0.95773651E+02</pdfrwt>
<totfact> 0.10003110E+05</totfact>
</mgrwt>
</event>
<event>
 5    1  0.1197825E+001  0.9117637E+02  0.7546771E-02  0.1300028E+00
         -1   -1    0    0    0  501 -0.00000000000E+00  0.00000000000E+00  0.68385352765E+02  0.68385352765E+02  0.00000000000E+00 0.  1.
          1   -1    0    0  501    0  0.00000000000E+00 -0.00000000000E+00 -0.30390753946E+02  0.30390753946E+02  0.00000000000E+00 0. -1.
         23    2    1    2    0    0  0.00000000000E+00  0.00000000000E+00  0.37994598819E+02  0.98776106710E+02  0.91176366003E+02 0.  0.
        -11    1    3    3    0    0 -0.20069070365E+02  0.27576787421E+02  0.51768219163E+02  0.61993510185E+02  0.00000000000E+00 0.  1.
         11    1    3    3    0    0  0.20069070365E+02 -0.27576787421E+02 -0.13773620344E+02  0.36782596525E+02  0.00000000000E+00 0. -1.
<mgrwt>
<rscale>  0 0.91176366E+02</rscale>
<asrwt>0</asrwt>
<pdfrwt beam="2">  1        1 0.46755006E-02 0.91176366E+02</pdfrwt>
<pdfrwt beam="1">  1       -1 0.10520823E-01 0.91176366E+02</pdfrwt>
<totfact> 0.86866646E+04</totfact>
</mgrwt>
</event>
<event>
 5    1  0.1197825E+001  0.8885674E+02  0.7546771E-02  0.1305644E+00
          2   -1    0    0  501    0  0.00000000000E+00  0.00000000000E+00  0.38676106185E+02  0.38676106185E+02  0.00000000000E+00 0. -1.
         -2   -1    0    0    0  501 -0.00000000000E+00 -0.00000000000E+00 -0.51036162775E+02  0.51036162775E+02  0.00000000000E+00 0.  1.
         23    2    1    2    0    0  0.00000000000E+00  0.00000000000E+00 -0.12360056590E+02  0.89712268959E+02  0.88856739772E+02 0.  0.
        -11    1    3    3    0    0  0.37897930708E+02  0.11986769032E+02  0.13859101512E+02  0.42095254822E+02  0.00000000000E+00 0. -1.
         11    1    3    3    0    0 -0.37897930708E+02 -0.11986769032E+02 -0.26219158102E+02  0.47617014138E+02  0.00000000000E+00 0.  1.
<mgrwt>
<rscale>  0 0.88856740E+02</rscale>
<asrwt>0</asrwt>
<pdfrwt beam="1">  1        2 0.59501702E-02 0.88856740E+02</pdfrwt>
<pdfrwt beam="2">  1       -2 0.78517173E-02 0.88856740E+02</pdfrwt>
<totfact> 0.10188282E+05</totfact>
</mgrwt>
</event>
<event>
 5    1  0.1197825E+001  0.9166280E+02  0.7546771E-02  0.1298874E+00
          1   -1    0    0  501    0  0.00000000000E+00  0.00000000000E+00  0.20890092012E+03  0.20890092012E+03  0.00000000000E+00 0. -1.
         -1   -1    0    0    0  501 -0.00000000000E+00 -0.00000000000E+00 -0.10055088759E+02  0.10055088759E+02  0.00000000000E+00 0.  1.
         23    2    1    2    0    0  0.00000000000E+00  0.00000000000E+00  0.19884583136E+03  0.21895600888E+03  0.91662801477E+02 0.  0.
        -11    1    3    3    0    0  0.43945993633E+02 -0.12901117611E+02  0.95405828552E+02  0.10582986967E+03  0.00000000000E+00 0.  1.
         11    1    3    3    0    0 -0.43945993633E+02  0.12901117611E+02  0.10344000281E+03  0.11312613921E+03  0.00000000000E+00 0. -1.
<mgrwt>
<rscale>  0 0.91662801E+02</rscale>
<asrwt>0</asrwt>
<pdfrwt beam="1">  1        1 0.32138600E-01 0.91662801E+02</pdfrwt>
<pdfrwt beam="2">  1       -1 0.15469369E-02 0.91662801E+02</pdfrwt>
<totfact> 0.11772135E+05</totfact>
</mgrwt>
</event>
<event>
 5    1  0.1197825E+001  0.9155603E+02  0.7546771E-02  0.1299127E+00
         -2   -1    0    0    0  501 -0.00000000000E+00  0.00000000000E+00  0.21118489428E+02  0.21118489428E+02  0.00000000000E+00 0. -1.
          2   -1    0    0  501    0  0.00000000000E+00 -0.00000000000E+00 -0.99231837872E+02  0.99231837872E+02  0.00000000000E+00 0.  1.
         23    2    1    2    0    0  0.00000000000E+00  0.00000000000E+00 -0.78113348444E+02  0.12035032730E+03  0.91556026978E+02 0.  0.
        -13    1    3    3    0    0 -0.40885107609E+01 -0.33463427996E+02 -0.79766050923E+02  0.86597573946E+02  0.00000000000E+00 0.  1.
         13    1    3    3    0    0  0.40885107609E+01  0.33463427996E+02  0.16527024787E+01  0.33752753354E+02  0.00000000000E+00 0. -1.
<mgrwt>
<rscale>  0 0.91556027E+02</rscale>
<asrwt>0</asrwt>
<pdfrwt beam="2">  1        2 0.15266437E-01 0.91556027E+02</pdfrwt>
<pdfrwt beam="1">  1       -2 0.32489983E-02 0.91556027E+02</pdfrwt>
<totfact> 0.12099624E+05</totfact>
</mgrwt>
</event>
<event>
 5    1  0.1197825E+001  0.9092826E+02  0.7546771E-02  0.1300619E+00
         -1   -1    0    0    0  501 -0.00000000000E+00  0.00000000000E+00  0.62098084260E+02  0.62098084260E+02  0.00000000000E+00 0.  1.
          1   -1    0    0  501    0  0.00000000000E+00 -0.00000000000E+00 -0.33285844002E+02  0.33285844002E+02  0.00000000000E+00 0. -1.
         23    2    1    2    0    0  0.00000000000E+00  0.00000000000E+00  0.28812240258E+02  0.95383928263E+02  0.90928260635E+02 0.  0.
        -13    1    3    3    0    0  0.92562858463E+01  0.34422552550E+02  0.44009473455E+02  0.56634130217E+02  0.00000000000E+00 0.  1.
         13    1    3    3    0    0 -0.92562858463E+01 -0.34422552550E+02 -0.15197233196E+02  0.38749798045E+02  0.00000000000E+00 0. -1.
<mgrwt>
<rscale>  0 0.90928261E+02</rscale>
<asrwt>0</asrwt>
<pdfrwt beam="2">  1        1 0.51208991E-02 0.90928261E+02</pdfrwt>
<pdfrwt beam="1">  1       -1 0.95535514E-02 0.90928261E+02</pdfrwt>
<totfact> 0.88818943E+04</totfact>
</mgrwt>
</event>
<event>
 5    1  0.1197825E+001  0.9202581E+02  0.7546771E-02  0.1298019E+00
         -1   -1    0    0    0  501 -0.00000000000E+00  0.00000000000E+00  0.87594933833E+02  0.87594933833E+02  0.00000000000E+00 0.  1.
          1   -1    0    0  501    0  0.00000000000E+00 -0.00000000000E+00 -0.24170204129E+02  0.24170204129E+02  0.00000000000E+00 0. -1.
         23    2    1    2    0    0  0.00000000000E+00  0.00000000000E+00  0.63424729704E+02  0.11176513796E+03  0.92025810107E+02 0.  0.
        -11    1    3    3    0    0 -0.33350388143E+02 -0.14704614791E+02  0.65820368766E+02  0.75238255096E+02  0.00000000000E+00 0.  1.
         11    1    3    3    0    0  0.33350388143E+02  0.14704614791E+02 -0.23956390625E+01  0.36526882866E+02  0.00000000000E+00 0. -1.
<mgrwt>
<rscale>  0 0.92025810E+02</rscale>
<asrwt>0</asrwt>
<pdfrwt beam="2">  1        1 0.37184930E-02 0.92025810E+02</pdfrwt>
<pdfrwt beam="1">  1       -1 0.13476143E-01 0.92025810E+02</pdfrwt>
<totfact> 0.81378093E+04</totfact>
</mgrwt>
</event>
<event>
 5    1  0.1197825E+001  0.9112569E+02  0.7546771E-02  0.1300148E+00
         -1   -1    0    0    0  501 -0.00000000000E+00  0.00000000000E+00  0.34543342692E+02  0.34543342692E+02  0.00000000000E+00 0.  1.
          1   -1    0    0  501    0  0.00000000000E+00 -0.00000000000E+00 -0.60097622932E+02  0.60097622932E+02  0.00000000000E+00 0. -1.
         23    2    1    2    0    0  0.00000000000E+00  0.00000000000E+00 -0.25554280240E+02  0.94640965624E+02  0.91125688671E+02 0.  0.
        -11    1    3    3    0    0 -0.28929981980E+02 -0.32046205470E+02  0.23472402265E+01  0.43236705229E+02  0.00000000000E+00 0.  1.
         11    1    3    3    0    0  0.28929981980E+02  0.32046205470E+02 -0.27901520467E+02  0.51404260395E+02  0.00000000000E+00 0. -1.
<mgrwt>
<rscale>  0 0.91125689E+02</rscale>
<asrwt>0</asrwt>
<pdfrwt beam="2">  1        1 0.92457880E-02 0.91125689E+02</pdfrwt>
<pdfrwt beam="1">  1       -1 0.53143605E-02 0.91125689E+02</pdfrwt>
<totfact> 0.96545278E+04</totfact>
</mgrwt>
</event>
<event>
 5    1  0.1197825E+001  0.1052027E+03  0.7546771E-02  0.1269721E+00
          1   -1    0    0  501    0  0.00000000000E+00  0.00000000000E+00  0.38015531597E+02  0.38015531597E+02  0.00000000000E+00 0. -1.
         -1   -1    0    0    0  501 -0.00000000000E+00 -0.00000000000E+00 -0.72783455329E+02  0.72783455329E+02  0.00000000000E+00 0.  1.
         23    2    1    2    0    0  0.00000000000E+00  0.00000000000E+00 -0.34767923733E+02  0.11079898693E+03  0.10520269475E+03 0.  0.
        -11    1    3    3    0    0 -0.11612248825E+02 -0.25672448154E+02 -0.64165077854E+02  0.70079070577E+02  0.00000000000E+00 0.  1.
         11    1    3    3    0    0  0.11612248825E+02  0.25672448154E+02  0.29397154121E+02  0.40719916348E+02  0.00000000000E+00 0. -1.
<mgrwt>
<rscale>  0 0.10520269E+03</rscale>
<asrwt>0</asrwt>
<pdfrwt beam="1">  1        1 0.58485434E-02 0.10520269E+03</pdfrwt>
<pdfrwt beam="2">  1       -1 0.11197455E-01 0.10520269E+03</pdfrwt>
<totfact> 0.59655751E+04</totfact>
</mgrwt>
</event>
<event>
 5    1  0.1197825E+001  0.8763447E+02  0.7546771E-02  0.1308683E+00
          1   -1    0    0  501    0  0.00000000000E+00  0.00000000000E+00  0.12052408754E+02  0.12052408754E+02  0.00000000000E+00 0. -1.
         -1   -1    0    0    0  501 -0.00000000000E+00 -0.00000000000E+00 -0.15930012503E+03  0.15930012503E+03  0.00000000000E+00 0.  1.
         23    2    1    2    0    0  0.00000000000E+00  0.00000000000E+00 -0.14724771628E+03  0.17135253379E+03  0.87634473159E+02 0.  0.
        -13    1    3    3    0    0  0.20097232556E+00 -0.27052557235E+02 -0.14102020841E+03  0.14359171433E+03  0.00000000000E+00 0.  1.
         13    1    3    3    0    0 -0.20097232556E+00  0.27052557235E+02 -0.62275078667E+01  0.27760819460E+02  0.00000000000E+00 0. -1.
<mgrwt>
<rscale>  0 0.87634473E+02</rscale>
<asrwt>0</asrwt>
<pdfrwt beam="1">  1        1 0.18542168E-02 0.87634473E+02</pdfrwt>
<pdfrwt beam="2">  1       -1 0.24507711E-01 0.87634473E+02</pdfrwt>
<totfact> 0.81699671E+04</totfact>
</mgrwt>
</event>
<event>
 5    1  0.1197825E+001  0.8836534E+02  0.7546771E-02  0.1306859E+00
         -2   -1    0    0    0  501 -0.00000000000E+00  0.00000000000E+00  0.10496751960E+02  0.10496751960E+02  0.00000000000E+00 0.  1.
          2   -1    0    0  501    0  0.00000000000E+00 -0.00000000000E+00 -0.18597258749E+03  0.18597258749E+03  0.00000000000E+00 0. -1.
         23    2    1    2    0    0  0.00000000000E+00  0.00000000000E+00 -0.17547583553E+03  0.19646933945E+03  0.88365335338E+02 0.  0.
        -13    1    3    3    0    0  0.37229380355E+02 -0.19278469371E+02 -0.56736215908E+02  0.70545618847E+02  0.00000000000E+00 0.  1.
         13    1    3    3    0    0 -0.37229380355E+02  0.19278469371E+02 -0.11873961963E+03  0.12592372061E+03  0.00000000000E+00 0. -1.
<mgrwt>
<rscale>  0 0.88365335E+02</rscale>
<asrwt>0</asrwt>
<pdfrwt beam="2">  1        2 0.28611168E-01 0.88365335E+02</pdfrwt>
<pdfrwt beam="1">  1       -2 0.16148849E-02 0.88365335E+02</pdfrwt>
<totfact> 0.16393686E+05</totfact>
</mgrwt>
</event>
<event>
 5    1  0.1197825E+001  0.8997015E+02  0.7546771E-02  0.1302924E+00
          1   -1    0    0  501    0  0.00000000000E+00  0.00000000000E+00  0.92335080758E+02  0.92335080758E+02  0.00000000000E+00 0. -1.
         -1   -1    0    0    0  501 -0.00000000000E+00 -0.00000000000E+00 -0.21916447435E+02  0.21916447435E+02  0.00000000000E+00 0.  1.
         23    2    1    2    0    0  0.00000000000E+00  0.00000000000E+00  0.70418633322E+02  0.11425152819E+03  0.89970149357E+02 0.  0.
        -13    1    3    3    0    0  0.21586708495E+02  0.97609471599E+01  0.83771242779E+02  0.87056781413E+02  0.00000000000E+00 0. -1.
         13    1    3    3    0    0 -0.21586708495E+02 -0.97609471599E+01 -0.13352609457E+02  0.27194746780E+02  0.00000000000E+00 0.  1.
<mgrwt>
<rscale>  0 0.89970149E+02</rscale>
<asrwt>0</asrwt>
<pdfrwt beam="1">  1        1 0.14205397E-01 0.89970149E+02</pdfrwt>
<pdfrwt beam="2">  1       -1 0.33717612E-02 0.89970149E+02</pdfrwt>
<totfact> 0.10690473E+05</totfact>
</mgrwt>
</event>
<event>
 5    1  0.1197825E+001  0.9152191E+02  0.7546771E-02  0.1299207E+00
          1   -1    0    0  501    0  0.00000000000E+00  0.00000000000E+00  0.16834558402E+03  0.16834558402E+03  0.00000000000E+00 0. -1.
         -1   -1    0    0    0  501 -0.00000000000E+00 -0.00000000000E+00 -0.12439085246E+02  0.12439085246E+02  0.00000000000E+00 0.  1.
         23    2    1    2    0    0  0.00000000000E+00  0.00000000000E+00  0.15590649878E+03  0.18078466927E+03  0.91521911486E+02 0.  0.
        -13    1    3    3    0    0 -0.21974336401E+02 -0.22501080833E+02  0.14361266538E+03  0.14701621597E+03  0.00000000000E+00 0. -1.
         13    1    3    3    0    0  0.21974336401E+02  0.22501080833E+02  0.12293833394E+02  0.33768453302E+02  0.00000000000E+00 0.  1.
<mgrwt>
<rscale>  0 0.91521911E+02</rscale>
<asrwt>0</asrwt>
<pdfrwt beam="1">  1        1 0.25899319E-01 0.91521911E+02</pdfrwt>
<pdfrwt beam="2">  1       -1 0.19137055E-02 0.91521911E+02</pdfrwt>
<totfact> 0.11340475E+05</totfact>
</mgrwt>
</event>
<event>
 5    1  0.1197825E+001  0.9219052E+02  0.7546771E-02  0.1297632E+00
          1   -1    0    0  501    0  0.00000000000E+00  0.00000000000E+00  0.22630621151E+03  0.22630621151E+03  0.00000000000E+00 0. -1.
         -1   -1    0    0    0  501 -0.00000000000E+00 -0.00000000000E+00 -0.93889291353E+01  0.93889291353E+01  0.00000000000E+00 0.  1.
         23    2    1    2    0    0  0.00000000000E+00  0.00000000000E+00  0.21691728237E+03  0.23569514064E+03  0.92190519745E+02 0.  0.
        -13    1    3    3    0    0 -0.23811191076E+02  0.25657795259E+02  0.18513466203E+03  0.18841480399E+03  0.00000000000E+00 0. -1.
         13    1    3    3    0    0  0.23811191076E+02 -0.25657795259E+02  0.31782620340E+02  0.47280336650E+02  0.00000000000E+00 0.  1.
<mgrwt>
<rscale>  0 0.92190520E+02</rscale>
<asrwt>0</asrwt>
<pdfrwt beam="1">  1        1 0.34816336E-01 0.92190520E+02</pdfrwt>
<pdfrwt beam="2">  1       -1 0.14444508E-02 0.92190520E+02</pdfrwt>
<totfact> 0.11774998E+05</totfact>
</mgrwt>
</event>
<event>
 5    1  0.1197825E+001  0.9038568E+02  0.7546771E-02  0.1301920E+00
         -2   -1    0    0    0  501 -0.00000000000E+00  0.00000000000E+00  0.51814451357E+01  0.51814451357E+01  0.00000000000E+00 0.  1.
          2   -1    0    0  501    0  0.00000000000E+00 -0.00000000000E+00 -0.39417432357E+03  0.39417432357E+03  0.00000000000E+00 0. -1.
         23    2    1    2    0    0  0.00000000000E+00  0.00000000000E+00 -0.38899287843E+03  0.39935576870E+03  0.90385676553E+02 0.  0.
        -11    1    3    3    0    0 -0.25057358882E+02  0.34745194583E+02 -0.13088246756E+03  0.13771463283E+03  0.00000000000E+00 0. -1.
         11    1    3    3    0    0  0.25057358882E+02 -0.34745194583E+02 -0.25811041087E+03  0.26164113587E+03  0.00000000000E+00 0.  1.
<mgrwt>
<rscale>  0 0.90385677E+02</rscale>
<asrwt>0</asrwt>
<pdfrwt beam="2">  1        2 0.60642204E-01 0.90385677E+02</pdfrwt>
<pdfrwt beam="1">  1       -2 0.79714540E-03 0.90385677E+02</pdfrwt>
<totfact> 0.20322381E+05</totfact>
</mgrwt>
</event>
<event>
 5    1  0.1197825E+001  0.9141629E+02  0.7546771E-02  0.1299458E+00
         -1   -1    0    0    0  501 -0.00000000000E+00  0.00000000000E+00  0.20969650414E+02  0.20969650414E+02  0.00000000000E+00 0. -1.
          1   -1    0    0  501    0  0.00000000000E+00 -0.00000000000E+00 -0.99631355219E+02  0.99631355219E+02  0.00000000000E+00 0.  1.
         23    2    1    2    0    0  0.00000000000E+00  0.00000000000E+00 -0.78661704806E+02  0.12060100563E+03  0.91416293716E+02 0.  0.
        -13    1    3    3    0    0  0.45474138969E+02  0.12218986957E+01 -0.45207716191E+02  0.64133672549E+02  0.00000000000E+00 0. -1.
         13    1    3    3    0    0 -0.45474138969E+02 -0.12218986957E+01 -0.33453988614E+02  0.56467333084E+02  0.00000000000E+00 0.  1.
<mgrwt>
<rscale>  0 0.91416294E+02</rscale>
<asrwt>0</asrwt>
<pdfrwt beam="2">  1        1 0.15327901E-01 0.91416294E+02</pdfrwt>
<pdfrwt beam="1">  1       -1 0.32260999E-02 0.91416294E+02</pdfrwt>
<totfact> 0.10364302E+05</totfact>
</mgrwt>
</event>
<event>
 5    1  0.1197825E+001  0.9064019E+02  0.7546771E-02  0.1301309E+00
         -1   -1    0    0    0  501 -0.00000000000E+00  0.00000000000E+00  0.97626152877E+01  0.97626152877E+01  0.00000000000E+00 0.  1.
          1   -1    0    0  501    0  0.00000000000E+00 -0.00000000000E+00 -0.21038532142E+03  0.21038532142E+03  0.00000000000E+00 0. -1.
         23    2    1    2    0    0  0.00000000000E+00  0.00000000000E+00 -0.20062270613E+03  0.22014793671E+03  0.90640188773E+02 0.  0.
        -13    1    3    3    0    0 -0.27808795736E+02 -0.17583737838E+02 -0.24612111880E+02  0.41088599488E+02  0.00000000000E+00 0.  1.
         13    1    3    3    0    0  0.27808795736E+02  0.17583737838E+02 -0.17601059425E+03  0.17905933722E+03  0.00000000000E+00 0. -1.
<mgrwt>
<rscale>  0 0.90640189E+02</rscale>
<asrwt>0</asrwt>
<pdfrwt beam="2">  1        1 0.32366974E-01 0.90640189E+02</pdfrwt>
<pdfrwt beam="1">  1       -1 0.15019408E-02 0.90640189E+02</pdfrwt>
<totfact> 0.12148194E+05</totfact>
</mgrwt>
</event>
<event>
 5    1  0.1197825E+001  0.9550775E+02  0.7546771E-02  0.1290037E+00
         -2   -1    0    0    0  501 -0.00000000000E+00  0.00000000000E+00  0.17952594900E+02  0.17952594900E+02  0.00000000000E+00 0.  1.
          2   -1    0    0  501    0  0.00000000000E+00 -0.00000000000E+00 -0.12702522402E+03  0.12702522402E+03  0.00000000000E+00 0. -1.
         23    2    1    2    0    0  0.00000000000E+00  0.00000000000E+00 -0.10907262912E+03  0.14497781892E+03  0.95507746050E+02 0.  0.
        -13    1    3    3    0    0  0.40777777241E+02  0.61838249483E+01 -0.17998773918E+02  0.45000251891E+02  0.00000000000E+00 0.  1.
         13    1    3    3    0    0 -0.40777777241E+02 -0.61838249483E+01 -0.91073855199E+02  0.99977567026E+02  0.00000000000E+00 0. -1.
<mgrwt>
<rscale>  0 0.95507746E+02</rscale>
<asrwt>0</asrwt>
<pdfrwt beam="2">  1        2 0.19542341E-01 0.95507746E+02</pdfrwt>
<pdfrwt beam="1">  1       -2 0.27619378E-02 0.95507746E+02</pdfrwt>
<totfact> 0.11648464E+05</totfact>
</mgrwt>
</event>
<event>
 5    1  0.1197825E+001  0.8957481E+02  0.7546771E-02  0.1303885E+00
          1   -1    0    0  501    0  0.00000000000E+00  0.00000000000E+00  0.27018474744E+02  0.27018474744E+02  0.00000000000E+00 0. -1.
         -1   -1    0    0    0  501 -0.00000000000E+00 -0.00000000000E+00 -0.74242221570E+02  0.74242221570E+02  0.00000000000E+00 0.  1.
         23    2    1    2    0    0  0.00000000000E+00  0.00000000000E+00 -0.47223746825E+02  0.10126069631E+03  0.89574808701E+02 0.  0.
        -11    1    3    3    0    0 -0.13133410704E+02  0.36774651720E+02  0.11823309182E+01  0.39067369917E+02  0.00000000000E+00 0. -1.
         11    1    3    3    0    0  0.13133410704E+02 -0.36774651720E+02 -0.48406077743E+02  0.62193326397E+02  0.00000000000E+00 0.  1.
<mgrwt>
<rscale>  0 0.89574809E+02</rscale>
<asrwt>0</asrwt>
<pdfrwt beam="1">  1        1 0.41566884E-02 0.89574809E+02</pdfrwt>
<pdfrwt beam="2">  1       -1 0.11421880E-01 0.89574809E+02</pdfrwt>
<totfact> 0.89677993E+04</totfact>
</mgrwt>
</event>
<event>
 5    1  0.1197825E+001  0.9140532E+02  0.7546771E-02  0.1299484E+00
         -3   -1    0    0    0  501 -0.00000000000E+00  0.00000000000E+00  0.11576355726E+03  0.11576355726E+03  0.00000000000E+00 0.  1.
          3   -1    0    0  501    0  0.00000000000E+00 -0.00000000000E+00 -0.18043098243E+02  0.18043098243E+02  0.00000000000E+00 0. -1.
         23    2    1    2    0    0  0.00000000000E+00  0.00000000000E+00  0.97720459021E+02  0.13380665551E+03  0.91405322311E+02 0.  0.
        -11    1    3    3    0    0  0.83175247379E+01  0.29350463257E+02 -0.95701453447E+00  0.30521251415E+02  0.00000000000E+00 0. -1.
         11    1    3    3    0    0 -0.83175247379E+01 -0.29350463257E+02  0.98677473556E+02  0.10328540409E+03  0.00000000000E+00 0.  1.
<mgrwt>
<rscale>  0 0.91405322E+02</rscale>
<asrwt>0</asrwt>
<pdfrwt beam="2">  1        3 0.27758613E-02 0.91405322E+02</pdfrwt>
<pdfrwt beam="1">  1       -3 0.17809778E-01 0.91405322E+02</pdfrwt>
<totfact> 0.32109686E+04</totfact>
</mgrwt>
</event>
<event>
 5    1  0.1197825E+001  0.9685486E+02  0.7546771E-02  0.1287052E+00
          2   -1    0    0  501    0  0.00000000000E+00  0.00000000000E+00  0.12820612535E+03  0.12820612535E+03  0.00000000000E+00 0. -1.
         -2   -1    0    0    0  501 -0.00000000000E+00 -0.00000000000E+00 -0.18292540638E+02  0.18292540638E+02  0.00000000000E+00 0.  1.
         23    2    1    2    0    0  0.00000000000E+00  0.00000000000E+00  0.10991358471E+03  0.14649866599E+03  0.96854855490E+02 0.  0.
        -13    1    3    3    0    0  0.40443547418E+02 -0.24478587364E+02  0.39068876309E+02  0.61329102905E+02  0.00000000000E+00 0.  1.
         13    1    3    3    0    0 -0.40443547418E+02  0.24478587364E+02  0.70844708405E+02  0.85169563085E+02  0.00000000000E+00 0. -1.
<mgrwt>
<rscale>  0 0.96854855E+02</rscale>
<asrwt>0</asrwt>
<pdfrwt beam="1">  1        2 0.19724019E-01 0.96854855E+02</pdfrwt>
<pdfrwt beam="2">  1       -2 0.28142371E-02 0.96854855E+02</pdfrwt>
<totfact> 0.11242798E+05</totfact>
</mgrwt>
</event>
<event>
 5    1  0.1197825E+001  0.9080570E+02  0.7546771E-02  0.1300912E+00
          2   -1    0    0  501    0  0.00000000000E+00  0.00000000000E+00  0.86889310175E+02  0.86889310175E+02  0.00000000000E+00 0. -1.
         -2   -1    0    0    0  501 -0.00000000000E+00 -0.00000000000E+00 -0.23724652778E+02  0.23724652778E+02  0.00000000000E+00 0.  1.
         23    2    1    2    0    0  0.00000000000E+00  0.00000000000E+00  0.63164657397E+02  0.11061396295E+03  0.90805698368E+02 0.  0.
        -11    1    3    3    0    0  0.17062084863E+02  0.41907363123E+02  0.27011970783E+02  0.52697138341E+02  0.00000000000E+00 0.  1.
         11    1    3    3    0    0 -0.17062084863E+02 -0.41907363123E+02  0.36152686614E+02  0.57916824612E+02  0.00000000000E+00 0. -1.
<mgrwt>
<rscale>  0 0.90805698E+02</rscale>
<asrwt>0</asrwt>
<pdfrwt beam="1">  1        2 0.13367586E-01 0.90805698E+02</pdfrwt>
<pdfrwt beam="2">  1       -2 0.36499466E-02 0.90805698E+02</pdfrwt>
<totfact> 0.11896984E+05</totfact>
</mgrwt>
</event>
<event>
 5    1  0.1197825E+001  0.9088043E+02  0.7546771E-02  0.1300734E+00
          1   -1    0    0  501    0  0.00000000000E+00  0.00000000000E+00  0.53920130215E+02  0.53920130215E+02  0.00000000000E+00 0. -1.
         -1   -1    0    0    0  501 -0.00000000000E+00 -0.00000000000E+00 -0.38293916295E+02  0.38293916295E+02  0.00000000000E+00 0.  1.
         23    2    1    2    0    0  0.00000000000E+00  0.00000000000E+00  0.15626213920E+02  0.92214046511E+02  0.90880425903E+02 0.  0.
        -13    1    3    3    0    0  0.21699972194E+02 -0.25086559245E+02 -0.23700478110E+02  0.40766860446E+02  0.00000000000E+00 0.  1.
         13    1    3    3    0    0 -0.21699972194E+02  0.25086559245E+02  0.39326692030E+02  0.51447186065E+02  0.00000000000E+00 0. -1.
<mgrwt>
<rscale>  0 0.90880426E+02</rscale>
<asrwt>0</asrwt>
<pdfrwt beam="1">  1        1 0.82954047E-02 0.90880426E+02</pdfrwt>
<pdfrwt beam="2">  1       -1 0.58913717E-02 0.90880426E+02</pdfrwt>
<totfact> 0.95696167E+04</totfact>
</mgrwt>
</event>
<event>
 5    1  0.1197825E+001  0.1016694E+03  0.7546771E-02  0.1276824E+00
          1   -1    0    0  501    0  0.00000000000E+00  0.00000000000E+00  0.64536062263E+02  0.64536062263E+02  0.00000000000E+00 0. -1.
         -1   -1    0    0    0  501 -0.00000000000E+00 -0.00000000000E+00 -0.40042214931E+02  0.40042214931E+02  0.00000000000E+00 0.  1.
         23    2    1    2    0    0  0.00000000000E+00  0.00000000000E+00  0.24493847332E+02  0.10457827719E+03  0.10166940299E+03 0.  0.
        -11    1    3    3    0    0  0.23221056869E+02  0.17742504847E+02 -0.30538265275E+02  0.42268186693E+02  0.00000000000E+00 0.  1.
         11    1    3    3    0    0 -0.23221056869E+02 -0.17742504847E+02  0.55032112606E+02  0.62310090501E+02  0.00000000000E+00 0. -1.
<mgrwt>
<rscale>  0 0.10166940E+03</rscale>
<asrwt>0</asrwt>
<pdfrwt beam="1">  1        1 0.99286250E-02 0.10166940E+03</pdfrwt>
<pdfrwt beam="2">  1       -1 0.61603408E-02 0.10166940E+03</pdfrwt>
<totfact> 0.71904474E+04</totfact>
</mgrwt>
</event>
<event>
 5    1  0.1197825E+001  0.9210161E+02  0.7546771E-02  0.1297841E+00
         -1   -1    0    0    0  501 -0.00000000000E+00  0.00000000000E+00  0.42872134685E+02  0.42872134685E+02  0.00000000000E+00 0.  1.
          1   -1    0    0  501    0  0.00000000000E+00 -0.00000000000E+00 -0.49465149421E+02  0.49465149421E+02  0.00000000000E+00 0. -1.
         23    2    1    2    0    0  0.00000000000E+00  0.00000000000E+00 -0.65930147354E+01  0.92337284106E+02  0.92101607981E+02 0.  0.
        -11    1    3    3    0    0  0.13956333273E+02 -0.18219235558E+01  0.40662902891E+02  0.43029877009E+02  0.00000000000E+00 0.  1.
         11    1    3    3    0    0 -0.13956333273E+02  0.18219235558E+01 -0.47255917627E+02  0.49307407097E+02  0.00000000000E+00 0. -1.
<mgrwt>
<rscale>  0 0.92101608E+02</rscale>
<asrwt>0</asrwt>
<pdfrwt beam="2">  1        1 0.76100230E-02 0.92101608E+02</pdfrwt>
<pdfrwt beam="1">  1       -1 0.65957130E-02 0.92101608E+02</pdfrwt>
<totfact> 0.91003118E+04</totfact>
</mgrwt>
</event>
<event>
 5    1  0.1197825E+001  0.9247859E+02  0.7546771E-02  0.1296958E+00
          4   -1    0    0  501    0  0.00000000000E+00  0.00000000000E+00  0.30898798233E+02  0.30898798233E+02  0.00000000000E+00 0. -1.
         -4   -1    0    0    0  501 -0.00000000000E+00 -0.00000000000E+00 -0.69195979066E+02  0.69195979066E+02  0.00000000000E+00 0.  1.
         23    2    1    2    0    0  0.00000000000E+00  0.00000000000E+00 -0.38297180832E+02  0.10009477730E+03  0.92478594187E+02 0.  0.
        -11    1    3    3    0    0 -0.44639254024E+02 -0.11321375951E+02 -0.23642134188E+02  0.51766659755E+02  0.00000000000E+00 0. -1.
         11    1    3    3    0    0  0.44639254024E+02  0.11321375951E+02 -0.14655046644E+02  0.48328117544E+02  0.00000000000E+00 0.  1.
<mgrwt>
<rscale>  0 0.92478594E+02</rscale>
<asrwt>0</asrwt>
<pdfrwt beam="1">  1        4 0.47536613E-02 0.92478594E+02</pdfrwt>
<pdfrwt beam="2">  1       -4 0.10645535E-01 0.92478594E+02</pdfrwt>
<totfact> 0.25452366E+04</totfact>
</mgrwt>
</event>
<event>
 5    1  0.1197825E+001  0.9158626E+02  0.7546771E-02  0.1299055E+00
          1   -1    0    0  501    0  0.00000000000E+00  0.00000000000E+00  0.15908869195E+02  0.15908869195E+02  0.00000000000E+00 0. -1.
         -1   -1    0    0    0  501 -0.00000000000E+00 -0.00000000000E+00 -0.13181393776E+03  0.13181393776E+03  0.00000000000E+00 0.  1.
         23    2    1    2    0    0  0.00000000000E+00  0.00000000000E+00 -0.11590506856E+03  0.14772280695E+03  0.91586258662E+02 0.  0.
        -11    1    3    3    0    0 -0.26179240956E+02 -0.25574755261E+02 -0.10234756183E+03  0.10869426928E+03  0.00000000000E+00 0.  1.
         11    1    3    3    0    0  0.26179240956E+02  0.25574755261E+02 -0.13557506738E+02  0.39028537669E+02  0.00000000000E+00 0. -1.
<mgrwt>
<rscale>  0 0.91586259E+02</rscale>
<asrwt>0</asrwt>
<pdfrwt beam="1">  1        1 0.24475184E-02 0.91586259E+02</pdfrwt>
<pdfrwt beam="2">  1       -1 0.20279067E-01 0.91586259E+02</pdfrwt>
<totfact> 0.76105542E+04</totfact>
</mgrwt>
</event>
<event>
 5    1  0.1197825E+001  0.8895733E+02  0.7546771E-02  0.1305396E+00
         -2   -1    0    0    0  501 -0.00000000000E+00  0.00000000000E+00  0.24072295580E+02  0.24072295580E+02  0.00000000000E+00 0.  1.
          2   -1    0    0  501    0  0.00000000000E+00 -0.00000000000E+00 -0.82183756563E+02  0.82183756563E+02  0.00000000000E+00 0. -1.
         23    2    1    2    0    0  0.00000000000E+00  0.00000000000E+00 -0.58111460983E+02  0.10625605214E+03  0.88957330893E+02 0.  0.
        -13    1    3    3    0    0 -0.97344286098E+01 -0.38568169110E+02 -0.52827870220E+02  0.66129015121E+02  0.00000000000E+00 0. -1.
         13    1    3    3    0    0  0.97344286098E+01  0.38568169110E+02 -0.52835907630E+01  0.40127037023E+02  0.00000000000E+00 0.  1.
<mgrwt>
<rscale>  0 0.88957331E+02</rscale>
<asrwt>0</asrwt>
<pdfrwt beam="2">  1        2 0.12643655E-01 0.88957331E+02</pdfrwt>
<pdfrwt beam="1">  1       -2 0.37034301E-02 0.88957331E+02</pdfrwt>
<totfact> 0.12391895E+05</totfact>
</mgrwt>
</event>
<event>
 5    1  0.1197825E+001  0.9000625E+02  0.7546771E-02  0.1302837E+00
         -2   -1    0    0    0  501 -0.00000000000E+00  0.00000000000E+00  0.13333597229E+03  0.13333597229E+03  0.00000000000E+00 0.  1.
          2   -1    0    0  501    0  0.00000000000E+00 -0.00000000000E+00 -0.15189307637E+02  0.15189307637E+02  0.00000000000E+00 0. -1.
         23    2    1    2    0    0  0.00000000000E+00  0.00000000000E+00  0.11814666465E+03  0.14852527993E+03  0.90006246497E+02 0.  0.
        -11    1    3    3    0    0 -0.24901093896E+02  0.35737776388E+02  0.40401791962E+02  0.59410082748E+02  0.00000000000E+00 0.  1.
         11    1    3    3    0    0  0.24901093896E+02 -0.35737776388E+02  0.77744872691E+02  0.89115197178E+02  0.00000000000E+00 0. -1.
<mgrwt>
<rscale>  0 0.90006246E+02</rscale>
<asrwt>0</asrwt>
<pdfrwt beam="2">  1        2 0.23368167E-02 0.90006246E+02</pdfrwt>
<pdfrwt beam="1">  1       -2 0.20513226E-01 0.90006246E+02</pdfrwt>
<totfact> 0.75227602E+04</totfact>
</mgrwt>
</event>
<event>
 5    1  0.1197825E+001  0.9034710E+02  0.7546771E-02  0.1302013E+00
          2   -1    0    0  501    0  0.00000000000E+00  0.00000000000E+00  0.11448151962E+02  0.11448151962E+02  0.00000000000E+00 0. -1.
         -2   -1    0    0    0  501 -0.00000000000E+00 -0.00000000000E+00 -0.17825142549E+03  0.17825142549E+03  0.00000000000E+00 0.  1.
         23    2    1    2    0    0  0.00000000000E+00  0.00000000000E+00 -0.16680327352E+03  0.18969957745E+03  0.90347095279E+02 0.  0.
        -11    1    3    3    0    0 -0.10057551571E+02 -0.34582859343E+02 -0.26148569245E+02  0.44507035146E+02  0.00000000000E+00 0. -1.
         11    1    3    3    0    0  0.10057551571E+02  0.34582859343E+02 -0.14065470428E+03  0.14519254230E+03  0.00000000000E+00 0.  1.
<mgrwt>
<rscale>  0 0.90347095E+02</rscale>
<asrwt>0</asrwt>
<pdfrwt beam="1">  1        2 0.17612543E-02 0.90347095E+02</pdfrwt>
<pdfrwt beam="2">  1       -2 0.27423294E-01 0.90347095E+02</pdfrwt>
<totfact> 0.66929796E+04</totfact>
</mgrwt>
</event>
<event>
 5    1  0.1197825E+001  0.8763980E+02  0.7546771E-02  0.1308670E+00
          1   -1    0    0  501    0  0.00000000000E+00  0.00000000000E+00  0.68523964032E+02  0.68523964032E+02  0.00000000000E+00 0. -1.
         -1   -1    0    0    0  501 -0.00000000000E+00 -0.00000000000E+00 -0.28022077201E+02  0.28022077201E+02  0.00000000000E+00 0.  1.
         23    2    1    2    0    0  0.00000000000E+00  0.00000000000E+00  0.40501886831E+02  0.96546041233E+02  0.87639803976E+02 0.  0.
        -13    1    3    3    0    0  0.37860581800E+02  0.21577281178E+02  0.25320935213E+02  0.50399925370E+02  0.00000000000E+00 0. -1.
         13    1    3    3    0    0 -0.37860581800E+02 -0.21577281178E+02  0.15180951618E+02  0.46146115863E+02  0.00000000000E+00 0.  1.
<mgrwt>
<rscale>  0 0.87639804E+02</rscale>
<asrwt>0</asrwt>
<pdfrwt beam="1">  1        1 0.10542148E-01 0.87639804E+02</pdfrwt>
<pdfrwt beam="2">  1       -1 0.43110888E-02 0.87639804E+02</pdfrwt>
<totfact> 0.10964700E+05</totfact>
</mgrwt>
</event>
<event>
 5    1  0.1197825E+001  0.9206070E+02  0.7546771E-02  0.1297937E+00
         -3   -1    0    0    0  501 -0.00000000000E+00  0.00000000000E+00  0.24246894125E+02  0.24246894125E+02  0.00000000000E+00 0.  1.
          3   -1    0    0  501    0  0.00000000000E+00 -0.00000000000E+00 -0.87384099302E+02  0.87384099302E+02  0.00000000000E+00 0. -1.
         23    2    1    2    0    0  0.00000000000E+00  0.00000000000E+00 -0.63137205178E+02  0.11163099343E+03  0.92060697454E+02 0.  0.
        -13    1    3    3    0    0 -0.32511036438E+02 -0.30314841676E+02 -0.17076573464E+02  0.47618971822E+02  0.00000000000E+00 0. -1.
         13    1    3    3    0    0  0.32511036438E+02  0.30314841676E+02 -0.46060631714E+02  0.64012021605E+02  0.00000000000E+00 0.  1.
<mgrwt>
<rscale>  0 0.92060697E+02</rscale>
<asrwt>0</asrwt>
<pdfrwt beam="2">  1        3 0.13443708E-01 0.92060697E+02</pdfrwt>
<pdfrwt beam="1">  1       -3 0.37302914E-02 0.92060697E+02</pdfrwt>
<totfact> 0.32951434E+04</totfact>
</mgrwt>
</event>
<event>
 5    1  0.1197825E+001  0.9468400E+02  0.7546771E-02  0.1291889E+00
          2   -1    0    0  501    0  0.00000000000E+00  0.00000000000E+00  0.10894540186E+03  0.10894540186E+03  0.00000000000E+00 0. -1.
         -2   -1    0    0    0  501 -0.00000000000E+00 -0.00000000000E+00 -0.20572367135E+02  0.20572367135E+02  0.00000000000E+00 0.  1.
         23    2    1    2    0    0  0.00000000000E+00  0.00000000000E+00  0.88373034723E+02  0.12951776899E+03  0.94683996636E+02 0.  0.
        -11    1    3    3    0    0 -0.13463024967E+02  0.45386772368E+02  0.44500411229E+02  0.64973061701E+02  0.00000000000E+00 0. -1.
         11    1    3    3    0    0  0.13463024967E+02 -0.45386772368E+02  0.43872623494E+02  0.64544707293E+02  0.00000000000E+00 0.  1.
<mgrwt>
<rscale>  0 0.94683997E+02</rscale>
<asrwt>0</asrwt>
<pdfrwt beam="1">  1        2 0.16760831E-01 0.94683997E+02</pdfrwt>
<pdfrwt beam="2">  1       -2 0.31649796E-02 0.94683997E+02</pdfrwt>
<totfact> 0.11352453E+05</totfact>
</mgrwt>
</event>
<event>
 5    1  0.1197825E+001  0.9363606E+02  0.7546771E-02  0.1294278E+00
          2   -1    0    0  501    0  0.00000000000E+00  0.00000000000E+00  0.54051210632E+02  0.54051210632E+02  0.00000000000E+00 0. -1.
         -2   -1    0    0    0  501 -0.00000000000E+00 -0.00000000000E+00 -0.40552796835E+02  0.40552796835E+02  0.00000000000E+00 0.  1.
         23    2    1    2    0    0  0.00000000000E+00  0.00000000000E+00  0.13498413797E+02  0.94604007468E+02  0.93636056377E+02 0.  0.
        -11    1    3    3    0    0 -0.32146749783E+02 -0.26251089094E+02 -0.15140273207E+02  0.44178740056E+02  0.00000000000E+00 0.  1.
         11    1    3    3    0    0  0.32146749783E+02  0.26251089094E+02  0.28638687004E+02  0.50425267411E+02  0.00000000000E+00 0. -1.
<mgrwt>
<rscale>  0 0.93636056E+02</rscale>
<asrwt>0</asrwt>
<pdfrwt beam="1">  1        2 0.83155709E-02 0.93636056E+02</pdfrwt>
<pdfrwt beam="2">  1       -2 0.62388918E-02 0.93636056E+02</pdfrwt>
<totfact> 0.95635335E+04</totfact>
</mgrwt>
</event>
<event>
 5    1  0.1197825E+001  0.8866075E+02  0.7546771E-02  0.1306128E+00
         -3   -1    0    0    0  501 -0.00000000000E+00  0.00000000000E+00  0.56872021482E+02  0.56872021482E+02  0.00000000000E+00 0.  1.
          3   -1    0    0  501    0  0.00000000000E+00 -0.00000000000E+00 -0.34554459520E+02  0.34554459520E+02  0.00000000000E+00 0. -1.
         23    2    1    2    0    0  0.00000000000E+00  0.00000000000E+00  0.22317561962E+02  0.91426481002E+02  0.88660745860E+02 0.  0.
        -13    1    3    3    0    0 -0.13670639669E+02  0.40858273359E+02  0.39787770863E+00  0.43086461881E+02  0.00000000000E+00 0. -1.
         13    1    3    3    0    0  0.13670639669E+02 -0.40858273359E+02  0.21919684253E+02  0.48340019120E+02  0.00000000000E+00 0.  1.
<mgrwt>
<rscale>  0 0.88660746E+02</rscale>
<asrwt>0</asrwt>
<pdfrwt beam="2">  1        3 0.53160707E-02 0.88660746E+02</pdfrwt>
<pdfrwt beam="1">  1       -3 0.87495418E-02 0.88660746E+02</pdfrwt>
<totfact> 0.38109334E+04</totfact>
</mgrwt>
</event>
<event>
 5    1  0.1197825E+001  0.9647737E+02  0.7546771E-02  0.1287883E+00
          3   -1    0    0  501    0  0.00000000000E+00  0.00000000000E+00  0.20404096877E+03  0.20404096877E+03  0.00000000000E+00 0. -1.
         -3   -1    0    0    0  501 -0.00000000000E+00 -0.00000000000E+00 -0.11404429636E+02  0.11404429636E+02  0.00000000000E+00 0.  1.
         23    2    1    2    0    0  0.00000000000E+00  0.00000000000E+00  0.19263653914E+03  0.21544539841E+03  0.96477372915E+02 0.  0.
        -11    1    3    3    0    0 -0.21709524248E+02 -0.25022898930E+02  0.17462153941E+03  0.17773612728E+03  0.00000000000E+00 0. -1.
         11    1    3    3    0    0  0.21709524248E+02  0.25022898930E+02  0.18014999725E+02  0.37709271128E+02  0.00000000000E+00 0.  1.
<mgrwt>
<rscale>  0 0.96477373E+02</rscale>
<asrwt>0</asrwt>
<pdfrwt beam="1">  1        3 0.31390916E-01 0.96477373E+02</pdfrwt>
<pdfrwt beam="2">  1       -3 0.17545278E-02 0.96477373E+02</pdfrwt>
<totfact> 0.23786790E+04</totfact>
</mgrwt>
</event>
<event>
 5    1  0.1197825E+001  0.9196263E+02  0.7546771E-02  0.1298167E+00
          2   -1    0    0  501    0  0.00000000000E+00  0.00000000000E+00  0.10688318611E+03  0.10688318611E+03  0.00000000000E+00 0.  1.
         -2   -1    0    0    0  501 -0.00000000000E+00 -0.00000000000E+00 -0.19781234184E+02  0.19781234184E+02  0.00000000000E+00 0. -1.
         23    2    1    2    0    0  0.00000000000E+00  0.00000000000E+00  0.87101951926E+02  0.12666442029E+03  0.91962630122E+02 0.  0.
        -13    1    3    3    0    0 -0.32956893704E+02 -0.23000529418E+02  0.74321656508E+02  0.84491951227E+02  0.00000000000E+00 0.  1.
         13    1    3    3    0    0  0.32956893704E+02  0.23000529418E+02  0.12780295419E+02  0.42172469066E+02  0.00000000000E+00 0. -1.
<mgrwt>
<rscale>  0 0.91962630E+02</rscale>
<asrwt>0</asrwt>
<pdfrwt beam="1">  1        2 0.16443567E-01 0.91962630E+02</pdfrwt>
<pdfrwt beam="2">  1       -2 0.30432668E-02 0.91962630E+02</pdfrwt>
<totfact> 0.12229162E+05</totfact>
</mgrwt>
</event>
<event>
 5    1  0.1197825E+001  0.9271468E+02  0.7546771E-02  0.1296408E+00
         -1   -1    0    0    0  501 -0.00000000000E+00  0.00000000000E+00  0.30134631473E+03  0.30134631473E+03  0.00000000000E+00 0.  1.
          1   -1    0    0  501    0  0.00000000000E+00 -0.00000000000E+00 -0.71313392563E+01  0.71313392563E+01  0.00000000000E+00 0. -1.
         23    2    1    2    0    0  0.00000000000E+00  0.00000000000E+00  0.29421497548E+03  0.30847765399E+03  0.92714676379E+02 0.  0.
        -11    1    3    3    0    0  0.40022630083E+02  0.22098394893E+02  0.12158289083E+03  0.12989437755E+03  0.00000000000E+00 0. -1.
         11    1    3    3    0    0 -0.40022630083E+02 -0.22098394893E+02  0.17263208464E+03  0.17858327644E+03  0.00000000000E+00 0.  1.
<mgrwt>
<rscale>  0 0.92714676E+02</rscale>
<asrwt>0</asrwt>
<pdfrwt beam="2">  1        1 0.10971293E-02 0.92714676E+02</pdfrwt>
<pdfrwt beam="1">  1       -1 0.46360962E-01 0.92714676E+02</pdfrwt>
<totfact> 0.57887796E+04</totfact>
</mgrwt>
</event>
<event>
 5    1  0.1197825E+001  0.8758985E+02  0.7546771E-02  0.1308795E+00
          2   -1    0    0  501    0  0.00000000000E+00  0.00000000000E+00  0.79087599371E+01  0.79087599371E+01  0.00000000000E+00 0. -1.
         -2   -1    0    0    0  501 -0.00000000000E+00 -0.00000000000E+00 -0.24251531793E+03  0.24251531793E+03  0.00000000000E+00 0.  1.
         23    2    1    2    0    0  0.00000000000E+00  0.00000000000E+00 -0.23460655800E+03  0.25042407787E+03  0.87589849426E+02 0.  0.
        -11    1    3    3    0    0 -0.26256977174E+02 -0.33114989571E+02 -0.84459727361E+02  0.94442982431E+02  0.00000000000E+00 0. -1.
         11    1    3    3    0    0  0.26256977174E+02  0.33114989571E+02 -0.15014683064E+03  0.15598109544E+03  0.00000000000E+00 0.  1.
<mgrwt>
<rscale>  0 0.87589849E+02</rscale>
<asrwt>0</asrwt>
<pdfrwt beam="1">  1        2 0.12167324E-02 0.87589849E+02</pdfrwt>
<pdfrwt beam="2">  1       -2 0.37310044E-01 0.87589849E+02</pdfrwt>
<totfact> 0.63201169E+04</totfact>
</mgrwt>
</event>
<event>
 5    1  0.1197825E+001  0.9143098E+02  0.7546771E-02  0.1299423E+00
          4   -1    0    0  501    0  0.00000000000E+00  0.00000000000E+00  0.14643698823E+03  0.14643698823E+03  0.00000000000E+00 0. -1.
         -4   -1    0    0    0  501 -0.00000000000E+00 -0.00000000000E+00 -0.14271709326E+02  0.14271709326E+02  0.00000000000E+00 0.  1.
         23    2    1    2    0    0  0.00000000000E+00  0.00000000000E+00  0.13216527890E+03  0.16070869755E+03  0.91430982289E+02 0.  0.
        -13    1    3    3    0    0 -0.10266884883E+02  0.44375592021E+02  0.72958847621E+02  0.86009275887E+02  0.00000000000E+00 0. -1.
         13    1    3    3    0    0  0.10266884883E+02 -0.44375592021E+02  0.59206431281E+02  0.74699421668E+02  0.00000000000E+00 0.  1.
<mgrwt>
<rscale>  0 0.91430982E+02</rscale>
<asrwt>0</asrwt>
<pdfrwt beam="1">  1        4 0.22528766E-01 0.91430982E+02</pdfrwt>
<pdfrwt beam="2">  1       -4 0.21956477E-02 0.91430982E+02</pdfrwt>
<totfact> 0.22973971E+04</totfact>
</mgrwt>
</event>
<event>
 5    1  0.1197825E+001  0.9291580E+02  0.7546771E-02  0.1295940E+00
         -1   -1    0    0    0  501 -0.00000000000E+00  0.00000000000E+00  0.72924322745E+02  0.72924322745E+02  0.00000000000E+00 0.  1.
          1   -1    0    0  501    0  0.00000000000E+00 -0.00000000000E+00 -0.29596935198E+02  0.29596935198E+02  0.00000000000E+00 0. -1.
         23    2    1    2    0    0  0.00000000000E+00  0.00000000000E+00  0.43327387547E+02  0.10252125794E+03  0.92915799619E+02 0.  0.
        -13    1    3    3    0    0 -0.14466872341E+02 -0.44041921533E+02  0.18288870312E+02  0.49834365903E+02  0.00000000000E+00 0.  1.
         13    1    3    3    0    0  0.14466872341E+02  0.44041921533E+02  0.25038517235E+02  0.52686892041E+02  0.00000000000E+00 0. -1.
<mgrwt>
<rscale>  0 0.92915800E+02</rscale>
<asrwt>0</asrwt>
<pdfrwt beam="2">  1        1 0.45533747E-02 0.92915800E+02</pdfrwt>
<pdfrwt beam="1">  1       -1 0.11219127E-01 0.92915800E+02</pdfrwt>
<totfact> 0.81912604E+04</totfact>
</mgrwt>
</event>
<event>
 5    1  0.1197825E+001  0.9118336E+02  0.7546771E-02  0.1300011E+00
         -2   -1    0    0    0  501 -0.00000000000E+00  0.00000000000E+00  0.30071753887E+02  0.30071753887E+02  0.00000000000E+00 0.  1.
          2   -1    0    0  501    0  0.00000000000E+00 -0.00000000000E+00 -0.69121391606E+02  0.69121391606E+02  0.00000000000E+00 0. -1.
         23    2    1    2    0    0  0.00000000000E+00  0.00000000000E+00 -0.39049637719E+02  0.99193145494E+02  0.91183364200E+02 0.  0.
        -13    1    3    3    0    0 -0.14957626612E+02  0.32659634888E+02  0.11016623046E+02  0.37573239522E+02  0.00000000000E+00 0.  1.
         13    1    3    3    0    0  0.14957626612E+02 -0.32659634888E+02 -0.50066260766E+02  0.61619905971E+02  0.00000000000E+00 0. -1.
<mgrwt>
<rscale>  0 0.91183364E+02</rscale>
<asrwt>0</asrwt>
<pdfrwt beam="2">  1        2 0.10634060E-01 0.91183364E+02</pdfrwt>
<pdfrwt beam="1">  1       -2 0.46264237E-02 0.91183364E+02</pdfrwt>
<totfact> 0.11021155E+05</totfact>
</mgrwt>
</event>
<event>
 5    1  0.1197825E+001  0.6552749E+02  0.7546771E-02  0.1375998E+00
          1   -1    0    0  501    0  0.00000000000E+00  0.00000000000E+00  0.17151750404E+03  0.17151750404E+03  0.00000000000E+00 0.  1.
         -1   -1    0    0    0  501 -0.00000000000E+00 -0.00000000000E+00 -0.62586210701E+01  0.62586210701E+01  0.00000000000E+00 0. -1.
         23    2    1    2    0    0  0.00000000000E+00  0.00000000000E+00  0.16525888297E+03  0.17777612511E+03  0.65527492389E+02 0.  0.
        -13    1    3    3    0    0  0.59010291073E+01  0.26316155846E+02  0.13310152436E+03  0.13580639893E+03  0.00000000000E+00 0.  1.
         13    1    3    3    0    0 -0.59010291073E+01 -0.26316155846E+02  0.32157358614E+02  0.41969726186E+02  0.00000000000E+00 0. -1.
<mgrwt>
<rscale>  0 0.65527492E+02</rscale>
<asrwt>0</asrwt>
<pdfrwt beam="1">  1        1 0.26387305E-01 0.65527492E+02</pdfrwt>
<pdfrwt beam="2">  1       -1 0.96286491E-03 0.65527492E+02</pdfrwt>
<totfact> 0.27486875E+05</totfact>
</mgrwt>
</event>
<event>
 5    1  0.1197825E+001  0.9747587E+02  0.7546771E-02  0.1285695E+00
          1   -1    0    0  501    0  0.00000000000E+00  0.00000000000E+00  0.38092423243E+03  0.38092423243E+03  0.00000000000E+00 0. -1.
         -1   -1    0    0    0  501 -0.00000000000E+00 -0.00000000000E+00 -0.62358497275E+01  0.62358497275E+01  0.00000000000E+00 0.  1.
         23    2    1    2    0    0  0.00000000000E+00  0.00000000000E+00  0.37468838271E+03  0.38716008216E+03  0.97475869240E+02 0.  0.
        -11    1    3    3    0    0  0.32846351741E+02 -0.29865497655E+02  0.10745601442E+03  0.11626532504E+03  0.00000000000E+00 0.  1.
         11    1    3    3    0    0 -0.32846351741E+02  0.29865497655E+02  0.26723236829E+03  0.27089475712E+03  0.00000000000E+00 0. -1.
<mgrwt>
<rscale>  0 0.97475869E+02</rscale>
<asrwt>0</asrwt>
<pdfrwt beam="1">  1        1 0.58603710E-01 0.97475869E+02</pdfrwt>
<pdfrwt beam="2">  1       -1 0.95936179E-03 0.97475869E+02</pdfrwt>
<totfact> 0.11196147E+05</totfact>
</mgrwt>
</event>
<event>
 5    1  0.1197825E+001  0.9201751E+02  0.7546771E-02  0.1298038E+00
         -2   -1    0    0    0  501 -0.00000000000E+00  0.00000000000E+00  0.32822650531E+02  0.32822650531E+02  0.00000000000E+00 0. -1.
          2   -1    0    0  501    0  0.00000000000E+00 -0.00000000000E+00 -0.64492213773E+02  0.64492213773E+02  0.00000000000E+00 0.  1.
         23    2    1    2    0    0  0.00000000000E+00  0.00000000000E+00 -0.31669563242E+02  0.97314864305E+02  0.92017506914E+02 0.  0.
        -11    1    3    3    0    0 -0.18284553967E+02 -0.19741325814E+02 -0.55302947533E+02  0.61501714322E+02  0.00000000000E+00 0.  1.
         11    1    3    3    0    0  0.18284553967E+02  0.19741325814E+02  0.23633384291E+02  0.35813149983E+02  0.00000000000E+00 0. -1.
<mgrwt>
<rscale>  0 0.92017507E+02</rscale>
<asrwt>0</asrwt>
<pdfrwt beam="2">  1        2 0.99218789E-02 0.92017507E+02</pdfrwt>
<pdfrwt beam="1">  1       -2 0.50496386E-02 0.92017507E+02</pdfrwt>
<totfact> 0.10540050E+05</totfact>
</mgrwt>
</event>
<event>
 5    1  0.1197825E+001  0.9183072E+02  0.7546771E-02  0.1298478E+00
          2   -1    0    0  501    0  0.00000000000E+00  0.00000000000E+00  0.10732754849E+03  0.10732754849E+03  0.00000000000E+00 0.  1.
         -2   -1    0    0    0  501 -0.00000000000E+00 -0.00000000000E+00 -0.19642863456E+02  0.19642863456E+02  0.00000000000E+00 0. -1.
         23    2    1    2    0    0  0.00000000000E+00  0.00000000000E+00  0.87684685033E+02  0.12697041194E+03  0.91830722093E+02 0.  0.
        -11    1    3    3    0    0  0.32889195625E+02 -0.31862499531E+02  0.39193998847E+02  0.60275099426E+02  0.00000000000E+00 0. -1.
         11    1    3    3    0    0 -0.32889195625E+02  0.31862499531E+02  0.48490686186E+02  0.66695312519E+02  0.00000000000E+00 0.  1.
<mgrwt>
<rscale>  0 0.91830722E+02</rscale>
<asrwt>0</asrwt>
<pdfrwt beam="1">  1        2 0.16511930E-01 0.91830722E+02</pdfrwt>
<pdfrwt beam="2">  1       -2 0.30219791E-02 0.91830722E+02</pdfrwt>
<totfact> 0.12293416E+05</totfact>
</mgrwt>
</event>
<event>
 5    1  0.1197825E+001  0.9053262E+02  0.7546771E-02  0.1301567E+00
          1   -1    0    0  501    0  0.00000000000E+00  0.00000000000E+00  0.10081707979E+02  0.10081707979E+02  0.00000000000E+00 0. -1.
         -1   -1    0    0    0  501 -0.00000000000E+00 -0.00000000000E+00 -0.20324321783E+03  0.20324321783E+03  0.00000000000E+00 0.  1.
         23    2    1    2    0    0  0.00000000000E+00  0.00000000000E+00 -0.19316150985E+03  0.21332492581E+03  0.90532618892E+02 0.  0.
        -13    1    3    3    0    0 -0.50982139452E+01  0.42532968354E+02 -0.62111102811E+02  0.75450873254E+02  0.00000000000E+00 0. -1.
         13    1    3    3    0    0  0.50982139452E+01 -0.42532968354E+02 -0.13105040704E+03  0.13787405255E+03  0.00000000000E+00 0.  1.
<mgrwt>
<rscale>  0 0.90532619E+02</rscale>
<asrwt>0</asrwt>
<pdfrwt beam="1">  1        1 0.15510321E-02 0.90532619E+02</pdfrwt>
<pdfrwt beam="2">  1       -1 0.31268186E-01 0.90532619E+02</pdfrwt>
<totfact> 0.70391855E+04</totfact>
</mgrwt>
</event>
<event>
 5    1  0.1197825E+001  0.9099661E+02  0.7546771E-02  0.1300456E+00
          2   -1    0    0  501    0  0.00000000000E+00  0.00000000000E+00  0.63711054148E+02  0.63711054148E+02  0.00000000000E+00 0. -1.
         -2   -1    0    0    0  501 -0.00000000000E+00 -0.00000000000E+00 -0.32491941895E+02  0.32491941895E+02  0.00000000000E+00 0.  1.
         23    2    1    2    0    0  0.00000000000E+00  0.00000000000E+00  0.31219112253E+02  0.96202996042E+02  0.90996612452E+02 0.  0.
        -11    1    3    3    0    0  0.49899295885E+01 -0.10225415310E+02 -0.30963588832E+02  0.32987912164E+02  0.00000000000E+00 0.  1.
         11    1    3    3    0    0 -0.49899295885E+01  0.10225415310E+02  0.62182701085E+02  0.63215083879E+02  0.00000000000E+00 0. -1.
<mgrwt>
<rscale>  0 0.90996612E+02</rscale>
<asrwt>0</asrwt>
<pdfrwt beam="1">  1        2 0.98017006E-02 0.90996612E+02</pdfrwt>
<pdfrwt beam="2">  1       -2 0.49987603E-02 0.90996612E+02</pdfrwt>
<totfact> 0.10840261E+05</totfact>
</mgrwt>
</event>
<event>
 5    1  0.1197825E+001  0.9133311E+02  0.7546771E-02  0.1299655E+00
          1   -1    0    0  501    0  0.00000000000E+00  0.00000000000E+00  0.22203367444E+03  0.22203367444E+03  0.00000000000E+00 0. -1.
         -1   -1    0    0    0  501 -0.00000000000E+00 -0.00000000000E+00 -0.93924238733E+01  0.93924238733E+01  0.00000000000E+00 0.  1.
         23    2    1    2    0    0  0.00000000000E+00  0.00000000000E+00  0.21264125057E+03  0.23142609831E+03  0.91333113042E+02 0.  0.
        -13    1    3    3    0    0  0.15399017633E+02  0.42987613532E+02  0.10786134084E+03  0.11712870489E+03  0.00000000000E+00 0. -1.
         13    1    3    3    0    0 -0.15399017633E+02 -0.42987613532E+02  0.10477990973E+03  0.11429739343E+03  0.00000000000E+00 0.  1.
<mgrwt>
<rscale>  0 0.91333113E+02</rscale>
<asrwt>0</asrwt>
<pdfrwt beam="1">  1        1 0.34159023E-01 0.91333113E+02</pdfrwt>
<pdfrwt beam="2">  1       -1 0.14449884E-02 0.91333113E+02</pdfrwt>
<totfact> 0.12028699E+05</totfact>
</mgrwt>
</event>
<event>
 5    1  0.1197825E+001  0.8973284E+02  0.7546771E-02  0.1303500E+00
         -1   -1    0    0    0  501 -0.00000000000E+00  0.00000000000E+00  0.20797011854E+02  0.20797011854E+02  0.00000000000E+00 0.  1.
          1   -1    0    0  501    0  0.00000000000E+00 -0.00000000000E+00 -0.96792542536E+02  0.96792542536E+02  0.00000000000E+00 0. -1.
         23    2    1    2    0    0  0.00000000000E+00  0.00000000000E+00 -0.75995530682E+02  0.11758955439E+03  0.89732840243E+02 0.  0.
        -13    1    3    3    0    0  0.34686401613E+02  0.27198445701E+02 -0.27026493521E+02  0.51704286644E+02  0.00000000000E+00 0.  1.
         13    1    3    3    0    0 -0.34686401613E+02 -0.27198445701E+02 -0.48969037161E+02  0.65885267745E+02  0.00000000000E+00 0. -1.
<mgrwt>
<rscale>  0 0.89732840E+02</rscale>
<asrwt>0</asrwt>
<pdfrwt beam="2">  1        1 0.14891160E-01 0.89732840E+02</pdfrwt>
<pdfrwt beam="1">  1       -1 0.31995403E-02 0.89732840E+02</pdfrwt>
<totfact> 0.10850627E+05</totfact>
</mgrwt>
</event>
<event>
 5    1  0.1197825E+001  0.9297775E+02  0.7546771E-02  0.1295797E+00
         -3   -1    0    0    0  501 -0.00000000000E+00  0.00000000000E+00  0.54368487234E+02  0.54368487234E+02  0.00000000000E+00 0.  1.
          3   -1    0    0  501    0  0.00000000000E+00 -0.00000000000E+00 -0.39751256314E+02  0.39751256314E+02  0.00000000000E+00 0. -1.
         23    2    1    2    0    0  0.00000000000E+00  0.00000000000E+00  0.14617230920E+02  0.94119743548E+02  0.92977753714E+02 0.  0.
        -13    1    3    3    0    0 -0.58050094726E+01 -0.45753686807E+02  0.13958393885E+01  0.46141590338E+02  0.00000000000E+00 0. -1.
         13    1    3    3    0    0  0.58050094726E+01  0.45753686807E+02  0.13221391531E+02  0.47978153209E+02  0.00000000000E+00 0.  1.
<mgrwt>
<rscale>  0 0.92977754E+02</rscale>
<asrwt>0</asrwt>
<pdfrwt beam="2">  1        3 0.61155779E-02 0.92977754E+02</pdfrwt>
<pdfrwt beam="1">  1       -3 0.83643827E-02 0.92977754E+02</pdfrwt>
<totfact> 0.33287904E+04</totfact>
</mgrwt>
</event>
<event>
 5    1  0.1197825E+001  0.9134777E+02  0.7546771E-02  0.1299620E+00
          1   -1    0    0  501    0  0.00000000000E+00  0.00000000000E+00  0.44874059944E+02  0.44874059944E+02  0.00000000000E+00 0. -1.
         -1   -1    0    0    0  501 -0.00000000000E+00 -0.00000000000E+00 -0.46487968545E+02  0.46487968545E+02  0.00000000000E+00 0.  1.
         23    2    1    2    0    0  0.00000000000E+00  0.00000000000E+00 -0.16139086009E+01  0.91362028488E+02  0.91347772543E+02 0.  0.
        -11    1    3    3    0    0 -0.21803709559E+02 -0.63699081974E+01 -0.40437958824E+02  0.46381095231E+02  0.00000000000E+00 0.  1.
         11    1    3    3    0    0  0.21803709559E+02  0.63699081974E+01  0.38824050223E+02  0.44980933257E+02  0.00000000000E+00 0. -1.
<mgrwt>
<rscale>  0 0.91347773E+02</rscale>
<asrwt>0</asrwt>
<pdfrwt beam="1">  1        1 0.69037016E-02 0.91347773E+02</pdfrwt>
<pdfrwt beam="2">  1       -1 0.71519951E-02 0.91347773E+02</pdfrwt>
<totfact> 0.91768216E+04</totfact>
</mgrwt>
</event>
<event>
 5    1  0.1197825E+001  0.9478954E+02  0.7546771E-02  0.1291651E+00
          4   -1    0    0  501    0  0.00000000000E+00  0.00000000000E+00  0.16389455584E+03  0.16389455584E+03  0.00000000000E+00 0. -1.
         -4   -1    0    0    0  501 -0.00000000000E+00 -0.00000000000E+00 -0.13705545825E+02  0.13705545825E+02  0.00000000000E+00 0.  1.
         23    2    1    2    0    0  0.00000000000E+00  0.00000000000E+00  0.15018901002E+03  0.17760010167E+03  0.94789542580E+02 0.  0.
        -11    1    3    3    0    0 -0.94952546376E+01  0.43883919407E+02  0.10352834436E+03  0.11284536468E+03  0.00000000000E+00 0.  1.
         11    1    3    3    0    0  0.94952546376E+01 -0.43883919407E+02  0.46660665655E+02  0.64754736989E+02  0.00000000000E+00 0. -1.
<mgrwt>
<rscale>  0 0.94789543E+02</rscale>
<asrwt>0</asrwt>
<pdfrwt beam="1">  1        4 0.25214546E-01 0.94789543E+02</pdfrwt>
<pdfrwt beam="2">  1       -4 0.21085456E-02 0.94789543E+02</pdfrwt>
<totfact> 0.20136712E+04</totfact>
</mgrwt>
</event>
<event>
 5    1  0.1197825E+001  0.9051521E+02  0.7546771E-02  0.1301609E+00
          1   -1    0    0  501    0  0.00000000000E+00  0.00000000000E+00  0.56756703109E+02  0.56756703109E+02  0.00000000000E+00 0. -1.
         -1   -1    0    0    0  501 -0.00000000000E+00 -0.00000000000E+00 -0.36088266511E+02  0.36088266511E+02  0.00000000000E+00 0.  1.
         23    2    1    2    0    0  0.00000000000E+00  0.00000000000E+00  0.20668436598E+02  0.92844969620E+02  0.90515214811E+02 0.  0.
        -11    1    3    3    0    0 -0.25309231025E+02  0.36142328677E+02  0.39573335075E-02  0.44122841171E+02  0.00000000000E+00 0. -1.
         11    1    3    3    0    0  0.25309231025E+02 -0.36142328677E+02  0.20664479265E+02  0.48722128449E+02  0.00000000000E+00 0.  1.
<mgrwt>
<rscale>  0 0.90515215E+02</rscale>
<asrwt>0</asrwt>
<pdfrwt beam="1">  1        1 0.87318005E-02 0.90515215E+02</pdfrwt>
<pdfrwt beam="2">  1       -1 0.55520410E-02 0.90515215E+02</pdfrwt>
<totfact> 0.97518489E+04</totfact>
</mgrwt>
</event>
<event>
 5    1  0.1197825E+001  0.8432117E+02  0.7546771E-02  0.1317217E+00
          1   -1    0    0  501    0  0.00000000000E+00  0.00000000000E+00  0.43352109955E+02  0.43352109955E+02  0.00000000000E+00 0. -1.
         -1   -1    0    0    0  501 -0.00000000000E+00 -0.00000000000E+00 -0.41001809571E+02  0.41001809571E+02  0.00000000000E+00 0.  1.
         23    2    1    2    0    0  0.00000000000E+00  0.00000000000E+00  0.23503003840E+01  0.84353919526E+02  0.84321170695E+02 0.  0.
        -13    1    3    3    0    0  0.64163947041E+01 -0.31721917525E+02 -0.25855054814E+02  0.41423834104E+02  0.00000000000E+00 0.  1.
         13    1    3    3    0    0 -0.64163947041E+01  0.31721917525E+02  0.28205355198E+02  0.42930085421E+02  0.00000000000E+00 0. -1.
<mgrwt>
<rscale>  0 0.84321171E+02</rscale>
<asrwt>0</asrwt>
<pdfrwt beam="1">  1        1 0.66695554E-02 0.84321171E+02</pdfrwt>
<pdfrwt beam="2">  1       -1 0.63079707E-02 0.84321171E+02</pdfrwt>
<totfact> 0.11417014E+05</totfact>
</mgrwt>
</event>
<event>
 5    1  0.1197825E+001  0.9002198E+02  0.7546771E-02  0.1302798E+00
          1   -1    0    0  501    0  0.00000000000E+00  0.00000000000E+00  0.64767031324E+02  0.64767031324E+02  0.00000000000E+00 0. -1.
         -1   -1    0    0    0  501 -0.00000000000E+00 -0.00000000000E+00 -0.31281181766E+02  0.31281181766E+02  0.00000000000E+00 0.  1.
         23    2    1    2    0    0  0.00000000000E+00  0.00000000000E+00  0.33485849558E+02  0.96048213090E+02  0.90021981300E+02 0.  0.
        -13    1    3    3    0    0  0.38790202144E+02  0.22390944737E+02  0.11976776210E+02  0.46362456330E+02  0.00000000000E+00 0.  1.
         13    1    3    3    0    0 -0.38790202144E+02 -0.22390944737E+02  0.21509073348E+02  0.49685756760E+02  0.00000000000E+00 0. -1.
<mgrwt>
<rscale>  0 0.90021981E+02</rscale>
<asrwt>0</asrwt>
<pdfrwt beam="1">  1        1 0.99641586E-02 0.90021981E+02</pdfrwt>
<pdfrwt beam="2">  1       -1 0.48124895E-02 0.90021981E+02</pdfrwt>
<totfact> 0.10098998E+05</totfact>
</mgrwt>
</event>
<event>
 5    1  0.1197825E+001  0.9017530E+02  0.7546771E-02  0.1302428E+00
          1   -1    0    0  501    0  0.00000000000E+00  0.00000000000E+00  0.34591225377E+02  0.34591225377E+02  0.00000000000E+00 0. -1.
         -1   -1    0    0    0  501 -0.00000000000E+00 -0.00000000000E+00 -0.58769131277E+02  0.58769131277E+02  0.00000000000E+00 0.  1.
         23    2    1    2    0    0  0.00000000000E+00  0.00000000000E+00 -0.24177905900E+02  0.93360356653E+02  0.90175301833E+02 0.  0.
        -11    1    3    3    0    0 -0.12658600128E+00  0.43066786884E+02 -0.25906978836E+02  0.50258687895E+02  0.00000000000E+00 0.  1.
         11    1    3    3    0    0  0.12658600128E+00 -0.43066786884E+02  0.17290729363E+01  0.43101668758E+02  0.00000000000E+00 0. -1.
<mgrwt>
<rscale>  0 0.90175302E+02</rscale>
<asrwt>0</asrwt>
<pdfrwt beam="1">  1        1 0.53217270E-02 0.90175302E+02</pdfrwt>
<pdfrwt beam="2">  1       -1 0.90414048E-02 0.90175302E+02</pdfrwt>
<totfact> 0.91489220E+04</totfact>
</mgrwt>
</event>
<event>
 5    1  0.1197825E+001  0.9007671E+02  0.7546771E-02  0.1302666E+00
         -1   -1    0    0    0  501 -0.00000000000E+00  0.00000000000E+00  0.32643107791E+02  0.32643107791E+02  0.00000000000E+00 0.  1.
          1   -1    0    0  501    0  0.00000000000E+00 -0.00000000000E+00 -0.62140323123E+02  0.62140323123E+02  0.00000000000E+00 0. -1.
         23    2    1    2    0    0  0.00000000000E+00  0.00000000000E+00 -0.29497215332E+02  0.94783430914E+02  0.90076706553E+02 0.  0.
        -13    1    3    3    0    0  0.64537748066E+00 -0.44795918779E+02 -0.98851505017E+01  0.45878176204E+02  0.00000000000E+00 0.  1.
         13    1    3    3    0    0 -0.64537748066E+00  0.44795918779E+02 -0.19612064831E+02  0.48905254710E+02  0.00000000000E+00 0. -1.
<mgrwt>
<rscale>  0 0.90076707E+02</rscale>
<asrwt>0</asrwt>
<pdfrwt beam="2">  1        1 0.95600496E-02 0.90076707E+02</pdfrwt>
<pdfrwt beam="1">  1       -1 0.50220166E-02 0.90076707E+02</pdfrwt>
<totfact> 0.10019250E+05</totfact>
</mgrwt>
</event>
<event>
 5    1  0.1197825E+001  0.9268887E+02  0.7546771E-02  0.1296468E+00
          1   -1    0    0  501    0  0.00000000000E+00  0.00000000000E+00  0.27252706066E+02  0.27252706066E+02  0.00000000000E+00 0. -1.
         -1   -1    0    0    0  501 -0.00000000000E+00 -0.00000000000E+00 -0.78810772918E+02  0.78810772918E+02  0.00000000000E+00 0.  1.
         23    2    1    2    0    0  0.00000000000E+00  0.00000000000E+00 -0.51558066851E+02  0.10606347898E+03  0.92688873749E+02 0.  0.
        -13    1    3    3    0    0 -0.33291375452E+02  0.15942988284E+02 -0.57846116426E+02  0.68619732880E+02  0.00000000000E+00 0.  1.
         13    1    3    3    0    0  0.33291375452E+02 -0.15942988284E+02  0.62880495749E+01  0.37443746105E+02  0.00000000000E+00 0. -1.
<mgrwt>
<rscale>  0 0.92688874E+02</rscale>
<asrwt>0</asrwt>
<pdfrwt beam="1">  1        1 0.41927241E-02 0.92688874E+02</pdfrwt>
<pdfrwt beam="2">  1       -1 0.12124734E-01 0.92688874E+02</pdfrwt>
<totfact> 0.81363293E+04</totfact>
</mgrwt>
</event>
<event>
 5    1  0.1197825E+001  0.9053079E+02  0.7546771E-02  0.1301571E+00
          1   -1    0    0  501    0  0.00000000000E+00  0.00000000000E+00  0.13301346647E+03  0.13301346647E+03  0.00000000000E+00 0. -1.
         -1   -1    0    0    0  501 -0.00000000000E+00 -0.00000000000E+00 -0.15404122939E+02  0.15404122939E+02  0.00000000000E+00 0.  1.
         23    2    1    2    0    0  0.00000000000E+00  0.00000000000E+00  0.11760934353E+03  0.14841758941E+03  0.90530785705E+02 0.  0.
        -11    1    3    3    0    0 -0.15620501593E+02 -0.25148396418E+02  0.26678165558E+01  0.29724723003E+02  0.00000000000E+00 0.  1.
         11    1    3    3    0    0  0.15620501593E+02  0.25148396418E+02  0.11494152698E+03  0.11869286641E+03  0.00000000000E+00 0. -1.
<mgrwt>
<rscale>  0 0.90530786E+02</rscale>
<asrwt>0</asrwt>
<pdfrwt beam="1">  1        1 0.20463610E-01 0.90530786E+02</pdfrwt>
<pdfrwt beam="2">  1       -1 0.23698652E-02 0.90530786E+02</pdfrwt>
<totfact> 0.11184365E+05</totfact>
</mgrwt>
</event>
<event>
 5    1  0.1197825E+001  0.9032743E+02  0.7546771E-02  0.1302061E+00
          2   -1    0    0  501    0  0.00000000000E+00  0.00000000000E+00  0.27848023778E+03  0.27848023778E+03  0.00000000000E+00 0. -1.
         -2   -1    0    0    0  501 -0.00000000000E+00 -0.00000000000E+00 -0.73246174047E+01  0.73246174047E+01  0.00000000000E+00 0.  1.
         23    2    1    2    0    0  0.00000000000E+00  0.00000000000E+00  0.27115562038E+03  0.28580485519E+03  0.90327430973E+02 0.  0.
        -13    1    3    3    0    0  0.94031471416E+01 -0.41863644656E+02  0.90967698394E+02  0.10057885499E+03  0.00000000000E+00 0.  1.
         13    1    3    3    0    0 -0.94031471416E+01  0.41863644656E+02  0.18018792198E+03  0.18522600020E+03  0.00000000000E+00 0. -1.
<mgrwt>
<rscale>  0 0.90327431E+02</rscale>
<asrwt>0</asrwt>
<pdfrwt beam="1">  1        2 0.42843105E-01 0.90327431E+02</pdfrwt>
<pdfrwt beam="2">  1       -2 0.11268644E-02 0.90327431E+02</pdfrwt>
<totfact> 0.17916267E+05</totfact>
</mgrwt>
</event>
<event>
 4    1  0.1197825E+001  0.3617191E+02  0.7546771E-02  0.1538433E+00
          1   -1    0    0  501    0  0.00000000000E+00  0.00000000000E+00  0.12738304893E+02  0.12738304893E+02  0.00000000000E+00 0.  1.
         -1   -1    0    0    0  501 -0.00000000000E+00 -0.00000000000E+00 -0.25678593035E+02  0.25678593035E+02  0.00000000000E+00 0. -1.
        -11    1    1    2    0    0  0.33907327870E+01 -0.99886483787E+01  0.91328650751E+01  0.13952755633E+02  0.00000000000E+00 0.  1.
         11    1    1    2    0    0 -0.33907327870E+01  0.99886483787E+01 -0.22073153217E+02  0.24464142295E+02  0.00000000000E+00 0. -1.
<mgrwt>
<rscale>  0 0.36171909E+02</rscale>
<asrwt>0</asrwt>
<pdfrwt beam="1">  1        1 0.19597393E-02 0.36171909E+02</pdfrwt>
<pdfrwt beam="2">  1       -1 0.39505527E-02 0.36171909E+02</pdfrwt>
<totfact> 0.94864618E+05</totfact>
</mgrwt>
</event>
<event>
 5    1  0.1197825E+001  0.9918544E+02  0.7546771E-02  0.1282018E+00
         -1   -1    0    0    0  501 -0.00000000000E+00  0.00000000000E+00  0.37912096918E+03  0.37912096918E+03  0.00000000000E+00 0.  1.
          1   -1    0    0  501    0  0.00000000000E+00 -0.00000000000E+00 -0.64872116396E+01  0.64872116396E+01  0.00000000000E+00 0. -1.
         23    2    1    2    0    0  0.00000000000E+00  0.00000000000E+00  0.37263375754E+03  0.38560818082E+03  0.99185441756E+02 0.  0.
        -13    1    3    3    0    0  0.15787535051E+02  0.46682056537E+02  0.20795502632E+03  0.21371418680E+03  0.00000000000E+00 0.  1.
         13    1    3    3    0    0 -0.15787535051E+02 -0.46682056537E+02  0.16467873122E+03  0.17189399402E+03  0.00000000000E+00 0. -1.
<mgrwt>
<rscale>  0 0.99185442E+02</rscale>
<asrwt>0</asrwt>
<pdfrwt beam="2">  1        1 0.99803286E-03 0.99185442E+02</pdfrwt>
<pdfrwt beam="1">  1       -1 0.58326286E-01 0.99185442E+02</pdfrwt>
<totfact> 0.43857288E+04</totfact>
</mgrwt>
</event>
<event>
 5    1  0.1197825E+001  0.8947336E+02  0.7546771E-02  0.1304132E+00
          2   -1    0    0  501    0  0.00000000000E+00  0.00000000000E+00  0.11562301415E+03  0.11562301415E+03  0.00000000000E+00 0. -1.
         -2   -1    0    0    0  501 -0.00000000000E+00 -0.00000000000E+00 -0.17309447853E+02  0.17309447853E+02  0.00000000000E+00 0.  1.
         23    2    1    2    0    0  0.00000000000E+00  0.00000000000E+00  0.98313566297E+02  0.13293246200E+03  0.89473359924E+02 0.  0.
        -13    1    3    3    0    0 -0.39607442623E+02  0.43340898893E+01  0.18932793169E+02  0.44113314356E+02  0.00000000000E+00 0.  1.
         13    1    3    3    0    0  0.39607442623E+02 -0.43340898893E+01  0.79380773128E+02  0.88819147647E+02  0.00000000000E+00 0. -1.
<mgrwt>
<rscale>  0 0.89473360E+02</rscale>
<asrwt>0</asrwt>
<pdfrwt beam="1">  1        2 0.17788156E-01 0.89473360E+02</pdfrwt>
<pdfrwt beam="2">  1       -2 0.26629920E-02 0.89473360E+02</pdfrwt>
<totfact> 0.13512165E+05</totfact>
</mgrwt>
</event>
<event>
 5    1  0.1197825E+001  0.8913047E+02  0.7546771E-02  0.1304971E+00
         -2   -1    0    0    0  501 -0.00000000000E+00  0.00000000000E+00  0.17682379516E+02  0.17682379516E+02  0.00000000000E+00 0.  1.
          2   -1    0    0  501    0  0.00000000000E+00 -0.00000000000E+00 -0.11231860591E+03  0.11231860591E+03  0.00000000000E+00 0. -1.
         23    2    1    2    0    0  0.00000000000E+00  0.00000000000E+00 -0.94636226391E+02  0.13000098542E+03  0.89130471028E+02 0.  0.
        -13    1    3    3    0    0  0.30712637582E+01  0.23572779335E+02  0.76625646558E+01  0.24976458591E+02  0.00000000000E+00 0.  1.
         13    1    3    3    0    0 -0.30712637582E+01 -0.23572779335E+02 -0.10229879105E+03  0.10502452683E+03  0.00000000000E+00 0. -1.
<mgrwt>
<rscale>  0 0.89130471E+02</rscale>
<asrwt>0</asrwt>
<pdfrwt beam="2">  1        2 0.17279785E-01 0.89130471E+02</pdfrwt>
<pdfrwt beam="1">  1       -2 0.27203661E-02 0.89130471E+02</pdfrwt>
<totfact> 0.13530875E+05</totfact>
</mgrwt>
</event>
<event>
 5    1  0.1197825E+001  0.9092930E+02  0.7546771E-02  0.1300617E+00
          3   -1    0    0  501    0  0.00000000000E+00  0.00000000000E+00  0.16258854360E+02  0.16258854360E+02  0.00000000000E+00 0. -1.
         -3   -1    0    0    0  501 -0.00000000000E+00 -0.00000000000E+00 -0.12713284248E+03  0.12713284248E+03  0.00000000000E+00 0.  1.
         23    2    1    2    0    0  0.00000000000E+00  0.00000000000E+00 -0.11087398812E+03  0.14339169684E+03  0.90929299354E+02 0.  0.
        -11    1    3    3    0    0  0.32968188057E+02 -0.14629157542E+02 -0.11788551039E+02  0.37945798315E+02  0.00000000000E+00 0. -1.
         11    1    3    3    0    0 -0.32968188057E+02  0.14629157542E+02 -0.99085437081E+02  0.10544589852E+03  0.00000000000E+00 0.  1.
<mgrwt>
<rscale>  0 0.90929299E+02</rscale>
<asrwt>0</asrwt>
<pdfrwt beam="1">  1        3 0.25013622E-02 0.90929299E+02</pdfrwt>
<pdfrwt beam="2">  1       -3 0.19558899E-01 0.90929299E+02</pdfrwt>
<totfact> 0.31952054E+04</totfact>
</mgrwt>
</event>
<event>
 5    1  0.1197825E+001  0.8809203E+02  0.7546771E-02  0.1307539E+00
          2   -1    0    0  501    0  0.00000000000E+00  0.00000000000E+00  0.27352840256E+03  0.27352840256E+03  0.00000000000E+00 0. -1.
         -2   -1    0    0    0  501 -0.00000000000E+00 -0.00000000000E+00 -0.70926873926E+01  0.70926873926E+01  0.00000000000E+00 0.  1.
         23    2    1    2    0    0  0.00000000000E+00  0.00000000000E+00  0.26643571517E+03  0.28062108996E+03  0.88092030341E+02 0.  0.
        -11    1    3    3    0    0 -0.26704312149E+02 -0.32180122091E+02  0.89150029621E+02  0.98470342370E+02  0.00000000000E+00 0. -1.
         11    1    3    3    0    0  0.26704312149E+02  0.32180122091E+02  0.17728568555E+03  0.18215074759E+03  0.00000000000E+00 0.  1.
<mgrwt>
<rscale>  0 0.88092030E+02</rscale>
<asrwt>0</asrwt>
<pdfrwt beam="1">  1        2 0.42081284E-01 0.88092030E+02</pdfrwt>
<pdfrwt beam="2">  1       -2 0.10911829E-02 0.88092030E+02</pdfrwt>
<totfact> 0.19025870E+05</totfact>
</mgrwt>
</event>
<event>
 5    1  0.1197825E+001  0.8705912E+02  0.7546771E-02  0.1310134E+00
          1   -1    0    0  501    0  0.00000000000E+00  0.00000000000E+00  0.12534101744E+02  0.12534101744E+02  0.00000000000E+00 0. -1.
         -1   -1    0    0    0  501 -0.00000000000E+00 -0.00000000000E+00 -0.15117339653E+03  0.15117339653E+03  0.00000000000E+00 0.  1.
         23    2    1    2    0    0  0.00000000000E+00  0.00000000000E+00 -0.13863929478E+03  0.16370749827E+03  0.87059123198E+02 0.  0.
        -11    1    3    3    0    0  0.30046766509E+02  0.31376129213E+02 -0.64151724018E+02  0.77477179585E+02  0.00000000000E+00 0. -1.
         11    1    3    3    0    0 -0.30046766509E+02 -0.31376129213E+02 -0.74487570764E+02  0.86230318684E+02  0.00000000000E+00 0.  1.
<mgrwt>
<rscale>  0 0.87059123E+02</rscale>
<asrwt>0</asrwt>
<pdfrwt beam="1">  1        1 0.19283233E-02 0.87059123E+02</pdfrwt>
<pdfrwt beam="2">  1       -1 0.23257446E-01 0.87059123E+02</pdfrwt>
<totfact> 0.84146437E+04</totfact>
</mgrwt>
</event>
<event>
 5    1  0.1197825E+001  0.9151310E+02  0.7546771E-02  0.1299228E+00
         -1   -1    0    0    0  501 -0.00000000000E+00  0.00000000000E+00  0.12950601434E+03  0.12950601434E+03  0.00000000000E+00 0.  1.
          1   -1    0    0  501    0  0.00000000000E+00 -0.00000000000E+00 -0.16166522094E+02  0.16166522094E+02  0.00000000000E+00 0. -1.
         23    2    1    2    0    0  0.00000000000E+00  0.00000000000E+00  0.11333949225E+03  0.14567253643E+03  0.91513099438E+02 0.  0.
        -11    1    3    3    0    0 -0.42675375939E+02 -0.12693514744E+02  0.39872533661E+02  0.59767315220E+02  0.00000000000E+00 0.  1.
         11    1    3    3    0    0  0.42675375939E+02  0.12693514744E+02  0.73466958586E+02  0.85905221215E+02  0.00000000000E+00 0. -1.
<mgrwt>
<rscale>  0 0.91513099E+02</rscale>
<asrwt>0</asrwt>
<pdfrwt beam="2">  1        1 0.24871573E-02 0.91513099E+02</pdfrwt>
<pdfrwt beam="1">  1       -1 0.19924002E-01 0.91513099E+02</pdfrwt>
<totfact> 0.76553929E+04</totfact>
</mgrwt>
</event>
<event>
 5    1  0.1197825E+001  0.9047449E+02  0.7546771E-02  0.1301707E+00
         -2   -1    0    0    0  501 -0.00000000000E+00  0.00000000000E+00  0.28574399086E+02  0.28574399086E+02  0.00000000000E+00 0.  1.
          2   -1    0    0  501    0  0.00000000000E+00 -0.00000000000E+00 -0.71616851067E+02  0.71616851067E+02  0.00000000000E+00 0. -1.
         23    2    1    2    0    0  0.00000000000E+00  0.00000000000E+00 -0.43042451981E+02  0.10019125015E+03  0.90474493282E+02 0.  0.
        -13    1    3    3    0    0  0.17100187596E+01  0.45012928909E+02 -0.26129990128E+02  0.52075563532E+02  0.00000000000E+00 0.  1.
         13    1    3    3    0    0 -0.17100187596E+01 -0.45012928909E+02 -0.16912461853E+02  0.48115686621E+02  0.00000000000E+00 0. -1.
<mgrwt>
<rscale>  0 0.90474493E+02</rscale>
<asrwt>0</asrwt>
<pdfrwt beam="2">  1        2 0.11017977E-01 0.90474493E+02</pdfrwt>
<pdfrwt beam="1">  1       -2 0.43960614E-02 0.90474493E+02</pdfrwt>
<totfact> 0.11375219E+05</totfact>
</mgrwt>
</event>
<event>
 5    1  0.1197825E+001  0.9264152E+02  0.7546771E-02  0.1296578E+00
         -1   -1    0    0    0  501 -0.00000000000E+00  0.00000000000E+00  0.89129725887E+01  0.89129725887E+01  0.00000000000E+00 0.  1.
          1   -1    0    0  501    0  0.00000000000E+00 -0.00000000000E+00 -0.24072919263E+03  0.24072919263E+03  0.00000000000E+00 0. -1.
         23    2    1    2    0    0  0.00000000000E+00  0.00000000000E+00 -0.23181622004E+03  0.24964216522E+03  0.92641517587E+02 0.  0.
        -13    1    3    3    0    0  0.26345297995E+02 -0.36078935754E+02 -0.14889476533E+03  0.15545229324E+03  0.00000000000E+00 0. -1.
         13    1    3    3    0    0 -0.26345297995E+02  0.36078935754E+02 -0.82921454715E+02  0.94189871980E+02  0.00000000000E+00 0.  1.
<mgrwt>
<rscale>  0 0.92641518E+02</rscale>
<asrwt>0</asrwt>
<pdfrwt beam="2">  1        1 0.37035260E-01 0.92641518E+02</pdfrwt>
<pdfrwt beam="1">  1       -1 0.13712266E-02 0.92641518E+02</pdfrwt>
<totfact> 0.11763491E+05</totfact>
</mgrwt>
</event>
<event>
 5    1  0.1197825E+001  0.8583072E+02  0.7546771E-02  0.1313274E+00
          2   -1    0    0  501    0  0.00000000000E+00  0.00000000000E+00  0.76907997550E+01  0.76907997550E+01  0.00000000000E+00 0. -1.
         -2   -1    0    0    0  501 -0.00000000000E+00 -0.00000000000E+00 -0.23947157792E+03  0.23947157792E+03  0.00000000000E+00 0.  1.
         23    2    1    2    0    0  0.00000000000E+00  0.00000000000E+00 -0.23178077816E+03  0.24716237767E+03  0.85830716012E+02 0.  0.
        -11    1    3    3    0    0  0.35129243402E+02  0.13123509973E+02 -0.55800328620E+02  0.67230699313E+02  0.00000000000E+00 0. -1.
         11    1    3    3    0    0 -0.35129243402E+02 -0.13123509973E+02 -0.17598044954E+03  0.17993167836E+03  0.00000000000E+00 0.  1.
<mgrwt>
<rscale>  0 0.85830716E+02</rscale>
<asrwt>0</asrwt>
<pdfrwt beam="1">  1        2 0.11832001E-02 0.85830716E+02</pdfrwt>
<pdfrwt beam="2">  1       -2 0.36841777E-01 0.85830716E+02</pdfrwt>
<totfact> 0.66976566E+04</totfact>
</mgrwt>
</event>
<event>
 5    1  0.1197825E+001  0.9227415E+02  0.7546771E-02  0.1297436E+00
         -1   -1    0    0    0  501 -0.00000000000E+00  0.00000000000E+00  0.19120578893E+03  0.19120578893E+03  0.00000000000E+00 0.  1.
          1   -1    0    0  501    0  0.00000000000E+00 -0.00000000000E+00 -0.11132663124E+02  0.11132663124E+02  0.00000000000E+00 0. -1.
         23    2    1    2    0    0  0.00000000000E+00  0.00000000000E+00  0.18007312580E+03  0.20233845205E+03  0.92274148829E+02 0.  0.
        -11    1    3    3    0    0  0.90209270367E+01 -0.30210517198E+02  0.16175527058E+02  0.35435859656E+02  0.00000000000E+00 0. -1.
         11    1    3    3    0    0 -0.90209270367E+01  0.30210517198E+02  0.16389759874E+03  0.16690259240E+03  0.00000000000E+00 0.  1.
<mgrwt>
<rscale>  0 0.92274149E+02</rscale>
<asrwt>0</asrwt>
<pdfrwt beam="2">  1        1 0.17127175E-02 0.92274149E+02</pdfrwt>
<pdfrwt beam="1">  1       -1 0.29416273E-01 0.92274149E+02</pdfrwt>
<totfact> 0.68149807E+04</totfact>
</mgrwt>
</event>
<event>
 5    1  0.1197825E+001  0.8681871E+02  0.7546771E-02  0.1310744E+00
         -1   -1    0    0    0  501 -0.00000000000E+00  0.00000000000E+00  0.44628403914E+02  0.44628403914E+02  0.00000000000E+00 0.  1.
          1   -1    0    0  501    0  0.00000000000E+00 -0.00000000000E+00 -0.42223603159E+02  0.42223603159E+02  0.00000000000E+00 0. -1.
         23    2    1    2    0    0  0.00000000000E+00  0.00000000000E+00  0.24048007556E+01  0.86852007073E+02  0.86818708041E+02 0.  0.
        -13    1    3    3    0    0 -0.20411973510E+02 -0.26709246949E+02 -0.26273375156E+02  0.42665240855E+02  0.00000000000E+00 0. -1.
         13    1    3    3    0    0  0.20411973510E+02  0.26709246949E+02  0.28678175912E+02  0.44186766218E+02  0.00000000000E+00 0.  1.
<mgrwt>
<rscale>  0 0.86818708E+02</rscale>
<asrwt>0</asrwt>
<pdfrwt beam="2">  1        1 0.64959389E-02 0.86818708E+02</pdfrwt>
<pdfrwt beam="1">  1       -1 0.68659083E-02 0.86818708E+02</pdfrwt>
<totfact> 0.10486336E+05</totfact>
</mgrwt>
</event>
<event>
 5    1  0.1197825E+001  0.8957471E+02  0.7546771E-02  0.1303885E+00
         -1   -1    0    0    0  501 -0.00000000000E+00  0.00000000000E+00  0.10217110496E+03  0.10217110496E+03  0.00000000000E+00 0.  1.
          1   -1    0    0  501    0  0.00000000000E+00 -0.00000000000E+00 -0.19632822357E+02  0.19632822357E+02  0.00000000000E+00 0. -1.
         23    2    1    2    0    0  0.00000000000E+00  0.00000000000E+00  0.82538282608E+02  0.12180392732E+03  0.89574709684E+02 0.  0.
        -13    1    3    3    0    0 -0.16054558837E+02 -0.24253906444E+02  0.87580480410E+02  0.92284025628E+02  0.00000000000E+00 0.  1.
         13    1    3    3    0    0  0.16054558837E+02  0.24253906444E+02 -0.50421978026E+01  0.29519901693E+02  0.00000000000E+00 0. -1.
<mgrwt>
<rscale>  0 0.89574710E+02</rscale>
<asrwt>0</asrwt>
<pdfrwt beam="2">  1        1 0.30204343E-02 0.89574710E+02</pdfrwt>
<pdfrwt beam="1">  1       -1 0.15718631E-01 0.89574710E+02</pdfrwt>
<totfact> 0.84827713E+04</totfact>
</mgrwt>
</event>
<event>
 5    1  0.1197825E+001  0.9079234E+02  0.7546771E-02  0.1300944E+00
         -2   -1    0    0    0  501 -0.00000000000E+00  0.00000000000E+00  0.88910047322E+01  0.88910047322E+01  0.00000000000E+00 0.  1.
          2   -1    0    0  501    0  0.00000000000E+00 -0.00000000000E+00 -0.23178620141E+03  0.23178620141E+03  0.00000000000E+00 0. -1.
         23    2    1    2    0    0  0.00000000000E+00  0.00000000000E+00 -0.22289519667E+03  0.24067720614E+03  0.90792339183E+02 0.  0.
        -11    1    3    3    0    0 -0.16929778587E+02  0.35438268989E+02 -0.51096333841E+02  0.64446284951E+02  0.00000000000E+00 0.  1.
         11    1    3    3    0    0  0.16929778587E+02 -0.35438268989E+02 -0.17179886283E+03  0.17623092119E+03  0.00000000000E+00 0. -1.
<mgrwt>
<rscale>  0 0.90792339E+02</rscale>
<asrwt>0</asrwt>
<pdfrwt beam="2">  1        2 0.35659419E-01 0.90792339E+02</pdfrwt>
<pdfrwt beam="1">  1       -2 0.13678467E-02 0.90792339E+02</pdfrwt>
<totfact> 0.16509876E+05</totfact>
</mgrwt>
</event>
<event>
 5    1  0.1197825E+001  0.9104732E+02  0.7546771E-02  0.1300335E+00
          2   -1    0    0  501    0  0.00000000000E+00  0.00000000000E+00  0.29701207070E+02  0.29701207070E+02  0.00000000000E+00 0. -1.
         -2   -1    0    0    0  501 -0.00000000000E+00 -0.00000000000E+00 -0.69775059705E+02  0.69775059705E+02  0.00000000000E+00 0.  1.
         23    2    1    2    0    0  0.00000000000E+00  0.00000000000E+00 -0.40073852635E+02  0.99476266775E+02  0.91047317294E+02 0.  0.
        -11    1    3    3    0    0  0.77108211086E+01  0.36121694808E+02 -0.49112015525E+02  0.61450985890E+02  0.00000000000E+00 0.  1.
         11    1    3    3    0    0 -0.77108211086E+01 -0.36121694808E+02  0.90381628894E+01  0.38025280885E+02  0.00000000000E+00 0. -1.
<mgrwt>
<rscale>  0 0.91047317E+02</rscale>
<asrwt>0</asrwt>
<pdfrwt beam="1">  1        2 0.45694165E-02 0.91047317E+02</pdfrwt>
<pdfrwt beam="2">  1       -2 0.10734625E-01 0.91047317E+02</pdfrwt>
<totfact> 0.88603326E+04</totfact>
</mgrwt>
</event>
<event>
 5    1  0.1197825E+001  0.9236321E+02  0.7546771E-02  0.1297228E+00
         -2   -1    0    0    0  501 -0.00000000000E+00  0.00000000000E+00  0.10042701064E+02  0.10042701064E+02  0.00000000000E+00 0.  1.
          2   -1    0    0  501    0  0.00000000000E+00 -0.00000000000E+00 -0.21236721406E+03  0.21236721406E+03  0.00000000000E+00 0. -1.
         23    2    1    2    0    0  0.00000000000E+00  0.00000000000E+00 -0.20232451300E+03  0.22240991513E+03  0.92363205804E+02 0.  0.
        -13    1    3    3    0    0  0.33279308273E+02  0.12723998173E+02 -0.30409551437E+02  0.46841790180E+02  0.00000000000E+00 0.  1.
         13    1    3    3    0    0 -0.33279308273E+02 -0.12723998173E+02 -0.17191496156E+03  0.17556812495E+03  0.00000000000E+00 0. -1.
<mgrwt>
<rscale>  0 0.92363206E+02</rscale>
<asrwt>0</asrwt>
<pdfrwt beam="2">  1        2 0.32671876E-01 0.92363206E+02</pdfrwt>
<pdfrwt beam="1">  1       -2 0.15450311E-02 0.92363206E+02</pdfrwt>
<totfact> 0.15267914E+05</totfact>
</mgrwt>
</event>
<event>
 5    1  0.1197825E+001  0.9072985E+02  0.7546771E-02  0.1301094E+00
          4   -1    0    0  501    0  0.00000000000E+00  0.00000000000E+00  0.37633222872E+03  0.37633222872E+03  0.00000000000E+00 0. -1.
         -4   -1    0    0    0  501 -0.00000000000E+00 -0.00000000000E+00 -0.54685095107E+01  0.54685095107E+01  0.00000000000E+00 0.  1.
         23    2    1    2    0    0  0.00000000000E+00  0.00000000000E+00  0.37086371921E+03  0.38180073823E+03  0.90729848936E+02 0.  0.
        -11    1    3    3    0    0  0.29828729372E+02 -0.31701736749E+02  0.23919411393E+03  0.24312255623E+03  0.00000000000E+00 0. -1.
         11    1    3    3    0    0 -0.29828729372E+02  0.31701736749E+02  0.13166960528E+03  0.13867818200E+03  0.00000000000E+00 0.  1.
<mgrwt>
<rscale>  0 0.90729849E+02</rscale>
<asrwt>0</asrwt>
<pdfrwt beam="1">  1        4 0.57897246E-01 0.90729849E+02</pdfrwt>
<pdfrwt beam="2">  1       -4 0.84130945E-03 0.90729849E+02</pdfrwt>
<totfact> 0.15789290E+04</totfact>
</mgrwt>
</event>
<event>
 5    1  0.1197825E+001  0.9160385E+02  0.7546771E-02  0.1299014E+00
         -2   -1    0    0    0  501 -0.00000000000E+00  0.00000000000E+00  0.61128200853E+02  0.61128200853E+02  0.00000000000E+00 0.  1.
          2   -1    0    0  501    0  0.00000000000E+00 -0.00000000000E+00 -0.34318308468E+02  0.34318308468E+02  0.00000000000E+00 0. -1.
         23    2    1    2    0    0  0.00000000000E+00  0.00000000000E+00  0.26809892385E+02  0.95446509321E+02  0.91603852604E+02 0.  0.
        -11    1    3    3    0    0 -0.16885316229E+02 -0.38761627263E+02  0.31757409614E+02  0.52878263186E+02  0.00000000000E+00 0.  1.
         11    1    3    3    0    0  0.16885316229E+02  0.38761627263E+02 -0.49475172284E+01  0.42568246135E+02  0.00000000000E+00 0. -1.
<mgrwt>
<rscale>  0 0.91603853E+02</rscale>
<asrwt>0</asrwt>
<pdfrwt beam="2">  1        2 0.52797398E-02 0.91603853E+02</pdfrwt>
<pdfrwt beam="1">  1       -2 0.94043386E-02 0.91603853E+02</pdfrwt>
<totfact> 0.90415537E+04</totfact>
</mgrwt>
</event>
<event>
 5    1  0.1197825E+001  0.9168054E+02  0.7546771E-02  0.1298832E+00
         -2   -1    0    0    0  501 -0.00000000000E+00  0.00000000000E+00  0.49242531092E+02  0.49242531092E+02  0.00000000000E+00 0.  1.
          2   -1    0    0  501    0  0.00000000000E+00 -0.00000000000E+00 -0.42673077764E+02  0.42673077764E+02  0.00000000000E+00 0. -1.
         23    2    1    2    0    0  0.00000000000E+00  0.00000000000E+00  0.65694533282E+01  0.91915608856E+02  0.91680540107E+02 0.  0.
        -11    1    3    3    0    0 -0.21762558291E+02  0.39309810429E+01  0.43540746231E+02  0.48835009345E+02  0.00000000000E+00 0.  1.
         11    1    3    3    0    0  0.21762558291E+02 -0.39309810429E+01 -0.36971292903E+02  0.43080599511E+02  0.00000000000E+00 0. -1.
<mgrwt>
<rscale>  0 0.91680540E+02</rscale>
<asrwt>0</asrwt>
<pdfrwt beam="2">  1        2 0.65650889E-02 0.91680540E+02</pdfrwt>
<pdfrwt beam="1">  1       -2 0.75757740E-02 0.91680540E+02</pdfrwt>
<totfact> 0.95468067E+04</totfact>
</mgrwt>
</event>
<event>
 5    1  0.1197825E+001  0.9159341E+02  0.7546771E-02  0.1299038E+00
         -1   -1    0    0    0  501 -0.00000000000E+00  0.00000000000E+00  0.16480714954E+02  0.16480714954E+02  0.00000000000E+00 0.  1.
          1   -1    0    0  501    0  0.00000000000E+00 -0.00000000000E+00 -0.12726014753E+03  0.12726014753E+03  0.00000000000E+00 0. -1.
         23    2    1    2    0    0  0.00000000000E+00  0.00000000000E+00 -0.11077943258E+03  0.14374086248E+03  0.91593410603E+02 0.  0.
        -13    1    3    3    0    0  0.33505757458E+02  0.10130541643E+02 -0.10173364252E+03  0.10758716316E+03  0.00000000000E+00 0. -1.
         13    1    3    3    0    0 -0.33505757458E+02 -0.10130541643E+02 -0.90457900529E+01  0.36153699320E+02  0.00000000000E+00 0.  1.
<mgrwt>
<rscale>  0 0.91593411E+02</rscale>
<asrwt>0</asrwt>
<pdfrwt beam="2">  1        1 0.19578484E-01 0.91593411E+02</pdfrwt>
<pdfrwt beam="1">  1       -1 0.25354946E-02 0.91593411E+02</pdfrwt>
<totfact> 0.10751794E+05</totfact>
</mgrwt>
</event>
<event>
 5    1  0.1197825E+001  0.8458394E+02  0.7546771E-02  0.1316524E+00
          3   -1    0    0  501    0  0.00000000000E+00  0.00000000000E+00  0.25723101771E+02  0.25723101771E+02  0.00000000000E+00 0. -1.
         -3   -1    0    0    0  501 -0.00000000000E+00 -0.00000000000E+00 -0.69533241486E+02  0.69533241486E+02  0.00000000000E+00 0.  1.
         23    2    1    2    0    0  0.00000000000E+00  0.00000000000E+00 -0.43810139715E+02  0.95256343257E+02  0.84583938126E+02 0.  0.
        -11    1    3    3    0    0 -0.17569459686E+02 -0.27776925857E+02 -0.51878414160E+02  0.61413462526E+02  0.00000000000E+00 0.  1.
         11    1    3    3    0    0  0.17569459686E+02  0.27776925857E+02  0.80682744444E+01  0.33842880732E+02  0.00000000000E+00 0. -1.
<mgrwt>
<rscale>  0 0.84583938E+02</rscale>
<asrwt>0</asrwt>
<pdfrwt beam="1">  1        3 0.39574003E-02 0.84583938E+02</pdfrwt>
<pdfrwt beam="2">  1       -3 0.10697422E-01 0.84583938E+02</pdfrwt>
<totfact> 0.42920496E+04</totfact>
</mgrwt>
</event>
<event>
 5    1  0.1197825E+001  0.9085454E+02  0.7546771E-02  0.1300795E+00
         -3   -1    0    0    0  501 -0.00000000000E+00  0.00000000000E+00  0.12205713485E+03  0.12205713485E+03  0.00000000000E+00 0.  1.
          3   -1    0    0  501    0  0.00000000000E+00 -0.00000000000E+00 -0.16907138808E+02  0.16907138808E+02  0.00000000000E+00 0. -1.
         23    2    1    2    0    0  0.00000000000E+00  0.00000000000E+00  0.10514999605E+03  0.13896427366E+03  0.90854541361E+02 0.  0.
        -13    1    3    3    0    0  0.97854496845E+01  0.30426605595E+02  0.31994461461E+01  0.32121173845E+02  0.00000000000E+00 0. -1.
         13    1    3    3    0    0 -0.97854496845E+01 -0.30426605595E+02  0.10195054990E+03  0.10684309982E+03  0.00000000000E+00 0.  1.
<mgrwt>
<rscale>  0 0.90854541E+02</rscale>
<asrwt>0</asrwt>
<pdfrwt beam="2">  1        3 0.26010984E-02 0.90854541E+02</pdfrwt>
<pdfrwt beam="1">  1       -3 0.18778020E-01 0.90854541E+02</pdfrwt>
<totfact> 0.32305983E+04</totfact>
</mgrwt>
</event>
<event>
 5    1  0.1197825E+001  0.9403667E+02  0.7546771E-02  0.1293361E+00
          4   -1    0    0  501    0  0.00000000000E+00  0.00000000000E+00  0.23142289111E+02  0.23142289111E+02  0.00000000000E+00 0. -1.
         -4   -1    0    0    0  501 -0.00000000000E+00 -0.00000000000E+00 -0.95527438204E+02  0.95527438204E+02  0.00000000000E+00 0.  1.
         23    2    1    2    0    0  0.00000000000E+00  0.00000000000E+00 -0.72385149094E+02  0.11866972731E+03  0.94036665039E+02 0.  0.
        -11    1    3    3    0    0 -0.10066374592E+02 -0.40875204854E+02 -0.62621630806E+02  0.75455834195E+02  0.00000000000E+00 0.  1.
         11    1    3    3    0    0  0.10066374592E+02  0.40875204854E+02 -0.97635182880E+01  0.43213893120E+02  0.00000000000E+00 0. -1.
<mgrwt>
<rscale>  0 0.94036665E+02</rscale>
<asrwt>0</asrwt>
<pdfrwt beam="1">  1        4 0.35603522E-02 0.94036665E+02</pdfrwt>
<pdfrwt beam="2">  1       -4 0.14696529E-01 0.94036665E+02</pdfrwt>
<totfact> 0.23311199E+04</totfact>
</mgrwt>
</event>
<event>
 5    1  0.1197825E+001  0.9078644E+02  0.7546771E-02  0.1300958E+00
          2   -1    0    0  501    0  0.00000000000E+00  0.00000000000E+00  0.23326230706E+03  0.23326230706E+03  0.00000000000E+00 0. -1.
         -2   -1    0    0    0  501 -0.00000000000E+00 -0.00000000000E+00 -0.88335940080E+01  0.88335940080E+01  0.00000000000E+00 0.  1.
         23    2    1    2    0    0  0.00000000000E+00  0.00000000000E+00  0.22442871305E+03  0.24209590107E+03  0.90786442114E+02 0.  0.
        -13    1    3    3    0    0 -0.44213889665E+02  0.83495767231E+01  0.96223099472E+02  0.10622367129E+03  0.00000000000E+00 0.  1.
         13    1    3    3    0    0  0.44213889665E+02 -0.83495767231E+01  0.12820561358E+03  0.13587222977E+03  0.00000000000E+00 0. -1.
<mgrwt>
<rscale>  0 0.90786442E+02</rscale>
<asrwt>0</asrwt>
<pdfrwt beam="1">  1        2 0.35886504E-01 0.90786442E+02</pdfrwt>
<pdfrwt beam="2">  1       -2 0.13590146E-02 0.90786442E+02</pdfrwt>
<totfact> 0.16551351E+05</totfact>
</mgrwt>
</event>
<event>
 5    1  0.1197825E+001  0.9221630E+02  0.7546771E-02  0.1297572E+00
          2   -1    0    0  501    0  0.00000000000E+00  0.00000000000E+00  0.35685301989E+02  0.35685301989E+02  0.00000000000E+00 0. -1.
         -2   -1    0    0    0  501 -0.00000000000E+00 -0.00000000000E+00 -0.59575263832E+02  0.59575263832E+02  0.00000000000E+00 0.  1.
         23    2    1    2    0    0  0.00000000000E+00  0.00000000000E+00 -0.23889961842E+02  0.95260565821E+02  0.92216295326E+02 0.  0.
        -11    1    3    3    0    0  0.36116432694E+02  0.28662785944E+02 -0.11845509188E+02  0.47605336849E+02  0.00000000000E+00 0.  1.
         11    1    3    3    0    0 -0.36116432694E+02 -0.28662785944E+02 -0.12044452654E+02  0.47655228972E+02  0.00000000000E+00 0. -1.
<mgrwt>
<rscale>  0 0.92216295E+02</rscale>
<asrwt>0</asrwt>
<pdfrwt beam="1">  1        2 0.54900465E-02 0.92216295E+02</pdfrwt>
<pdfrwt beam="2">  1       -2 0.91654251E-02 0.92216295E+02</pdfrwt>
<totfact> 0.89579791E+04</totfact>
</mgrwt>
</event>
<event>
 5    1  0.1197825E+001  0.8795069E+02  0.7546771E-02  0.1307892E+00
         -2   -1    0    0    0  501 -0.00000000000E+00  0.00000000000E+00  0.38213817202E+02  0.38213817202E+02  0.00000000000E+00 0.  1.
          2   -1    0    0  501    0  0.00000000000E+00 -0.00000000000E+00 -0.50605537448E+02  0.50605537448E+02  0.00000000000E+00 0. -1.
         23    2    1    2    0    0  0.00000000000E+00  0.00000000000E+00 -0.12391720247E+02  0.88819354650E+02  0.87950685215E+02 0.  0.
        -11    1    3    3    0    0 -0.34595817598E+02 -0.24228364553E+02 -0.18562068824E+02  0.46134961182E+02  0.00000000000E+00 0. -1.
         11    1    3    3    0    0  0.34595817598E+02  0.24228364553E+02  0.61703485770E+01  0.42684393468E+02  0.00000000000E+00 0.  1.
<mgrwt>
<rscale>  0 0.87950685E+02</rscale>
<asrwt>0</asrwt>
<pdfrwt beam="2">  1        2 0.77854673E-02 0.87950685E+02</pdfrwt>
<pdfrwt beam="1">  1       -2 0.58790488E-02 0.87950685E+02</pdfrwt>
<totfact> 0.11230880E+05</totfact>
</mgrwt>
</event>
<event>
 5    1  0.1197825E+001  0.9029848E+02  0.7546771E-02  0.1302130E+00
          1   -1    0    0  501    0  0.00000000000E+00  0.00000000000E+00  0.31908600184E+02  0.31908600184E+02  0.00000000000E+00 0. -1.
         -1   -1    0    0    0  501 -0.00000000000E+00 -0.00000000000E+00 -0.63884153843E+02  0.63884153843E+02  0.00000000000E+00 0.  1.
         23    2    1    2    0    0  0.00000000000E+00  0.00000000000E+00 -0.31975553659E+02  0.95792754027E+02  0.90298481119E+02 0.  0.
        -13    1    3    3    0    0 -0.40027347831E+02  0.58012931201E+01 -0.37273807323E+02  0.55001638963E+02  0.00000000000E+00 0.  1.
         13    1    3    3    0    0  0.40027347831E+02 -0.58012931201E+01  0.52982536644E+01  0.40791115064E+02  0.00000000000E+00 0. -1.
<mgrwt>
<rscale>  0 0.90298481E+02</rscale>
<asrwt>0</asrwt>
<pdfrwt beam="1">  1        1 0.49090155E-02 0.90298481E+02</pdfrwt>
<pdfrwt beam="2">  1       -1 0.98283312E-02 0.90298481E+02</pdfrwt>
<totfact> 0.89997822E+04</totfact>
</mgrwt>
</event>
<event>
 5    1  0.1197825E+001  0.9119759E+02  0.7546771E-02  0.1299977E+00
          1   -1    0    0  501    0  0.00000000000E+00  0.00000000000E+00  0.22025664420E+03  0.22025664420E+03  0.00000000000E+00 0. -1.
         -1   -1    0    0    0  501 -0.00000000000E+00 -0.00000000000E+00 -0.94401236893E+01  0.94401236893E+01  0.00000000000E+00 0.  1.
         23    2    1    2    0    0  0.00000000000E+00  0.00000000000E+00  0.21081652051E+03  0.22969676789E+03  0.91197586912E+02 0.  0.
        -13    1    3    3    0    0  0.44892775983E+02  0.14365200563E+01  0.85604222853E+02  0.96672167119E+02  0.00000000000E+00 0.  1.
         13    1    3    3    0    0 -0.44892775983E+02 -0.14365200563E+01  0.12521229766E+03  0.13302460077E+03  0.00000000000E+00 0. -1.
<mgrwt>
<rscale>  0 0.91197587E+02</rscale>
<asrwt>0</asrwt>
<pdfrwt beam="1">  1        1 0.33885634E-01 0.91197587E+02</pdfrwt>
<pdfrwt beam="2">  1       -1 0.14523269E-02 0.91197587E+02</pdfrwt>
<totfact> 0.12057721E+05</totfact>
</mgrwt>
</event>
<event>
 5    1  0.1197825E+001  0.9259756E+02  0.7546771E-02  0.1296681E+00
          2   -1    0    0  501    0  0.00000000000E+00  0.00000000000E+00  0.17289940403E+02  0.17289940403E+02  0.00000000000E+00 0. -1.
         -2   -1    0    0    0  501 -0.00000000000E+00 -0.00000000000E+00 -0.12397827119E+03  0.12397827119E+03  0.00000000000E+00 0.  1.
         23    2    1    2    0    0  0.00000000000E+00  0.00000000000E+00 -0.10668833079E+03  0.14126821159E+03  0.92597557638E+02 0.  0.
        -13    1    3    3    0    0  0.32362520569E+02 -0.16613376493E+02 -0.96508135362E+01  0.37636089303E+02  0.00000000000E+00 0. -1.
         13    1    3    3    0    0 -0.32362520569E+02  0.16613376493E+02 -0.97037517251E+02  0.10363212229E+03  0.00000000000E+00 0.  1.
<mgrwt>
<rscale>  0 0.92597558E+02</rscale>
<asrwt>0</asrwt>
<pdfrwt beam="1">  1        2 0.26599909E-02 0.92597558E+02</pdfrwt>
<pdfrwt beam="2">  1       -2 0.19073580E-01 0.92597558E+02</pdfrwt>
<totfact> 0.71771763E+04</totfact>
</mgrwt>
</event>
<event>
 5    1  0.1197825E+001  0.8827795E+02  0.7546771E-02  0.1307076E+00
         -2   -1    0    0    0  501 -0.00000000000E+00  0.00000000000E+00  0.23809811875E+02  0.23809811875E+02  0.00000000000E+00 0.  1.
          2   -1    0    0  501    0  0.00000000000E+00 -0.00000000000E+00 -0.81825467721E+02  0.81825467721E+02  0.00000000000E+00 0. -1.
         23    2    1    2    0    0  0.00000000000E+00  0.00000000000E+00 -0.58015655846E+02  0.10563527960E+03  0.88277947258E+02 0.  0.
        -13    1    3    3    0    0  0.18555673596E+02 -0.49441130392E+01 -0.76564935898E+02  0.78936345782E+02  0.00000000000E+00 0. -1.
         13    1    3    3    0    0 -0.18555673596E+02  0.49441130392E+01  0.18549280053E+02  0.26698933814E+02  0.00000000000E+00 0.  1.
<mgrwt>
<rscale>  0 0.88277947E+02</rscale>
<asrwt>0</asrwt>
<pdfrwt beam="2">  1        2 0.12588534E-01 0.88277947E+02</pdfrwt>
<pdfrwt beam="1">  1       -2 0.36630479E-02 0.88277947E+02</pdfrwt>
<totfact> 0.12641314E+05</totfact>
</mgrwt>
</event>
<event>
 5    1  0.1197825E+001  0.9170896E+02  0.7546771E-02  0.1298765E+00
         -1   -1    0    0    0  501 -0.00000000000E+00  0.00000000000E+00  0.93183974107E+01  0.93183974107E+01  0.00000000000E+00 0. -1.
          1   -1    0    0  501    0  0.00000000000E+00 -0.00000000000E+00 -0.22564322188E+03  0.22564322188E+03  0.00000000000E+00 0.  1.
         23    2    1    2    0    0  0.00000000000E+00  0.00000000000E+00 -0.21632482447E+03  0.23496161929E+03  0.91708957349E+02 0.  0.
        -13    1    3    3    0    0  0.45528416906E+01  0.40970333306E+02 -0.56708428314E+02  0.70108076714E+02  0.00000000000E+00 0. -1.
         13    1    3    3    0    0 -0.45528416906E+01 -0.40970333306E+02 -0.15961639615E+03  0.16485354258E+03  0.00000000000E+00 0.  1.
<mgrwt>
<rscale>  0 0.91708957E+02</rscale>
<asrwt>0</asrwt>
<pdfrwt beam="2">  1        1 0.34714343E-01 0.91708957E+02</pdfrwt>
<pdfrwt beam="1">  1       -1 0.14335996E-02 0.91708957E+02</pdfrwt>
<totfact> 0.11934612E+05</totfact>
</mgrwt>
</event>
<event>
 5    1  0.1197825E+001  0.9057597E+02  0.7546771E-02  0.1301463E+00
          2   -1    0    0  501    0  0.00000000000E+00  0.00000000000E+00  0.14937237785E+02  0.14937237785E+02  0.00000000000E+00 0. -1.
         -2   -1    0    0    0  501 -0.00000000000E+00 -0.00000000000E+00 -0.13730796153E+03  0.13730796153E+03  0.00000000000E+00 0.  1.
         23    2    1    2    0    0  0.00000000000E+00  0.00000000000E+00 -0.12237072375E+03  0.15224519932E+03  0.90575971897E+02 0.  0.
        -11    1    3    3    0    0  0.37691492987E+02 -0.21975898861E+02 -0.81593263158E+02  0.92525938888E+02  0.00000000000E+00 0.  1.
         11    1    3    3    0    0 -0.37691492987E+02  0.21975898861E+02 -0.40777460591E+02  0.59719260432E+02  0.00000000000E+00 0. -1.
<mgrwt>
<rscale>  0 0.90575972E+02</rscale>
<asrwt>0</asrwt>
<pdfrwt beam="1">  1        2 0.22980366E-02 0.90575972E+02</pdfrwt>
<pdfrwt beam="2">  1       -2 0.21124302E-01 0.90575972E+02</pdfrwt>
<totfact> 0.73298523E+04</totfact>
</mgrwt>
</event>
<event>
 5    1  0.1197825E+001  0.9492685E+02  0.7546771E-02  0.1291341E+00
          3   -1    0    0  501    0  0.00000000000E+00  0.00000000000E+00  0.13021575910E+03  0.13021575910E+03  0.00000000000E+00 0. -1.
         -3   -1    0    0    0  501 -0.00000000000E+00 -0.00000000000E+00 -0.17300338578E+02  0.17300338578E+02  0.00000000000E+00 0.  1.
         23    2    1    2    0    0  0.00000000000E+00  0.00000000000E+00  0.11291542053E+03  0.14751609768E+03  0.94926850167E+02 0.  0.
        -13    1    3    3    0    0 -0.71516365095E+01  0.45051024744E+02  0.36075090889E+02  0.58156280124E+02  0.00000000000E+00 0.  1.
         13    1    3    3    0    0  0.71516365095E+01 -0.45051024744E+02  0.76840329636E+02  0.89359817557E+02  0.00000000000E+00 0. -1.
<mgrwt>
<rscale>  0 0.94926850E+02</rscale>
<asrwt>0</asrwt>
<pdfrwt beam="1">  1        3 0.20033193E-01 0.94926850E+02</pdfrwt>
<pdfrwt beam="2">  1       -3 0.26615906E-02 0.94926850E+02</pdfrwt>
<totfact> 0.28194407E+04</totfact>
</mgrwt>
</event>
<event>
 5    1  0.1197825E+001  0.8424836E+02  0.7546771E-02  0.1317410E+00
         -3   -1    0    0    0  501 -0.00000000000E+00  0.00000000000E+00  0.11279459457E+03  0.11279459457E+03  0.00000000000E+00 0.  1.
          3   -1    0    0  501    0  0.00000000000E+00 -0.00000000000E+00 -0.15731661178E+02  0.15731661178E+02  0.00000000000E+00 0. -1.
         23    2    1    2    0    0  0.00000000000E+00  0.00000000000E+00  0.97062933393E+02  0.12852625575E+03  0.84248355342E+02 0.  0.
        -11    1    3    3    0    0  0.12516909439E+02 -0.34914373332E+02  0.78995411529E+02  0.87269476507E+02  0.00000000000E+00 0.  1.
         11    1    3    3    0    0 -0.12516909439E+02  0.34914373332E+02  0.18067521863E+02  0.41256779241E+02  0.00000000000E+00 0. -1.
<mgrwt>
<rscale>  0 0.84248355E+02</rscale>
<asrwt>0</asrwt>
<pdfrwt beam="2">  1        3 0.24202556E-02 0.84248355E+02</pdfrwt>
<pdfrwt beam="1">  1       -3 0.17353014E-01 0.84248355E+02</pdfrwt>
<totfact> 0.40437447E+04</totfact>
</mgrwt>
</event>
<event>
 5    1  0.1197825E+001  0.9591744E+02  0.7546771E-02  0.1289123E+00
          3   -1    0    0  501    0  0.00000000000E+00  0.00000000000E+00  0.31188328039E+02  0.31188328039E+02  0.00000000000E+00 0. -1.
         -3   -1    0    0    0  501 -0.00000000000E+00 -0.00000000000E+00 -0.73746779388E+02  0.73746779388E+02  0.00000000000E+00 0.  1.
         23    2    1    2    0    0  0.00000000000E+00  0.00000000000E+00 -0.42558451349E+02  0.10493510743E+03  0.95917438402E+02 0.  0.
        -11    1    3    3    0    0  0.14578119273E+02 -0.68197399042E+01 -0.70704106247E+02  0.72512764767E+02  0.00000000000E+00 0.  1.
         11    1    3    3    0    0 -0.14578119273E+02  0.68197399042E+01  0.28145654899E+02  0.32422342660E+02  0.00000000000E+00 0. -1.
<mgrwt>
<rscale>  0 0.95917438E+02</rscale>
<asrwt>0</asrwt>
<pdfrwt beam="1">  1        3 0.47982043E-02 0.95917438E+02</pdfrwt>
<pdfrwt beam="2">  1       -3 0.11345658E-01 0.95917438E+02</pdfrwt>
<totfact> 0.29872627E+04</totfact>
</mgrwt>
</event>
<event>
 5    1  0.1197825E+001  0.9136792E+02  0.7546771E-02  0.1299572E+00
          1   -1    0    0  501    0  0.00000000000E+00  0.00000000000E+00  0.13268458883E+03  0.13268458883E+03  0.00000000000E+00 0. -1.
         -1   -1    0    0    0  501 -0.00000000000E+00 -0.00000000000E+00 -0.15729214965E+02  0.15729214965E+02  0.00000000000E+00 0.  1.
         23    2    1    2    0    0  0.00000000000E+00  0.00000000000E+00  0.11695537387E+03  0.14841380380E+03  0.91367924795E+02 0.  0.
        -13    1    3    3    0    0 -0.17094049560E+02  0.19642201843E+02 -0.24951368283E+01  0.26158140825E+02  0.00000000000E+00 0.  1.
         13    1    3    3    0    0  0.17094049560E+02 -0.19642201843E+02  0.11945051070E+03  0.12225566298E+03  0.00000000000E+00 0. -1.
<mgrwt>
<rscale>  0 0.91367925E+02</rscale>
<asrwt>0</asrwt>
<pdfrwt beam="1">  1        1 0.20413013E-01 0.91367925E+02</pdfrwt>
<pdfrwt beam="2">  1       -1 0.24198793E-02 0.91367925E+02</pdfrwt>
<totfact> 0.10904608E+05</totfact>
</mgrwt>
</event>
<event>
 5    1  0.1197825E+001  0.8431636E+02  0.7546771E-02  0.1317230E+00
         -2   -1    0    0    0  501 -0.00000000000E+00  0.00000000000E+00  0.18182418271E+02  0.18182418271E+02  0.00000000000E+00 0.  1.
          2   -1    0    0  501    0  0.00000000000E+00 -0.00000000000E+00 -0.97748943957E+02  0.97748943957E+02  0.00000000000E+00 0. -1.
         23    2    1    2    0    0  0.00000000000E+00  0.00000000000E+00 -0.79566525687E+02  0.11593136223E+03  0.84316361035E+02 0.  0.
        -13    1    3    3    0    0  0.15384483049E+02 -0.37286424614E+02 -0.22923778999E+02  0.46394605535E+02  0.00000000000E+00 0. -1.
         13    1    3    3    0    0 -0.15384483049E+02  0.37286424614E+02 -0.56642746687E+02  0.69536756693E+02  0.00000000000E+00 0.  1.
<mgrwt>
<rscale>  0 0.84316361E+02</rscale>
<asrwt>0</asrwt>
<pdfrwt beam="2">  1        2 0.15038299E-01 0.84316361E+02</pdfrwt>
<pdfrwt beam="1">  1       -2 0.27972952E-02 0.84316361E+02</pdfrwt>
<totfact> 0.15092663E+05</totfact>
</mgrwt>
</event>
<event>
 5    1  0.1197825E+001  0.9148445E+02  0.7546771E-02  0.1299296E+00
         -2   -1    0    0    0  501 -0.00000000000E+00  0.00000000000E+00  0.13676352512E+02  0.13676352512E+02  0.00000000000E+00 0.  1.
          2   -1    0    0  501    0  0.00000000000E+00 -0.00000000000E+00 -0.15299042698E+03  0.15299042698E+03  0.00000000000E+00 0. -1.
         23    2    1    2    0    0  0.00000000000E+00  0.00000000000E+00 -0.13931407447E+03  0.16666677950E+03  0.91484446993E+02 0.  0.
        -13    1    3    3    0    0  0.10830554262E+02 -0.31961327084E+02 -0.12591286468E+03  0.13035672912E+03  0.00000000000E+00 0. -1.
         13    1    3    3    0    0 -0.10830554262E+02  0.31961327084E+02 -0.13401209793E+02  0.36310050378E+02  0.00000000000E+00 0.  1.
<mgrwt>
<rscale>  0 0.91484447E+02</rscale>
<asrwt>0</asrwt>
<pdfrwt beam="2">  1        2 0.23536990E-01 0.91484447E+02</pdfrwt>
<pdfrwt beam="1">  1       -2 0.21040542E-02 0.91484447E+02</pdfrwt>
<totfact> 0.13947234E+05</totfact>
</mgrwt>
</event>
<event>
 5    1  0.1197825E+001  0.8599047E+02  0.7546771E-02  0.1312862E+00
          3   -1    0    0  501    0  0.00000000000E+00  0.00000000000E+00  0.37546635918E+02  0.37546635918E+02  0.00000000000E+00 0. -1.
         -3   -1    0    0    0  501 -0.00000000000E+00 -0.00000000000E+00 -0.49234515958E+02  0.49234515958E+02  0.00000000000E+00 0.  1.
         23    2    1    2    0    0  0.00000000000E+00  0.00000000000E+00 -0.11687880040E+02  0.86781151876E+02  0.85990474944E+02 0.  0.
        -11    1    3    3    0    0  0.18902787726E+02 -0.33375893847E+02  0.13759519558E+02  0.40750338064E+02  0.00000000000E+00 0. -1.
         11    1    3    3    0    0 -0.18902787726E+02  0.33375893847E+02 -0.25447399598E+02  0.46030813812E+02  0.00000000000E+00 0.  1.
<mgrwt>
<rscale>  0 0.85990475E+02</rscale>
<asrwt>0</asrwt>
<pdfrwt beam="1">  1        3 0.57764055E-02 0.85990475E+02</pdfrwt>
<pdfrwt beam="2">  1       -3 0.75745409E-02 0.85990475E+02</pdfrwt>
<totfact> 0.41824348E+04</totfact>
</mgrwt>
</event>
<event>
 5    1  0.1197825E+001  0.9089447E+02  0.7546771E-02  0.1300700E+00
          1   -1    0    0  501    0  0.00000000000E+00  0.00000000000E+00  0.12345229135E+03  0.12345229135E+03  0.00000000000E+00 0. -1.
         -1   -1    0    0    0  501 -0.00000000000E+00 -0.00000000000E+00 -0.16730763641E+02  0.16730763641E+02  0.00000000000E+00 0.  1.
         23    2    1    2    0    0  0.00000000000E+00  0.00000000000E+00  0.10672152771E+03  0.14018305499E+03  0.90894468645E+02 0.  0.
        -13    1    3    3    0    0  0.33326923595E+02  0.13981411419E+02  0.95858046697E+02  0.10244475984E+03  0.00000000000E+00 0. -1.
         13    1    3    3    0    0 -0.33326923595E+02 -0.13981411419E+02  0.10863481017E+02  0.37738295157E+02  0.00000000000E+00 0.  1.
<mgrwt>
<rscale>  0 0.90894469E+02</rscale>
<asrwt>0</asrwt>
<pdfrwt beam="1">  1        1 0.18992660E-01 0.90894469E+02</pdfrwt>
<pdfrwt beam="2">  1       -1 0.25739637E-02 0.90894469E+02</pdfrwt>
<totfact> 0.10918764E+05</totfact>
</mgrwt>
</event>
<event>
 5    1  0.1197825E+001  0.9172950E+02  0.7546771E-02  0.1298717E+00
         -2   -1    0    0    0  501 -0.00000000000E+00  0.00000000000E+00  0.22780944678E+02  0.22780944678E+02  0.00000000000E+00 0. -1.
          2   -1    0    0  501    0  0.00000000000E+00 -0.00000000000E+00 -0.92339246389E+02  0.92339246389E+02  0.00000000000E+00 0.  1.
         23    2    1    2    0    0  0.00000000000E+00  0.00000000000E+00 -0.69558301711E+02  0.11512019107E+03  0.91729499369E+02 0.  0.
        -13    1    3    3    0    0 -0.10002495730E+02  0.23296115342E+02 -0.82745900375E+02  0.86542723205E+02  0.00000000000E+00 0.  1.
         13    1    3    3    0    0  0.10002495730E+02 -0.23296115342E+02  0.13187598665E+02  0.28577467862E+02  0.00000000000E+00 0. -1.
<mgrwt>
<rscale>  0 0.91729499E+02</rscale>
<asrwt>0</asrwt>
<pdfrwt beam="2">  1        2 0.14206038E-01 0.91729499E+02</pdfrwt>
<pdfrwt beam="1">  1       -2 0.35047607E-02 0.91729499E+02</pdfrwt>
<totfact> 0.11778175E+05</totfact>
</mgrwt>
</event>
<event>
 5    1  0.1197825E+001  0.9143468E+02  0.7546771E-02  0.1299414E+00
         -1   -1    0    0    0  501 -0.00000000000E+00  0.00000000000E+00  0.42404704688E+02  0.42404704688E+02  0.00000000000E+00 0.  1.
          1   -1    0    0  501    0  0.00000000000E+00 -0.00000000000E+00 -0.49288753344E+02  0.49288753344E+02  0.00000000000E+00 0. -1.
         23    2    1    2    0    0  0.00000000000E+00  0.00000000000E+00 -0.68840486564E+01  0.91693458032E+02  0.91434676792E+02 0.  0.
        -13    1    3    3    0    0  0.42257269218E+00  0.21400833321E+02  0.37069099814E+02  0.42805284668E+02  0.00000000000E+00 0.  1.
         13    1    3    3    0    0 -0.42257269218E+00 -0.21400833321E+02 -0.43953148470E+02  0.48888173365E+02  0.00000000000E+00 0. -1.
<mgrwt>
<rscale>  0 0.91434677E+02</rscale>
<asrwt>0</asrwt>
<pdfrwt beam="2">  1        1 0.75828851E-02 0.91434677E+02</pdfrwt>
<pdfrwt beam="1">  1       -1 0.65238007E-02 0.91434677E+02</pdfrwt>
<totfact> 0.92825504E+04</totfact>
</mgrwt>
</event>
<event>
 5    1  0.1197825E+001  0.9580261E+02  0.7546771E-02  0.1289379E+00
          1   -1    0    0  501    0  0.00000000000E+00  0.00000000000E+00  0.24168245135E+02  0.24168245135E+02  0.00000000000E+00 0. -1.
         -1   -1    0    0    0  501 -0.00000000000E+00 -0.00000000000E+00 -0.94940076878E+02  0.94940076878E+02  0.00000000000E+00 0.  1.
         23    2    1    2    0    0  0.00000000000E+00  0.00000000000E+00 -0.70771831743E+02  0.11910832201E+03  0.95802610635E+02 0.  0.
        -13    1    3    3    0    0  0.64781154912E+01 -0.37991499856E+02 -0.70752794119E+02  0.80568467264E+02  0.00000000000E+00 0.  1.
         13    1    3    3    0    0 -0.64781154912E+01  0.37991499856E+02 -0.19037623998E-01  0.38539854749E+02  0.00000000000E+00 0. -1.
<mgrwt>
<rscale>  0 0.95802611E+02</rscale>
<asrwt>0</asrwt>
<pdfrwt beam="1">  1        1 0.37181916E-02 0.95802611E+02</pdfrwt>
<pdfrwt beam="2">  1       -1 0.14606166E-01 0.95802611E+02</pdfrwt>
<totfact> 0.72318349E+04</totfact>
</mgrwt>
</event>
<event>
 5    1  0.1197825E+001  0.8628937E+02  0.7546771E-02  0.1312095E+00
         -3   -1    0    0    0  501 -0.00000000000E+00  0.00000000000E+00  0.26602733167E+02  0.26602733167E+02  0.00000000000E+00 0.  1.
          3   -1    0    0  501    0  0.00000000000E+00 -0.00000000000E+00 -0.69972657607E+02  0.69972657607E+02  0.00000000000E+00 0. -1.
         23    2    1    2    0    0  0.00000000000E+00  0.00000000000E+00 -0.43369924440E+02  0.96575390774E+02  0.86289372215E+02 0.  0.
        -11    1    3    3    0    0 -0.33142499040E+02  0.16476348131E+02 -0.46499217922E+02  0.59431242270E+02  0.00000000000E+00 0. -1.
         11    1    3    3    0    0  0.33142499040E+02 -0.16476348131E+02  0.31292934817E+01  0.37144148504E+02  0.00000000000E+00 0.  1.
<mgrwt>
<rscale>  0 0.86289372E+02</rscale>
<asrwt>0</asrwt>
<pdfrwt beam="2">  1        3 0.10765024E-01 0.86289372E+02</pdfrwt>
<pdfrwt beam="1">  1       -3 0.40927282E-02 0.86289372E+02</pdfrwt>
<totfact> 0.40550992E+04</totfact>
</mgrwt>
</event>
<event>
 5    1  0.1197825E+001  0.9127152E+02  0.7546771E-02  0.1299801E+00
          2   -1    0    0  501    0  0.00000000000E+00  0.00000000000E+00  0.28374472813E+02  0.28374472813E+02  0.00000000000E+00 0. -1.
         -2   -1    0    0    0  501 -0.00000000000E+00 -0.00000000000E+00 -0.73397759390E+02  0.73397759390E+02  0.00000000000E+00 0.  1.
         23    2    1    2    0    0  0.00000000000E+00  0.00000000000E+00 -0.45023286577E+02  0.10177223220E+03  0.91271523015E+02 0.  0.
        -11    1    3    3    0    0 -0.21996949749E+02  0.33876452071E+02 -0.46195426559E+02  0.61363647529E+02  0.00000000000E+00 0.  1.
         11    1    3    3    0    0  0.21996949749E+02 -0.33876452071E+02  0.11721399820E+01  0.40408584674E+02  0.00000000000E+00 0. -1.
<mgrwt>
<rscale>  0 0.91271523E+02</rscale>
<asrwt>0</asrwt>
<pdfrwt beam="1">  1        2 0.43653035E-02 0.91271523E+02</pdfrwt>
<pdfrwt beam="2">  1       -2 0.11291963E-01 0.91271523E+02</pdfrwt>
<totfact> 0.86882926E+04</totfact>
</mgrwt>
</event>
<event>
 5    1  0.1197825E+001  0.9000763E+02  0.7546771E-02  0.1302833E+00
          3   -1    0    0  501    0  0.00000000000E+00  0.00000000000E+00  0.18143413690E+02  0.18143413690E+02  0.00000000000E+00 0. -1.
         -3   -1    0    0    0  501 -0.00000000000E+00 -0.00000000000E+00 -0.11162967724E+03  0.11162967724E+03  0.00000000000E+00 0.  1.
         23    2    1    2    0    0  0.00000000000E+00  0.00000000000E+00 -0.93486263547E+02  0.12977309093E+03  0.90007631102E+02 0.  0.
        -11    1    3    3    0    0  0.70209810694E+01  0.29423227840E+02  0.12998513414E+01  0.30277221227E+02  0.00000000000E+00 0. -1.
         11    1    3    3    0    0 -0.70209810694E+01 -0.29423227840E+02 -0.94786114889E+02  0.99495869700E+02  0.00000000000E+00 0.  1.
<mgrwt>
<rscale>  0 0.90007631E+02</rscale>
<asrwt>0</asrwt>
<pdfrwt beam="1">  1        3 0.27912945E-02 0.90007631E+02</pdfrwt>
<pdfrwt beam="2">  1       -3 0.17173796E-01 0.90007631E+02</pdfrwt>
<totfact> 0.33751363E+04</totfact>
</mgrwt>
</event>
<event>
 5    1  0.1197825E+001  0.9093076E+02  0.7546771E-02  0.1300613E+00
         -2   -1    0    0    0  501 -0.00000000000E+00  0.00000000000E+00  0.25188965052E+02  0.25188965052E+02  0.00000000000E+00 0.  1.
          2   -1    0    0  501    0  0.00000000000E+00 -0.00000000000E+00 -0.82063744063E+02  0.82063744063E+02  0.00000000000E+00 0. -1.
         23    2    1    2    0    0  0.00000000000E+00  0.00000000000E+00 -0.56874779011E+02  0.10725270912E+03  0.90930760059E+02 0.  0.
        -13    1    3    3    0    0  0.17141268444E+02 -0.30718692471E+02 -0.62411038410E+02  0.71642158444E+02  0.00000000000E+00 0. -1.
         13    1    3    3    0    0 -0.17141268444E+02  0.30718692471E+02  0.55362593991E+01  0.35610550671E+02  0.00000000000E+00 0.  1.
<mgrwt>
<rscale>  0 0.90930760E+02</rscale>
<asrwt>0</asrwt>
<pdfrwt beam="2">  1        2 0.12625191E-01 0.90930760E+02</pdfrwt>
<pdfrwt beam="1">  1       -2 0.38752254E-02 0.90930760E+02</pdfrwt>
<totfact> 0.11656960E+05</totfact>
</mgrwt>
</event>
<event>
 5    1  0.1197825E+001  0.7994708E+02  0.7546771E-02  0.1329202E+00
         -2   -1    0    0    0  501 -0.00000000000E+00  0.00000000000E+00  0.12072649027E+02  0.12072649027E+02  0.00000000000E+00 0.  1.
          2   -1    0    0  501    0  0.00000000000E+00 -0.00000000000E+00 -0.13235569785E+03  0.13235569785E+03  0.00000000000E+00 0. -1.
         23    2    1    2    0    0  0.00000000000E+00  0.00000000000E+00 -0.12028304882E+03  0.14442834687E+03  0.79947079667E+02 0.  0.
        -13    1    3    3    0    0  0.31329679419E+02  0.24591575095E+02 -0.53991421995E+02  0.67092235223E+02  0.00000000000E+00 0. -1.
         13    1    3    3    0    0 -0.31329679419E+02 -0.24591575095E+02 -0.66291626823E+02  0.77336111649E+02  0.00000000000E+00 0.  1.
<mgrwt>
<rscale>  0 0.79947080E+02</rscale>
<asrwt>0</asrwt>
<pdfrwt beam="2">  1        2 0.20362416E-01 0.79947080E+02</pdfrwt>
<pdfrwt beam="1">  1       -2 0.18573306E-02 0.79947080E+02</pdfrwt>
<totfact> 0.19118254E+05</totfact>
</mgrwt>
</event>
<event>
 5    1  0.1197825E+001  0.9583428E+02  0.7546771E-02  0.1289308E+00
          4   -1    0    0  501    0  0.00000000000E+00  0.00000000000E+00  0.75604247713E+01  0.75604247713E+01  0.00000000000E+00 0. -1.
         -4   -1    0    0    0  501 -0.00000000000E+00 -0.00000000000E+00 -0.30369355575E+03  0.30369355575E+03  0.00000000000E+00 0.  1.
         23    2    1    2    0    0  0.00000000000E+00  0.00000000000E+00 -0.29613313098E+03  0.31125398052E+03  0.95834279499E+02 0.  0.
        -13    1    3    3    0    0 -0.32485197746E+02 -0.29366184522E+02 -0.21124439039E+03  0.21573560980E+03  0.00000000000E+00 0.  1.
         13    1    3    3    0    0  0.32485197746E+02  0.29366184522E+02 -0.84888740593E+02  0.95518370722E+02  0.00000000000E+00 0. -1.
<mgrwt>
<rscale>  0 0.95834279E+02</rscale>
<asrwt>0</asrwt>
<pdfrwt beam="1">  1        4 0.11631423E-02 0.95834279E+02</pdfrwt>
<pdfrwt beam="2">  1       -4 0.46722083E-01 0.95834279E+02</pdfrwt>
<totfact> 0.15305458E+04</totfact>
</mgrwt>
</event>
<event>
 5    1  0.1197825E+001  0.9169210E+02  0.7546771E-02  0.1298805E+00
         -2   -1    0    0    0  501 -0.00000000000E+00  0.00000000000E+00  0.67180740879E+01  0.67180740879E+01  0.00000000000E+00 0.  1.
          2   -1    0    0  501    0  0.00000000000E+00 -0.00000000000E+00 -0.31286650511E+03  0.31286650511E+03  0.00000000000E+00 0. -1.
         23    2    1    2    0    0  0.00000000000E+00  0.00000000000E+00 -0.30614843102E+03  0.31958457920E+03  0.91692101316E+02 0.  0.
        -13    1    3    3    0    0 -0.62075257303E+01  0.44771840878E+02 -0.17980284609E+03  0.18539718060E+03  0.00000000000E+00 0.  1.
         13    1    3    3    0    0  0.62075257303E+01 -0.44771840878E+02 -0.12634558493E+03  0.13418739860E+03  0.00000000000E+00 0. -1.
<mgrwt>
<rscale>  0 0.91692101E+02</rscale>
<asrwt>0</asrwt>
<pdfrwt beam="2">  1        2 0.48133323E-01 0.91692101E+02</pdfrwt>
<pdfrwt beam="1">  1       -2 0.10335495E-02 0.91692101E+02</pdfrwt>
<totfact> 0.17976396E+05</totfact>
</mgrwt>
</event>
<event>
 5    1  0.1197825E+001  0.9213893E+02  0.7546771E-02  0.1297753E+00
         -2   -1    0    0    0  501 -0.00000000000E+00  0.00000000000E+00  0.66937738205E+01  0.66937738205E+01  0.00000000000E+00 0.  1.
          2   -1    0    0  501    0  0.00000000000E+00 -0.00000000000E+00 -0.31707012235E+03  0.31707012235E+03  0.00000000000E+00 0. -1.
         23    2    1    2    0    0  0.00000000000E+00  0.00000000000E+00 -0.31037634853E+03  0.32376389617E+03  0.92138931712E+02 0.  0.
        -13    1    3    3    0    0 -0.45594188361E+02  0.91290698250E-01 -0.13199736469E+03  0.13965007207E+03  0.00000000000E+00 0. -1.
         13    1    3    3    0    0  0.45594188361E+02 -0.91290698250E-01 -0.17837898384E+03  0.18411382410E+03  0.00000000000E+00 0.  1.
<mgrwt>
<rscale>  0 0.92138932E+02</rscale>
<asrwt>0</asrwt>
<pdfrwt beam="2">  1        2 0.48780011E-01 0.92138932E+02</pdfrwt>
<pdfrwt beam="1">  1       -2 0.10298115E-02 0.92138932E+02</pdfrwt>
<totfact> 0.17832783E+05</totfact>
</mgrwt>
</event>
<event>
 4    1  0.1197825E+001  0.4298745E+02  0.7546771E-02  0.1487311E+00
         -2   -1    0    0    0  501 -0.00000000000E+00  0.00000000000E+00  0.10851300877E+02  0.10851300877E+02  0.00000000000E+00 0.  1.
          2   -1    0    0  501    0  0.00000000000E+00 -0.00000000000E+00 -0.42573722576E+02  0.42573722576E+02  0.00000000000E+00 0. -1.
        -13    1    1    2    0    0 -0.84687427322E+01  0.19746953337E+02 -0.16562601790E+02  0.27128979848E+02  0.00000000000E+00 0. -1.
         13    1    1    2    0    0  0.84687427322E+01 -0.19746953337E+02 -0.15159819910E+02  0.26296043605E+02  0.00000000000E+00 0.  1.
<mgrwt>
<rscale>  0 0.42987453E+02</rscale>
<asrwt>0</asrwt>
<pdfrwt beam="2">  1        2 0.65498034E-02 0.42987453E+02</pdfrwt>
<pdfrwt beam="1">  1       -2 0.16694309E-02 0.42987453E+02</pdfrwt>
<totfact> 0.73281611E+05</totfact>
</mgrwt>
</event>
<event>
 5    1  0.1197825E+001  0.9187591E+02  0.7546771E-02  0.1298371E+00
          1   -1    0    0  501    0  0.00000000000E+00  0.00000000000E+00  0.38008869950E+03  0.38008869950E+03  0.00000000000E+00 0. -1.
         -1   -1    0    0    0  501 -0.00000000000E+00 -0.00000000000E+00 -0.55521139397E+01  0.55521139397E+01  0.00000000000E+00 0.  1.
         23    2    1    2    0    0  0.00000000000E+00  0.00000000000E+00  0.37453658556E+03  0.38564081344E+03  0.91875911246E+02 0.  0.
        -11    1    3    3    0    0 -0.37760902191E+02 -0.22016268373E+02  0.24658319172E+03  0.25042737919E+03  0.00000000000E+00 0.  1.
         11    1    3    3    0    0  0.37760902191E+02  0.22016268373E+02  0.12795339384E+03  0.13521343426E+03  0.00000000000E+00 0. -1.
<mgrwt>
<rscale>  0 0.91875911E+02</rscale>
<asrwt>0</asrwt>
<pdfrwt beam="1">  1        1 0.58475164E-01 0.91875911E+02</pdfrwt>
<pdfrwt beam="2">  1       -1 0.85417167E-03 0.91875911E+02</pdfrwt>
<totfact> 0.13105446E+05</totfact>
</mgrwt>
</event>
<event>
 5    1  0.1197825E+001  0.8821668E+02  0.7546771E-02  0.1307229E+00
         -1   -1    0    0    0  501 -0.00000000000E+00  0.00000000000E+00  0.28509882024E+03  0.28509882024E+03  0.00000000000E+00 0.  1.
          1   -1    0    0  501    0  0.00000000000E+00 -0.00000000000E+00 -0.68241097941E+01  0.68241097941E+01  0.00000000000E+00 0. -1.
         23    2    1    2    0    0  0.00000000000E+00  0.00000000000E+00  0.27827471045E+03  0.29192293003E+03  0.88216679862E+02 0.  0.
        -13    1    3    3    0    0 -0.28742586222E+02 -0.22667483835E+02  0.57702845622E+02  0.68334248214E+02  0.00000000000E+00 0.  1.
         13    1    3    3    0    0  0.28742586222E+02  0.22667483835E+02  0.22057186482E+03  0.22358868182E+03  0.00000000000E+00 0. -1.
<mgrwt>
<rscale>  0 0.88216680E+02</rscale>
<asrwt>0</asrwt>
<pdfrwt beam="2">  1        1 0.10498633E-02 0.88216680E+02</pdfrwt>
<pdfrwt beam="1">  1       -1 0.43861348E-01 0.88216680E+02</pdfrwt>
<totfact> 0.67346341E+04</totfact>
</mgrwt>
</event>
<event>
 5    1  0.1197825E+001  0.8620327E+02  0.7546771E-02  0.1312316E+00
         -1   -1    0    0    0  501 -0.00000000000E+00  0.00000000000E+00  0.64165707475E+01  0.64165707475E+01  0.00000000000E+00 0.  1.
          1   -1    0    0  501    0  0.00000000000E+00 -0.00000000000E+00 -0.28952396582E+03  0.28952396582E+03  0.00000000000E+00 0. -1.
         23    2    1    2    0    0  0.00000000000E+00  0.00000000000E+00 -0.28310739507E+03  0.29594053656E+03  0.86203271626E+02 0.  0.
        -13    1    3    3    0    0 -0.33825303393E+02 -0.22521697938E+02 -0.19087188739E+03  0.19514982814E+03  0.00000000000E+00 0. -1.
         13    1    3    3    0    0  0.33825303393E+02  0.22521697938E+02 -0.92235507683E+02  0.10079070843E+03  0.00000000000E+00 0.  1.
<mgrwt>
<rscale>  0 0.86203272E+02</rscale>
<asrwt>0</asrwt>
<pdfrwt beam="2">  1        1 0.44542148E-01 0.86203272E+02</pdfrwt>
<pdfrwt beam="1">  1       -1 0.98716473E-03 0.86203272E+02</pdfrwt>
<totfact> 0.14770194E+05</totfact>
</mgrwt>
</event>
<event>
 5    1  0.1197825E+001  0.8882114E+02  0.7546771E-02  0.1305732E+00
          1   -1    0    0  501    0  0.00000000000E+00  0.00000000000E+00  0.62345908916E+02  0.62345908916E+02  0.00000000000E+00 0. -1.
         -1   -1    0    0    0  501 -0.00000000000E+00 -0.00000000000E+00 -0.31634772139E+02  0.31634772139E+02  0.00000000000E+00 0.  1.
         23    2    1    2    0    0  0.00000000000E+00  0.00000000000E+00  0.30711136777E+02  0.93980681054E+02  0.88821137627E+02 0.  0.
        -11    1    3    3    0    0 -0.37940408212E+02 -0.11706530070E+02 -0.56943219403E+01  0.40111628288E+02  0.00000000000E+00 0.  1.
         11    1    3    3    0    0  0.37940408212E+02  0.11706530070E+02  0.36405458717E+02  0.53869052767E+02  0.00000000000E+00 0. -1.
<mgrwt>
<rscale>  0 0.88821138E+02</rscale>
<asrwt>0</asrwt>
<pdfrwt beam="1">  1        1 0.95916783E-02 0.88821138E+02</pdfrwt>
<pdfrwt beam="2">  1       -1 0.48668880E-02 0.88821138E+02</pdfrwt>
<totfact> 0.10420113E+05</totfact>
</mgrwt>
</event>
<event>
 4    1  0.1197825E+001  0.1472219E+03  0.7546771E-02  0.1203929E+00
          1   -1    0    0  501    0  0.00000000000E+00  0.00000000000E+00  0.56418429077E+02  0.56418429077E+02  0.00000000000E+00 0. -1.
         -1   -1    0    0    0  501 -0.00000000000E+00 -0.00000000000E+00 -0.96042608281E+02  0.96042608281E+02  0.00000000000E+00 0.  1.
        -11    1    1    2    0    0  0.10568590229E+02 -0.27685619301E+02 -0.89592371852E+02  0.94366210635E+02  0.00000000000E+00 0.  1.
         11    1    1    2    0    0 -0.10568590229E+02  0.27685619301E+02  0.49968192648E+02  0.58094826723E+02  0.00000000000E+00 0. -1.
<mgrwt>
<rscale>  0 0.14722192E+03</rscale>
<asrwt>0</asrwt>
<pdfrwt beam="1">  1        1 0.86797585E-02 0.14722192E+03</pdfrwt>
<pdfrwt beam="2">  1       -1 0.14775786E-01 0.14722192E+03</pdfrwt>
<totfact> 0.23807072E+04</totfact>
</mgrwt>
</event>
<event>
 5    1  0.1197825E+001  0.9347442E+02  0.7546771E-02  0.1294650E+00
         -2   -1    0    0    0  501 -0.00000000000E+00  0.00000000000E+00  0.19036235422E+02  0.19036235422E+02  0.00000000000E+00 0.  1.
          2   -1    0    0  501    0  0.00000000000E+00 -0.00000000000E+00 -0.11474783672E+03  0.11474783672E+03  0.00000000000E+00 0. -1.
         23    2    1    2    0    0  0.00000000000E+00  0.00000000000E+00 -0.95711601296E+02  0.13378407214E+03  0.93474420757E+02 0.  0.
        -11    1    3    3    0    0  0.12274668858E+02  0.24926067786E+02 -0.10164424942E+03  0.10537328784E+03  0.00000000000E+00 0. -1.
         11    1    3    3    0    0 -0.12274668858E+02 -0.24926067786E+02  0.59326481203E+01  0.28410784300E+02  0.00000000000E+00 0.  1.
<mgrwt>
<rscale>  0 0.93474421E+02</rscale>
<asrwt>0</asrwt>
<pdfrwt beam="2">  1        2 0.17653513E-01 0.93474421E+02</pdfrwt>
<pdfrwt beam="1">  1       -2 0.29286516E-02 0.93474421E+02</pdfrwt>
<totfact> 0.11957213E+05</totfact>
</mgrwt>
</event>
<event>
 5    1  0.1197825E+001  0.9159114E+02  0.7546771E-02  0.1299044E+00
          2   -1    0    0  501    0  0.00000000000E+00  0.00000000000E+00  0.21342556309E+02  0.21342556309E+02  0.00000000000E+00 0. -1.
         -2   -1    0    0    0  501 -0.00000000000E+00 -0.00000000000E+00 -0.98265372486E+02  0.98265372486E+02  0.00000000000E+00 0.  1.
         23    2    1    2    0    0  0.00000000000E+00  0.00000000000E+00 -0.76922816178E+02  0.11960792880E+03  0.91591140303E+02 0.  0.
        -11    1    3    3    0    0  0.26967935835E+02 -0.19735722510E+02  0.24291237821E+01  0.33506252380E+02  0.00000000000E+00 0. -1.
         11    1    3    3    0    0 -0.26967935835E+02  0.19735722510E+02 -0.79351939960E+02  0.86101676415E+02  0.00000000000E+00 0.  1.
<mgrwt>
<rscale>  0 0.91591140E+02</rscale>
<asrwt>0</asrwt>
<pdfrwt beam="1">  1        2 0.32834702E-02 0.91591140E+02</pdfrwt>
<pdfrwt beam="2">  1       -2 0.15117750E-01 0.91591140E+02</pdfrwt>
<totfact> 0.79322585E+04</totfact>
</mgrwt>
</event>
<event>
 5    1  0.1197825E+001  0.8875891E+02  0.7546771E-02  0.1305885E+00
         -1   -1    0    0    0  501 -0.00000000000E+00  0.00000000000E+00  0.36285954987E+02  0.36285954987E+02  0.00000000000E+00 0.  1.
          1   -1    0    0  501    0  0.00000000000E+00 -0.00000000000E+00 -0.54278196693E+02  0.54278196693E+02  0.00000000000E+00 0. -1.
         23    2    1    2    0    0  0.00000000000E+00  0.00000000000E+00 -0.17992241706E+02  0.90564151680E+02  0.88758913963E+02 0.  0.
        -11    1    3    3    0    0 -0.38676253707E+01 -0.12328561214E+02 -0.52316488166E+02  0.53888467055E+02  0.00000000000E+00 0. -1.
         11    1    3    3    0    0  0.38676253707E+01  0.12328561214E+02  0.34324246460E+02  0.36675684624E+02  0.00000000000E+00 0.  1.
<mgrwt>
<rscale>  0 0.88758914E+02</rscale>
<asrwt>0</asrwt>
<pdfrwt beam="2">  1        1 0.83504918E-02 0.88758914E+02</pdfrwt>
<pdfrwt beam="1">  1       -1 0.55824546E-02 0.88758914E+02</pdfrwt>
<totfact> 0.10228246E+05</totfact>
</mgrwt>
</event>
<event>
 5    1  0.1197825E+001  0.8705538E+02  0.7546771E-02  0.1310143E+00
          3   -1    0    0  501    0  0.00000000000E+00  0.00000000000E+00  0.16167705071E+03  0.16167705071E+03  0.00000000000E+00 0. -1.
         -3   -1    0    0    0  501 -0.00000000000E+00 -0.00000000000E+00 -0.11718791504E+02  0.11718791504E+02  0.00000000000E+00 0.  1.
         23    2    1    2    0    0  0.00000000000E+00  0.00000000000E+00  0.14995825921E+03  0.17339584221E+03  0.87055376588E+02 0.  0.
        -13    1    3    3    0    0 -0.28379249701E+02  0.54984830236E+01  0.10160448585E+02  0.30640656726E+02  0.00000000000E+00 0.  1.
         13    1    3    3    0    0  0.28379249701E+02 -0.54984830236E+01  0.13979781062E+03  0.14275518549E+03  0.00000000000E+00 0. -1.
<mgrwt>
<rscale>  0 0.87055377E+02</rscale>
<asrwt>0</asrwt>
<pdfrwt beam="1">  1        3 0.24873391E-01 0.87055377E+02</pdfrwt>
<pdfrwt beam="2">  1       -3 0.18028911E-02 0.87055377E+02</pdfrwt>
<totfact> 0.33903109E+04</totfact>
</mgrwt>
</event>
<event>
 5    1  0.1197825E+001  0.9069990E+02  0.7546771E-02  0.1301166E+00
          1   -1    0    0  501    0  0.00000000000E+00  0.00000000000E+00  0.25631226647E+02  0.25631226647E+02  0.00000000000E+00 0. -1.
         -1   -1    0    0    0  501 -0.00000000000E+00 -0.00000000000E+00 -0.80238756798E+02  0.80238756798E+02  0.00000000000E+00 0.  1.
         23    2    1    2    0    0  0.00000000000E+00  0.00000000000E+00 -0.54607530151E+02  0.10586998344E+03  0.90699895509E+02 0.  0.
        -11    1    3    3    0    0  0.19403213343E+02 -0.22481633390E+02 -0.67310328746E+02  0.73570298925E+02  0.00000000000E+00 0.  1.
         11    1    3    3    0    0 -0.19403213343E+02  0.22481633390E+02  0.12702798595E+02  0.32299684520E+02  0.00000000000E+00 0. -1.
<mgrwt>
<rscale>  0 0.90699896E+02</rscale>
<asrwt>0</asrwt>
<pdfrwt beam="1">  1        1 0.39432656E-02 0.90699896E+02</pdfrwt>
<pdfrwt beam="2">  1       -1 0.12344424E-01 0.90699896E+02</pdfrwt>
<totfact> 0.85751052E+04</totfact>
</mgrwt>
</event>
<event>
 5    1  0.1197825E+001  0.8993087E+02  0.7546771E-02  0.1303019E+00
          3   -1    0    0  501    0  0.00000000000E+00  0.00000000000E+00  0.39067317173E+02  0.39067317173E+02  0.00000000000E+00 0. -1.
         -3   -1    0    0    0  501 -0.00000000000E+00 -0.00000000000E+00 -0.51754005428E+02  0.51754005428E+02  0.00000000000E+00 0.  1.
         23    2    1    2    0    0  0.00000000000E+00  0.00000000000E+00 -0.12686688255E+02  0.90821322601E+02  0.89930865558E+02 0.  0.
        -11    1    3    3    0    0 -0.29479106225E+02  0.26971116729E+02  0.14486871706E+02  0.42500921087E+02  0.00000000000E+00 0. -1.
         11    1    3    3    0    0  0.29479106225E+02 -0.26971116729E+02 -0.27173559962E+02  0.48320401513E+02  0.00000000000E+00 0.  1.
<mgrwt>
<rscale>  0 0.89930866E+02</rscale>
<asrwt>0</asrwt>
<pdfrwt beam="1">  1        3 0.60103565E-02 0.89930866E+02</pdfrwt>
<pdfrwt beam="2">  1       -3 0.79621546E-02 0.89930866E+02</pdfrwt>
<totfact> 0.36714871E+04</totfact>
</mgrwt>
</event>
<event>
 5    1  0.1197825E+001  0.8531079E+02  0.7546771E-02  0.1314622E+00
         -2   -1    0    0    0  501 -0.00000000000E+00  0.00000000000E+00  0.11413544990E+03  0.11413544990E+03  0.00000000000E+00 0. -1.
          2   -1    0    0  501    0  0.00000000000E+00 -0.00000000000E+00 -0.15941432633E+02  0.15941432633E+02  0.00000000000E+00 0.  1.
         23    2    1    2    0    0  0.00000000000E+00  0.00000000000E+00  0.98194017270E+02  0.13007688254E+03  0.85310786790E+02 0.  0.
        -11    1    3    3    0    0  0.72035906712E+00  0.22256649037E+02 -0.63751941440E+01  0.23162910955E+02  0.00000000000E+00 0.  1.
         11    1    3    3    0    0 -0.72035906712E+00 -0.22256649037E+02  0.10456921141E+03  0.10691397158E+03  0.00000000000E+00 0. -1.
<mgrwt>
<rscale>  0 0.85310787E+02</rscale>
<asrwt>0</asrwt>
<pdfrwt beam="2">  1        2 0.24525282E-02 0.85310787E+02</pdfrwt>
<pdfrwt beam="1">  1       -2 0.17559300E-01 0.85310787E+02</pdfrwt>
<totfact> 0.90509342E+04</totfact>
</mgrwt>
</event>
<event>
 5    1  0.1197825E+001  0.8015564E+02  0.7546771E-02  0.1328610E+00
          1   -1    0    0  501    0  0.00000000000E+00  0.00000000000E+00  0.42106747798E+01  0.42106747798E+01  0.00000000000E+00 0. -1.
         -1   -1    0    0    0  501 -0.00000000000E+00 -0.00000000000E+00 -0.38146652453E+03  0.38146652453E+03  0.00000000000E+00 0.  1.
         23    2    1    2    0    0  0.00000000000E+00  0.00000000000E+00 -0.37725584975E+03  0.38567719931E+03  0.80155635465E+02 0.  0.
        -11    1    3    3    0    0  0.18083775509E+02 -0.35749318490E+02 -0.18336858598E+03  0.18769409962E+03  0.00000000000E+00 0.  1.
         11    1    3    3    0    0 -0.18083775509E+02  0.35749318490E+02 -0.19388726378E+03  0.19798309969E+03  0.00000000000E+00 0. -1.
<mgrwt>
<rscale>  0 0.80155635E+02</rscale>
<asrwt>0</asrwt>
<pdfrwt beam="1">  1        1 0.64779620E-03 0.80155635E+02</pdfrwt>
<pdfrwt beam="2">  1       -1 0.58687150E-01 0.80155635E+02</pdfrwt>
<totfact> 0.76320347E+04</totfact>
</mgrwt>
</event>
<event>
 4    1  0.1197825E+001  0.5291811E+02  0.7546771E-02  0.1430209E+00
          3   -1    0    0  501    0  0.00000000000E+00  0.00000000000E+00  0.63845013053E+01  0.63845013053E+01  0.00000000000E+00 0. -1.
         -3   -1    0    0    0  501 -0.00000000000E+00 -0.00000000000E+00 -0.10965327290E+03  0.10965327290E+03  0.00000000000E+00 0.  1.
        -13    1    1    2    0    0  0.17571726456E+02  0.15484277111E+02 -0.24639751202E+02  0.33994790006E+02  0.00000000000E+00 0. -1.
         13    1    1    2    0    0 -0.17571726456E+02 -0.15484277111E+02 -0.78629020391E+02  0.82042984197E+02  0.00000000000E+00 0.  1.
<mgrwt>
<rscale>  0 0.52918105E+02</rscale>
<asrwt>0</asrwt>
<pdfrwt beam="1">  1        3 0.98223088E-03 0.52918105E+02</pdfrwt>
<pdfrwt beam="2">  1       -3 0.16869736E-01 0.52918105E+02</pdfrwt>
<totfact> 0.13960164E+05</totfact>
</mgrwt>
</event>
<event>
 5    1  0.1197825E+001  0.9247371E+02  0.7546771E-02  0.1296969E+00
         -1   -1    0    0    0  501 -0.00000000000E+00  0.00000000000E+00  0.83799255340E+01  0.83799255340E+01  0.00000000000E+00 0.  1.
          1   -1    0    0  501    0  0.00000000000E+00 -0.00000000000E+00 -0.25511522280E+03  0.25511522280E+03  0.00000000000E+00 0. -1.
         23    2    1    2    0    0  0.00000000000E+00  0.00000000000E+00 -0.24673529727E+03  0.26349514834E+03  0.92473705878E+02 0.  0.
        -13    1    3    3    0    0  0.29523797900E+02 -0.22180236321E+02 -0.44083002831E+02  0.57505901126E+02  0.00000000000E+00 0.  1.
         13    1    3    3    0    0 -0.29523797900E+02  0.22180236321E+02 -0.20265229444E+03  0.20598924721E+03  0.00000000000E+00 0. -1.
<mgrwt>
<rscale>  0 0.92473706E+02</rscale>
<asrwt>0</asrwt>
<pdfrwt beam="2">  1        1 0.39248493E-01 0.92473706E+02</pdfrwt>
<pdfrwt beam="1">  1       -1 0.12892194E-02 0.92473706E+02</pdfrwt>
<totfact> 0.11955604E+05</totfact>
</mgrwt>
</event>
<event>
 5    1  0.1197825E+001  0.9214883E+02  0.7546771E-02  0.1297730E+00
         -1   -1    0    0    0  501 -0.00000000000E+00  0.00000000000E+00  0.40862562372E+02  0.40862562372E+02  0.00000000000E+00 0.  1.
          1   -1    0    0  501    0  0.00000000000E+00 -0.00000000000E+00 -0.51951013512E+02  0.51951013512E+02  0.00000000000E+00 0. -1.
         23    2    1    2    0    0  0.00000000000E+00  0.00000000000E+00 -0.11088451141E+02  0.92813575884E+02  0.92148825927E+02 0.  0.
        -13    1    3    3    0    0 -0.26927630429E+02  0.11688704350E+02  0.30224326409E+02  0.42133513939E+02  0.00000000000E+00 0.  1.
         13    1    3    3    0    0  0.26927630429E+02 -0.11688704350E+02 -0.41312777550E+02  0.50680061946E+02  0.00000000000E+00 0. -1.
<mgrwt>
<rscale>  0 0.92148826E+02</rscale>
<asrwt>0</asrwt>
<pdfrwt beam="2">  1        1 0.79924637E-02 0.92148826E+02</pdfrwt>
<pdfrwt beam="1">  1       -1 0.62865480E-02 0.92148826E+02</pdfrwt>
<totfact> 0.91549602E+04</totfact>
</mgrwt>
</event>
<event>
 5    1  0.1197825E+001  0.9002751E+02  0.7546771E-02  0.1302785E+00
         -2   -1    0    0    0  501 -0.00000000000E+00  0.00000000000E+00  0.32559473498E+02  0.32559473498E+02  0.00000000000E+00 0.  1.
          2   -1    0    0  501    0  0.00000000000E+00 -0.00000000000E+00 -0.62231901766E+02  0.62231901766E+02  0.00000000000E+00 0. -1.
         23    2    1    2    0    0  0.00000000000E+00  0.00000000000E+00 -0.29672428269E+02  0.94791375264E+02  0.90027505936E+02 0.  0.
        -13    1    3    3    0    0 -0.27695109559E+02  0.34258954060E+02 -0.24574570540E+02  0.50444073428E+02  0.00000000000E+00 0. -1.
         13    1    3    3    0    0  0.27695109559E+02 -0.34258954060E+02 -0.50978577285E+01  0.44347301836E+02  0.00000000000E+00 0.  1.
<mgrwt>
<rscale>  0 0.90027506E+02</rscale>
<asrwt>0</asrwt>
<pdfrwt beam="2">  1        2 0.95741387E-02 0.90027506E+02</pdfrwt>
<pdfrwt beam="1">  1       -2 0.50091498E-02 0.90027506E+02</pdfrwt>
<totfact> 0.11100435E+05</totfact>
</mgrwt>
</event>
<event>
 5    1  0.1197825E+001  0.9282992E+02  0.7546771E-02  0.1296140E+00
         -2   -1    0    0    0  501 -0.00000000000E+00  0.00000000000E+00  0.15057675437E+03  0.15057675437E+03  0.00000000000E+00 0. -1.
          2   -1    0    0  501    0  0.00000000000E+00 -0.00000000000E+00 -0.14307312525E+02  0.14307312525E+02  0.00000000000E+00 0.  1.
         23    2    1    2    0    0  0.00000000000E+00  0.00000000000E+00  0.13626944184E+03  0.16488406689E+03  0.92829923705E+02 0.  0.
        -13    1    3    3    0    0 -0.22375106432E+02 -0.17006400129E+02  0.25239434980E+01  0.28217606631E+02  0.00000000000E+00 0.  1.
         13    1    3    3    0    0  0.22375106432E+02  0.17006400129E+02  0.13374549834E+03  0.13666646026E+03  0.00000000000E+00 0. -1.
<mgrwt>
<rscale>  0 0.92829924E+02</rscale>
<asrwt>0</asrwt>
<pdfrwt beam="2">  1        2 0.22011251E-02 0.92829924E+02</pdfrwt>
<pdfrwt beam="1">  1       -2 0.23165653E-01 0.92829924E+02</pdfrwt>
<totfact> 0.66653268E+04</totfact>
</mgrwt>
</event>
<event>
 5    1  0.1197825E+001  0.9600247E+02  0.7546771E-02  0.1288934E+00
         -1   -1    0    0    0  501 -0.00000000000E+00  0.00000000000E+00  0.29588096962E+02  0.29588096962E+02  0.00000000000E+00 0.  1.
          1   -1    0    0  501    0  0.00000000000E+00 -0.00000000000E+00 -0.77873155348E+02  0.77873155348E+02  0.00000000000E+00 0. -1.
         23    2    1    2    0    0  0.00000000000E+00  0.00000000000E+00 -0.48285058386E+02  0.10746125231E+03  0.96002468118E+02 0.  0.
        -13    1    3    3    0    0  0.23675318554E+02 -0.18616331332E+01  0.22551419982E+02  0.32749853889E+02  0.00000000000E+00 0.  1.
         13    1    3    3    0    0 -0.23675318554E+02  0.18616331332E+01 -0.70836478368E+02  0.74711398421E+02  0.00000000000E+00 0. -1.
<mgrwt>
<rscale>  0 0.96002468E+02</rscale>
<asrwt>0</asrwt>
<pdfrwt beam="2">  1        1 0.11980485E-01 0.96002468E+02</pdfrwt>
<pdfrwt beam="1">  1       -1 0.45520149E-02 0.96002468E+02</pdfrwt>
<totfact> 0.87009145E+04</totfact>
</mgrwt>
</event>
<event>
 5    1  0.1197825E+001  0.7227067E+02  0.7546771E-02  0.1352537E+00
         -3   -1    0    0    0  501 -0.00000000000E+00  0.00000000000E+00  0.48412748794E+01  0.48412748794E+01  0.00000000000E+00 0. -1.
          3   -1    0    0  501    0  0.00000000000E+00 -0.00000000000E+00 -0.26971457756E+03  0.26971457756E+03  0.00000000000E+00 0.  1.
         23    2    1    2    0    0  0.00000000000E+00  0.00000000000E+00 -0.26487330268E+03  0.27455585244E+03  0.72270669264E+02 0.  0.
        -13    1    3    3    0    0 -0.34335382939E+02 -0.49524321348E+01 -0.94009059270E+02  0.10020553044E+03  0.00000000000E+00 0.  1.
         13    1    3    3    0    0  0.34335382939E+02  0.49524321348E+01 -0.17086424341E+03  0.17435032200E+03  0.00000000000E+00 0. -1.
<mgrwt>
<rscale>  0 0.72270669E+02</rscale>
<asrwt>0</asrwt>
<pdfrwt beam="2">  1        3 0.41494543E-01 0.72270669E+02</pdfrwt>
<pdfrwt beam="1">  1       -3 0.74481164E-03 0.72270669E+02</pdfrwt>
<totfact> 0.46351510E+04</totfact>
</mgrwt>
</event>
<event>
 5    1  0.1197825E+001  0.9629568E+02  0.7546771E-02  0.1288284E+00
         -4   -1    0    0    0  501 -0.00000000000E+00  0.00000000000E+00  0.28799810575E+02  0.28799810575E+02  0.00000000000E+00 0.  1.
          4   -1    0    0  501    0  0.00000000000E+00 -0.00000000000E+00 -0.80494092406E+02  0.80494092406E+02  0.00000000000E+00 0. -1.
         23    2    1    2    0    0  0.00000000000E+00  0.00000000000E+00 -0.51694281830E+02  0.10929390298E+03  0.96295682431E+02 0.  0.
        -13    1    3    3    0    0  0.20771730703E+02 -0.42826368852E+02 -0.34082761739E+02  0.58542269457E+02  0.00000000000E+00 0.  1.
         13    1    3    3    0    0 -0.20771730703E+02  0.42826368852E+02 -0.17611520092E+02  0.50751633524E+02  0.00000000000E+00 0. -1.
<mgrwt>
<rscale>  0 0.96295682E+02</rscale>
<asrwt>0</asrwt>
<pdfrwt beam="2">  1        4 0.12383706E-01 0.96295682E+02</pdfrwt>
<pdfrwt beam="1">  1       -4 0.44307401E-02 0.96295682E+02</pdfrwt>
<totfact> 0.22318767E+04</totfact>
</mgrwt>
</event>
<event>
 5    1  0.1197825E+001  0.9372648E+02  0.7546771E-02  0.1294070E+00
          2   -1    0    0  501    0  0.00000000000E+00  0.00000000000E+00  0.21440347333E+03  0.21440347333E+03  0.00000000000E+00 0. -1.
         -2   -1    0    0    0  501 -0.00000000000E+00 -0.00000000000E+00 -0.10243132828E+02  0.10243132828E+02  0.00000000000E+00 0.  1.
         23    2    1    2    0    0  0.00000000000E+00  0.00000000000E+00  0.20416034050E+03  0.22464660616E+03  0.93726479847E+02 0.  0.
        -13    1    3    3    0    0  0.17537619502E+02  0.26123963041E+02  0.18839554507E+02  0.36673673893E+02  0.00000000000E+00 0.  1.
         13    1    3    3    0    0 -0.17537619502E+02 -0.26123963041E+02  0.18532078599E+03  0.18797293227E+03  0.00000000000E+00 0. -1.
<mgrwt>
<rscale>  0 0.93726480E+02</rscale>
<asrwt>0</asrwt>
<pdfrwt beam="1">  1        2 0.32985146E-01 0.93726480E+02</pdfrwt>
<pdfrwt beam="2">  1       -2 0.15758668E-02 0.93726480E+02</pdfrwt>
<totfact> 0.14727860E+05</totfact>
</mgrwt>
</event>
<event>
 5    1  0.1197825E+001  0.9202499E+02  0.7546771E-02  0.1298021E+00
          2   -1    0    0  501    0  0.00000000000E+00  0.00000000000E+00  0.97834450993E+01  0.97834450993E+01  0.00000000000E+00 0. -1.
         -2   -1    0    0    0  501 -0.00000000000E+00 -0.00000000000E+00 -0.21640122311E+03  0.21640122311E+03  0.00000000000E+00 0.  1.
         23    2    1    2    0    0  0.00000000000E+00  0.00000000000E+00 -0.20661777801E+03  0.22618466821E+03  0.92024985427E+02 0.  0.
        -13    1    3    3    0    0  0.38247159119E+02 -0.21411159747E+02 -0.68910545005E+02  0.81669738307E+02  0.00000000000E+00 0. -1.
         13    1    3    3    0    0 -0.38247159119E+02  0.21411159747E+02 -0.13770723300E+03  0.14451492990E+03  0.00000000000E+00 0.  1.
<mgrwt>
<rscale>  0 0.92024985E+02</rscale>
<asrwt>0</asrwt>
<pdfrwt beam="1">  1        2 0.15051456E-02 0.92024985E+02</pdfrwt>
<pdfrwt beam="2">  1       -2 0.33292492E-01 0.92024985E+02</pdfrwt>
<totfact> 0.58766605E+04</totfact>
</mgrwt>
</event>
<event>
 5    1  0.1197825E+001  0.9173368E+02  0.7546771E-02  0.1298707E+00
          1   -1    0    0  501    0  0.00000000000E+00  0.00000000000E+00  0.30725037745E+02  0.30725037745E+02  0.00000000000E+00 0. -1.
         -1   -1    0    0    0  501 -0.00000000000E+00 -0.00000000000E+00 -0.68470775999E+02  0.68470775999E+02  0.00000000000E+00 0.  1.
         23    2    1    2    0    0  0.00000000000E+00  0.00000000000E+00 -0.37745738254E+02  0.99195813745E+02  0.91733683607E+02 0.  0.
        -13    1    3    3    0    0  0.21579420490E+02  0.63874118653E+01  0.24344399583E+02  0.33152981918E+02  0.00000000000E+00 0. -1.
         13    1    3    3    0    0 -0.21579420490E+02 -0.63874118653E+01 -0.62090137837E+02  0.66042831826E+02  0.00000000000E+00 0.  1.
<mgrwt>
<rscale>  0 0.91733684E+02</rscale>
<asrwt>0</asrwt>
<pdfrwt beam="1">  1        1 0.47269289E-02 0.91733684E+02</pdfrwt>
<pdfrwt beam="2">  1       -1 0.10533965E-01 0.91733684E+02</pdfrwt>
<totfact> 0.85509896E+04</totfact>
</mgrwt>
</event>
<event>
 5    1  0.1197825E+001  0.9004269E+02  0.7546771E-02  0.1302748E+00
         -1   -1    0    0    0  501 -0.00000000000E+00  0.00000000000E+00  0.69602223365E+01  0.69602223365E+01  0.00000000000E+00 0. -1.
          1   -1    0    0  501    0  0.00000000000E+00 -0.00000000000E+00 -0.29121506866E+03  0.29121506866E+03  0.00000000000E+00 0.  1.
         23    2    1    2    0    0  0.00000000000E+00  0.00000000000E+00 -0.28425484632E+03  0.29817529100E+03  0.90042692666E+02 0.  0.
        -13    1    3    3    0    0 -0.14564758876E+02  0.36389790608E+02 -0.21547314819E+03  0.21900919308E+03  0.00000000000E+00 0.  1.
         13    1    3    3    0    0  0.14564758876E+02 -0.36389790608E+02 -0.68781698132E+02  0.79166097917E+02  0.00000000000E+00 0. -1.
<mgrwt>
<rscale>  0 0.90042693E+02</rscale>
<asrwt>0</asrwt>
<pdfrwt beam="2">  1        1 0.44802307E-01 0.90042693E+02</pdfrwt>
<pdfrwt beam="1">  1       -1 0.10708037E-02 0.90042693E+02</pdfrwt>
<totfact> 0.13171240E+05</totfact>
</mgrwt>
</event>
<event>
 5    1  0.1197825E+001  0.8988806E+02  0.7546771E-02  0.1303123E+00
          2   -1    0    0  501    0  0.00000000000E+00  0.00000000000E+00  0.39872243203E+02  0.39872243203E+02  0.00000000000E+00 0. -1.
         -2   -1    0    0    0  501 -0.00000000000E+00 -0.00000000000E+00 -0.50660948466E+02  0.50660948466E+02  0.00000000000E+00 0.  1.
         23    2    1    2    0    0  0.00000000000E+00  0.00000000000E+00 -0.10788705262E+02  0.90533191669E+02  0.89888056117E+02 0.  0.
        -11    1    3    3    0    0  0.13283885358E+02  0.15809640714E+02 -0.45600268394E+02  0.50057874778E+02  0.00000000000E+00 0.  1.
         11    1    3    3    0    0 -0.13283885358E+02 -0.15809640714E+02  0.34811563132E+02  0.40475316891E+02  0.00000000000E+00 0. -1.
<mgrwt>
<rscale>  0 0.89888056E+02</rscale>
<asrwt>0</asrwt>
<pdfrwt beam="1">  1        2 0.61341913E-02 0.89888056E+02</pdfrwt>
<pdfrwt beam="2">  1       -2 0.77939921E-02 0.89888056E+02</pdfrwt>
<totfact> 0.99313453E+04</totfact>
</mgrwt>
</event>
<event>
 5    1  0.1197825E+001  0.8972214E+02  0.7546771E-02  0.1303526E+00
         -1   -1    0    0    0  501 -0.00000000000E+00  0.00000000000E+00  0.16104702514E+02  0.16104702514E+02  0.00000000000E+00 0.  1.
          1   -1    0    0  501    0  0.00000000000E+00 -0.00000000000E+00 -0.12496447557E+03  0.12496447557E+03  0.00000000000E+00 0. -1.
         23    2    1    2    0    0  0.00000000000E+00  0.00000000000E+00 -0.10885977305E+03  0.14106917808E+03  0.89722142282E+02 0.  0.
        -11    1    3    3    0    0  0.44409681040E+02 -0.46743477625E+01 -0.61182756577E+02  0.75745620332E+02  0.00000000000E+00 0.  1.
         11    1    3    3    0    0 -0.44409681040E+02  0.46743477625E+01 -0.47677016478E+02  0.65323557751E+02  0.00000000000E+00 0. -1.
<mgrwt>
<rscale>  0 0.89722142E+02</rscale>
<asrwt>0</asrwt>
<pdfrwt beam="2">  1        1 0.19225304E-01 0.89722142E+02</pdfrwt>
<pdfrwt beam="1">  1       -1 0.24776465E-02 0.89722142E+02</pdfrwt>
<totfact> 0.11333012E+05</totfact>
</mgrwt>
</event>
<event>
 5    1  0.1197825E+001  0.9087254E+02  0.7546771E-02  0.1300752E+00
         -1   -1    0    0    0  501 -0.00000000000E+00  0.00000000000E+00  0.12957672398E+02  0.12957672398E+02  0.00000000000E+00 0.  1.
          1   -1    0    0  501    0  0.00000000000E+00 -0.00000000000E+00 -0.15932296381E+03  0.15932296381E+03  0.00000000000E+00 0. -1.
         23    2    1    2    0    0  0.00000000000E+00  0.00000000000E+00 -0.14636529141E+03  0.17228063621E+03  0.90872543058E+02 0.  0.
        -13    1    3    3    0    0  0.20013003782E+02 -0.23242217217E+02 -0.96297263858E+01  0.32147357773E+02  0.00000000000E+00 0.  1.
         13    1    3    3    0    0 -0.20013003782E+02  0.23242217217E+02 -0.13673556503E+03  0.14013327843E+03  0.00000000000E+00 0. -1.
<mgrwt>
<rscale>  0 0.90872543E+02</rscale>
<asrwt>0</asrwt>
<pdfrwt beam="2">  1        1 0.24511226E-01 0.90872543E+02</pdfrwt>
<pdfrwt beam="1">  1       -1 0.19934880E-02 0.90872543E+02</pdfrwt>
<totfact> 0.11441616E+05</totfact>
</mgrwt>
</event>
<event>
 5    1  0.1197825E+001  0.8835127E+02  0.7546771E-02  0.1306894E+00
          1   -1    0    0  501    0  0.00000000000E+00  0.00000000000E+00  0.24664209360E+03  0.24664209360E+03  0.00000000000E+00 0. -1.
         -1   -1    0    0    0  501 -0.00000000000E+00 -0.00000000000E+00 -0.79122214039E+01  0.79122214039E+01  0.00000000000E+00 0.  1.
         23    2    1    2    0    0  0.00000000000E+00  0.00000000000E+00  0.23872987220E+03  0.25455431500E+03  0.88351272817E+02 0.  0.
        -13    1    3    3    0    0  0.68127037899E+01 -0.41573778468E+02  0.15766324649E+03  0.16319464232E+03  0.00000000000E+00 0. -1.
         13    1    3    3    0    0 -0.68127037899E+01  0.41573778468E+02  0.81066625706E+02  0.91359672681E+02  0.00000000000E+00 0.  1.
<mgrwt>
<rscale>  0 0.88351273E+02</rscale>
<asrwt>0</asrwt>
<pdfrwt beam="1">  1        1 0.37944932E-01 0.88351273E+02</pdfrwt>
<pdfrwt beam="2">  1       -1 0.12172650E-02 0.88351273E+02</pdfrwt>
<totfact> 0.13414337E+05</totfact>
</mgrwt>
</event>
<event>
 5    1  0.1197825E+001  0.8642747E+02  0.7546771E-02  0.1311741E+00
          1   -1    0    0  501    0  0.00000000000E+00  0.00000000000E+00  0.14200686553E+02  0.14200686553E+02  0.00000000000E+00 0. -1.
         -1   -1    0    0    0  501 -0.00000000000E+00 -0.00000000000E+00 -0.13150258560E+03  0.13150258560E+03  0.00000000000E+00 0.  1.
         23    2    1    2    0    0  0.00000000000E+00  0.00000000000E+00 -0.11730189905E+03  0.14570327215E+03  0.86427472460E+02 0.  0.
        -11    1    3    3    0    0 -0.38475286330E+02  0.11708933701E+01 -0.25541877178E+02  0.46196386647E+02  0.00000000000E+00 0. -1.
         11    1    3    3    0    0  0.38475286330E+02 -0.11708933701E+01 -0.91760021870E+02  0.99506885505E+02  0.00000000000E+00 0.  1.
<mgrwt>
<rscale>  0 0.86427472E+02</rscale>
<asrwt>0</asrwt>
<pdfrwt beam="1">  1        1 0.21847210E-02 0.86427472E+02</pdfrwt>
<pdfrwt beam="2">  1       -1 0.20231167E-01 0.86427472E+02</pdfrwt>
<totfact> 0.88456198E+04</totfact>
</mgrwt>
</event>
<event>
 5    1  0.1197825E+001  0.9137680E+02  0.7546771E-02  0.1299551E+00
          1   -1    0    0  501    0  0.00000000000E+00  0.00000000000E+00  0.56449645969E+02  0.56449645969E+02  0.00000000000E+00 0. -1.
         -1   -1    0    0    0  501 -0.00000000000E+00 -0.00000000000E+00 -0.36978619893E+02  0.36978619893E+02  0.00000000000E+00 0.  1.
         23    2    1    2    0    0  0.00000000000E+00  0.00000000000E+00  0.19471026077E+02  0.93428265862E+02  0.91376802338E+02 0.  0.
        -11    1    3    3    0    0  0.23971846090E+02 -0.31839300991E+02 -0.13105207321E+02  0.41953986121E+02  0.00000000000E+00 0.  1.
         11    1    3    3    0    0 -0.23971846090E+02  0.31839300991E+02  0.32576233397E+02  0.51474279741E+02  0.00000000000E+00 0. -1.
<mgrwt>
<rscale>  0 0.91376802E+02</rscale>
<asrwt>0</asrwt>
<pdfrwt beam="1">  1        1 0.86845608E-02 0.91376802E+02</pdfrwt>
<pdfrwt beam="2">  1       -1 0.56890185E-02 0.91376802E+02</pdfrwt>
<totfact> 0.94907565E+04</totfact>
</mgrwt>
</event>
<event>
 5    1  0.1197825E+001  0.9050095E+02  0.7546771E-02  0.1301643E+00
         -4   -1    0    0    0  501 -0.00000000000E+00  0.00000000000E+00  0.22265703279E+02  0.22265703279E+02  0.00000000000E+00 0.  1.
          4   -1    0    0  501    0  0.00000000000E+00 -0.00000000000E+00 -0.91962317454E+02  0.91962317454E+02  0.00000000000E+00 0. -1.
         23    2    1    2    0    0  0.00000000000E+00  0.00000000000E+00 -0.69696614174E+02  0.11422802073E+03  0.90500954101E+02 0.  0.
        -13    1    3    3    0    0 -0.20040067923E+02 -0.23247912639E+02  0.71184992394E+01  0.31507821185E+02  0.00000000000E+00 0.  1.
         13    1    3    3    0    0  0.20040067923E+02  0.23247912639E+02 -0.76815113414E+02  0.82720199548E+02  0.00000000000E+00 0. -1.
<mgrwt>
<rscale>  0 0.90500954E+02</rscale>
<asrwt>0</asrwt>
<pdfrwt beam="2">  1        4 0.14148049E-01 0.90500954E+02</pdfrwt>
<pdfrwt beam="1">  1       -4 0.34254928E-02 0.90500954E+02</pdfrwt>
<totfact> 0.26123656E+04</totfact>
</mgrwt>
</event>
<event>
 5    1  0.1197825E+001  0.9117065E+02  0.7546771E-02  0.1300041E+00
          1   -1    0    0  501    0  0.00000000000E+00  0.00000000000E+00  0.22243199792E+02  0.22243199792E+02  0.00000000000E+00 0. -1.
         -1   -1    0    0    0  501 -0.00000000000E+00 -0.00000000000E+00 -0.93422792665E+02  0.93422792665E+02  0.00000000000E+00 0.  1.
         23    2    1    2    0    0  0.00000000000E+00  0.00000000000E+00 -0.71179592873E+02  0.11566599246E+03  0.91170649715E+02 0.  0.
        -11    1    3    3    0    0 -0.39696685992E+02  0.21696194614E+02 -0.28472751301E+02  0.53453244112E+02  0.00000000000E+00 0.  1.
         11    1    3    3    0    0  0.39696685992E+02 -0.21696194614E+02 -0.42706841572E+02  0.62212748344E+02  0.00000000000E+00 0. -1.
<mgrwt>
<rscale>  0 0.91170650E+02</rscale>
<asrwt>0</asrwt>
<pdfrwt beam="1">  1        1 0.34220306E-02 0.91170650E+02</pdfrwt>
<pdfrwt beam="2">  1       -1 0.14372738E-01 0.91170650E+02</pdfrwt>
<totfact> 0.82404787E+04</totfact>
</mgrwt>
</event>
<event>
 5    1  0.1197825E+001  0.8985606E+02  0.7546771E-02  0.1303201E+00
         -2   -1    0    0    0  501 -0.00000000000E+00  0.00000000000E+00  0.22822265265E+02  0.22822265265E+02  0.00000000000E+00 0.  1.
          2   -1    0    0  501    0  0.00000000000E+00 -0.00000000000E+00 -0.88445559070E+02  0.88445559070E+02  0.00000000000E+00 0. -1.
         23    2    1    2    0    0  0.00000000000E+00  0.00000000000E+00 -0.65623293805E+02  0.11126782433E+03  0.89856062914E+02 0.  0.
        -11    1    3    3    0    0  0.20168733651E+02 -0.81967914804E+01 -0.81477573438E+02  0.84335995761E+02  0.00000000000E+00 0. -1.
         11    1    3    3    0    0 -0.20168733651E+02  0.81967914804E+01  0.15854279633E+02  0.26931828574E+02  0.00000000000E+00 0.  1.
<mgrwt>
<rscale>  0 0.89856063E+02</rscale>
<asrwt>0</asrwt>
<pdfrwt beam="2">  1        2 0.13607009E-01 0.89856063E+02</pdfrwt>
<pdfrwt beam="1">  1       -2 0.35111178E-02 0.89856063E+02</pdfrwt>
<totfact> 0.12311172E+05</totfact>
</mgrwt>
</event>
<event>
 5    1  0.1197825E+001  0.9413179E+02  0.7546771E-02  0.1293144E+00
          3   -1    0    0  501    0  0.00000000000E+00  0.00000000000E+00  0.12913883962E+02  0.12913883962E+02  0.00000000000E+00 0. -1.
         -3   -1    0    0    0  501 -0.00000000000E+00 -0.00000000000E+00 -0.17153618959E+03  0.17153618959E+03  0.00000000000E+00 0.  1.
         23    2    1    2    0    0  0.00000000000E+00  0.00000000000E+00 -0.15862230563E+03  0.18445007355E+03  0.94131789479E+02 0.  0.
        -11    1    3    3    0    0  0.44898633169E+02 -0.13414331189E+02 -0.87934435815E+02  0.99640837732E+02  0.00000000000E+00 0.  1.
         11    1    3    3    0    0 -0.44898633169E+02  0.13414331189E+02 -0.70687869814E+02  0.84809235821E+02  0.00000000000E+00 0. -1.
<mgrwt>
<rscale>  0 0.94131789E+02</rscale>
<asrwt>0</asrwt>
<pdfrwt beam="1">  1        3 0.19867513E-02 0.94131789E+02</pdfrwt>
<pdfrwt beam="2">  1       -3 0.26390184E-01 0.94131789E+02</pdfrwt>
<totfact> 0.26894685E+04</totfact>
</mgrwt>
</event>
<event>
 5    1  0.1197825E+001  0.9049640E+02  0.7546771E-02  0.1301654E+00
          2   -1    0    0  501    0  0.00000000000E+00  0.00000000000E+00  0.54714435720E+02  0.54714435720E+02  0.00000000000E+00 0. -1.
         -2   -1    0    0    0  501 -0.00000000000E+00 -0.00000000000E+00 -0.37419737338E+02  0.37419737338E+02  0.00000000000E+00 0.  1.
         23    2    1    2    0    0  0.00000000000E+00  0.00000000000E+00  0.17294698381E+02  0.92134173058E+02  0.90496404641E+02 0.  0.
        -13    1    3    3    0    0 -0.33342350173E+02  0.23345113855E+02 -0.11476326948E+02  0.42289629180E+02  0.00000000000E+00 0.  1.
         13    1    3    3    0    0  0.33342350173E+02 -0.23345113855E+02  0.28771025329E+02  0.49844543878E+02  0.00000000000E+00 0. -1.
<mgrwt>
<rscale>  0 0.90496405E+02</rscale>
<asrwt>0</asrwt>
<pdfrwt beam="1">  1        2 0.84176055E-02 0.90496405E+02</pdfrwt>
<pdfrwt beam="2">  1       -2 0.57568827E-02 0.90496405E+02</pdfrwt>
<totfact> 0.10571731E+05</totfact>
</mgrwt>
</event>
<event>
 5    1  0.1197825E+001  0.8914123E+02  0.7546771E-02  0.1304945E+00
         -2   -1    0    0    0  501 -0.00000000000E+00  0.00000000000E+00  0.96661109342E+01  0.96661109342E+01  0.00000000000E+00 0.  1.
          2   -1    0    0  501    0  0.00000000000E+00 -0.00000000000E+00 -0.20551593189E+03  0.20551593189E+03  0.00000000000E+00 0. -1.
         23    2    1    2    0    0  0.00000000000E+00  0.00000000000E+00 -0.19584982096E+03  0.21518204282E+03  0.89141231681E+02 0.  0.
        -11    1    3    3    0    0 -0.25494365100E+02  0.34980871113E+02 -0.12357593730E+03  0.13093752814E+03  0.00000000000E+00 0. -1.
         11    1    3    3    0    0  0.25494365100E+02 -0.34980871113E+02 -0.72273883651E+02  0.84244514681E+02  0.00000000000E+00 0.  1.
<mgrwt>
<rscale>  0 0.89141232E+02</rscale>
<asrwt>0</asrwt>
<pdfrwt beam="2">  1        2 0.31617833E-01 0.89141232E+02</pdfrwt>
<pdfrwt beam="1">  1       -2 0.14870941E-02 0.89141232E+02</pdfrwt>
<totfact> 0.16597591E+05</totfact>
</mgrwt>
</event>
<event>
 5    1  0.1197825E+001  0.8829701E+02  0.7546771E-02  0.1307029E+00
          4   -1    0    0  501    0  0.00000000000E+00  0.00000000000E+00  0.52523954013E+02  0.52523954013E+02  0.00000000000E+00 0. -1.
         -4   -1    0    0    0  501 -0.00000000000E+00 -0.00000000000E+00 -0.37108600179E+02  0.37108600179E+02  0.00000000000E+00 0.  1.
         23    2    1    2    0    0  0.00000000000E+00  0.00000000000E+00  0.15415353833E+02  0.89632554192E+02  0.88297008087E+02 0.  0.
        -13    1    3    3    0    0  0.11912963646E+02 -0.33117832215E+02 -0.19348437149E+02  0.40163061806E+02  0.00000000000E+00 0.  1.
         13    1    3    3    0    0 -0.11912963646E+02  0.33117832215E+02  0.34763790983E+02  0.49469492386E+02  0.00000000000E+00 0. -1.
<mgrwt>
<rscale>  0 0.88297008E+02</rscale>
<asrwt>0</asrwt>
<pdfrwt beam="1">  1        4 0.80806083E-02 0.88297008E+02</pdfrwt>
<pdfrwt beam="2">  1       -4 0.57090154E-02 0.88297008E+02</pdfrwt>
<totfact> 0.29575113E+04</totfact>
</mgrwt>
</event>
<event>
 5    1  0.1197825E+001  0.8626160E+02  0.7546771E-02  0.1312166E+00
          2   -1    0    0  501    0  0.00000000000E+00  0.00000000000E+00  0.41350264862E+02  0.41350264862E+02  0.00000000000E+00 0.  1.
         -2   -1    0    0    0  501 -0.00000000000E+00 -0.00000000000E+00 -0.44988006999E+02  0.44988006999E+02  0.00000000000E+00 0. -1.
         23    2    1    2    0    0  0.00000000000E+00  0.00000000000E+00 -0.36377421373E+01  0.86338271861E+02  0.86261602235E+02 0.  0.
        -11    1    3    3    0    0  0.37795011084E+02 -0.38684623967E+01 -0.22253631765E+02  0.44030125946E+02  0.00000000000E+00 0.  1.
         11    1    3    3    0    0 -0.37795011084E+02  0.38684623967E+01  0.18615889627E+02  0.42308145915E+02  0.00000000000E+00 0. -1.
<mgrwt>
<rscale>  0 0.86261602E+02</rscale>
<asrwt>0</asrwt>
<pdfrwt beam="1">  1        2 0.63615792E-02 0.86261602E+02</pdfrwt>
<pdfrwt beam="2">  1       -2 0.69212318E-02 0.86261602E+02</pdfrwt>
<totfact> 0.11280055E+05</totfact>
</mgrwt>
</event>
<event>
 5    1  0.1197825E+001  0.9178942E+02  0.7546771E-02  0.1298575E+00
         -1   -1    0    0    0  501 -0.00000000000E+00  0.00000000000E+00  0.51465418717E+02  0.51465418717E+02  0.00000000000E+00 0.  1.
          1   -1    0    0  501    0  0.00000000000E+00 -0.00000000000E+00 -0.40926987940E+02  0.40926987940E+02  0.00000000000E+00 0. -1.
         23    2    1    2    0    0  0.00000000000E+00  0.00000000000E+00  0.10538430778E+02  0.92392406657E+02  0.91789423599E+02 0.  0.
        -13    1    3    3    0    0 -0.15478787815E+02 -0.39297946450E+02  0.23342756206E+02  0.48257701299E+02  0.00000000000E+00 0.  1.
         13    1    3    3    0    0  0.15478787815E+02  0.39297946450E+02 -0.12804325428E+02  0.44134705358E+02  0.00000000000E+00 0. -1.
<mgrwt>
<rscale>  0 0.91789424E+02</rscale>
<asrwt>0</asrwt>
<pdfrwt beam="2">  1        1 0.62964597E-02 0.91789424E+02</pdfrwt>
<pdfrwt beam="1">  1       -1 0.79177567E-02 0.91789424E+02</pdfrwt>
<totfact> 0.89274095E+04</totfact>
</mgrwt>
</event>
<event>
 5    1  0.1197825E+001  0.9609557E+02  0.7546771E-02  0.1288727E+00
         -1   -1    0    0    0  501 -0.00000000000E+00  0.00000000000E+00  0.25642129617E+02  0.25642129617E+02  0.00000000000E+00 0.  1.
          1   -1    0    0  501    0  0.00000000000E+00 -0.00000000000E+00 -0.90031115866E+02  0.90031115866E+02  0.00000000000E+00 0. -1.
         23    2    1    2    0    0  0.00000000000E+00  0.00000000000E+00 -0.64388986249E+02  0.11567324548E+03  0.96095567902E+02 0.  0.
        -13    1    3    3    0    0  0.54968651751E+01 -0.46959782331E+02 -0.42489940335E+02  0.63567536628E+02  0.00000000000E+00 0. -1.
         13    1    3    3    0    0 -0.54968651751E+01  0.46959782331E+02 -0.21899045914E+02  0.52105708855E+02  0.00000000000E+00 0.  1.
<mgrwt>
<rscale>  0 0.96095568E+02</rscale>
<asrwt>0</asrwt>
<pdfrwt beam="2">  1        1 0.13850941E-01 0.96095568E+02</pdfrwt>
<pdfrwt beam="1">  1       -1 0.39449431E-02 0.96095568E+02</pdfrwt>
<totfact> 0.88870588E+04</totfact>
</mgrwt>
</event>
<event>
 5    1  0.1197825E+001  0.8809400E+02  0.7546771E-02  0.1307534E+00
         -1   -1    0    0    0  501 -0.00000000000E+00  0.00000000000E+00  0.15616145409E+02  0.15616145409E+02  0.00000000000E+00 0.  1.
          1   -1    0    0  501    0  0.00000000000E+00 -0.00000000000E+00 -0.12423924027E+03  0.12423924027E+03  0.00000000000E+00 0. -1.
         23    2    1    2    0    0  0.00000000000E+00  0.00000000000E+00 -0.10862309486E+03  0.13985538568E+03  0.88093996200E+02 0.  0.
        -13    1    3    3    0    0 -0.17792145557E+02 -0.35156707787E+02 -0.23056833975E+02  0.45652734189E+02  0.00000000000E+00 0.  1.
         13    1    3    3    0    0  0.17792145557E+02  0.35156707787E+02 -0.85566260888E+02  0.94202651493E+02  0.00000000000E+00 0. -1.
<mgrwt>
<rscale>  0 0.88093996E+02</rscale>
<asrwt>0</asrwt>
<pdfrwt beam="2">  1        1 0.19113730E-01 0.88093996E+02</pdfrwt>
<pdfrwt beam="1">  1       -1 0.24024838E-02 0.88093996E+02</pdfrwt>
<totfact> 0.11895185E+05</totfact>
</mgrwt>
</event>
<event>
 5    1  0.1197825E+001  0.9094902E+02  0.7546771E-02  0.1300570E+00
          2   -1    0    0  501    0  0.00000000000E+00  0.00000000000E+00  0.11741166651E+03  0.11741166651E+03  0.00000000000E+00 0. -1.
         -2   -1    0    0    0  501 -0.00000000000E+00 -0.00000000000E+00 -0.17612652106E+02  0.17612652106E+02  0.00000000000E+00 0.  1.
         23    2    1    2    0    0  0.00000000000E+00  0.00000000000E+00  0.99799014400E+02  0.13502431861E+03  0.90949015066E+02 0.  0.
        -13    1    3    3    0    0  0.29030829748E+02 -0.23070219406E+02  0.10819792386E+02  0.38627606793E+02  0.00000000000E+00 0.  1.
         13    1    3    3    0    0 -0.29030829748E+02  0.23070219406E+02  0.88979222014E+02  0.96396711819E+02  0.00000000000E+00 0. -1.
<mgrwt>
<rscale>  0 0.90949015E+02</rscale>
<asrwt>0</asrwt>
<pdfrwt beam="1">  1        2 0.18063333E-01 0.90949015E+02</pdfrwt>
<pdfrwt beam="2">  1       -2 0.27096389E-02 0.90949015E+02</pdfrwt>
<totfact> 0.12984911E+05</totfact>
</mgrwt>
</event>
<event>
 5    1  0.1197825E+001  0.9127761E+02  0.7546771E-02  0.1299787E+00
          2   -1    0    0  501    0  0.00000000000E+00  0.00000000000E+00  0.34787447018E+02  0.34787447018E+02  0.00000000000E+00 0. -1.
         -2   -1    0    0    0  501 -0.00000000000E+00 -0.00000000000E+00 -0.59875055645E+02  0.59875055645E+02  0.00000000000E+00 0.  1.
         23    2    1    2    0    0  0.00000000000E+00  0.00000000000E+00 -0.25087608627E+02  0.94662502663E+02  0.91277605708E+02 0.  0.
        -13    1    3    3    0    0 -0.66876800556E+01  0.24302821251E+02 -0.52001366562E+02  0.57788357907E+02  0.00000000000E+00 0.  1.
         13    1    3    3    0    0  0.66876800556E+01 -0.24302821251E+02  0.26913757934E+02  0.36874144756E+02  0.00000000000E+00 0. -1.
<mgrwt>
<rscale>  0 0.91277606E+02</rscale>
<asrwt>0</asrwt>
<pdfrwt beam="1">  1        2 0.53519150E-02 0.91277606E+02</pdfrwt>
<pdfrwt beam="2">  1       -2 0.92115469E-02 0.91277606E+02</pdfrwt>
<totfact> 0.91693618E+04</totfact>
</mgrwt>
</event>
<event>
 5    1  0.1197825E+001  0.9195284E+02  0.7546771E-02  0.1298190E+00
          1   -1    0    0  501    0  0.00000000000E+00  0.00000000000E+00  0.24848702851E+03  0.24848702851E+03  0.00000000000E+00 0. -1.
         -1   -1    0    0    0  501 -0.00000000000E+00 -0.00000000000E+00 -0.85068069900E+01  0.85068069900E+01  0.00000000000E+00 0.  1.
         23    2    1    2    0    0  0.00000000000E+00  0.00000000000E+00  0.23998022152E+03  0.25699383550E+03  0.91952839892E+02 0.  0.
        -11    1    3    3    0    0  0.31231450843E+02  0.33734419731E+02  0.12179401890E+03  0.13018140280E+03  0.00000000000E+00 0. -1.
         11    1    3    3    0    0 -0.31231450843E+02 -0.33734419731E+02  0.11818620262E+03  0.12681243270E+03  0.00000000000E+00 0.  1.
<mgrwt>
<rscale>  0 0.91952840E+02</rscale>
<asrwt>0</asrwt>
<pdfrwt beam="1">  1        1 0.38228768E-01 0.91952840E+02</pdfrwt>
<pdfrwt beam="2">  1       -1 0.13087397E-02 0.91952840E+02</pdfrwt>
<totfact> 0.12075521E+05</totfact>
</mgrwt>
</event>
<event>
 5    1  0.1197825E+001  0.9195130E+02  0.7546771E-02  0.1298194E+00
         -2   -1    0    0    0  501 -0.00000000000E+00  0.00000000000E+00  0.16631905097E+03  0.16631905097E+03  0.00000000000E+00 0.  1.
          2   -1    0    0  501    0  0.00000000000E+00 -0.00000000000E+00 -0.12709070384E+02  0.12709070384E+02  0.00000000000E+00 0. -1.
         23    2    1    2    0    0  0.00000000000E+00  0.00000000000E+00  0.15360998059E+03  0.17902812135E+03  0.91951302873E+02 0.  0.
        -11    1    3    3    0    0  0.15260436982E+02 -0.38015191436E+02  0.11744646993E+03  0.12438532476E+03  0.00000000000E+00 0.  1.
         11    1    3    3    0    0 -0.15260436982E+02  0.38015191436E+02  0.36163510661E+02  0.54642796599E+02  0.00000000000E+00 0. -1.
<mgrwt>
<rscale>  0 0.91951303E+02</rscale>
<asrwt>0</asrwt>
<pdfrwt beam="2">  1        2 0.19552417E-02 0.91951303E+02</pdfrwt>
<pdfrwt beam="1">  1       -2 0.25587545E-01 0.91951303E+02</pdfrwt>
<totfact> 0.65773350E+04</totfact>
</mgrwt>
</event>
<event>
 5    1  0.1197825E+001  0.9158528E+02  0.7546771E-02  0.1299057E+00
          3   -1    0    0  501    0  0.00000000000E+00  0.00000000000E+00  0.15705199640E+02  0.15705199640E+02  0.00000000000E+00 0. -1.
         -3   -1    0    0    0  501 -0.00000000000E+00 -0.00000000000E+00 -0.13352048656E+03  0.13352048656E+03  0.00000000000E+00 0.  1.
         23    2    1    2    0    0  0.00000000000E+00  0.00000000000E+00 -0.11781528692E+03  0.14922568620E+03  0.91585280421E+02 0.  0.
        -13    1    3    3    0    0 -0.38029120010E+02 -0.43845550745E+01 -0.17961399017E+02  0.42285341983E+02  0.00000000000E+00 0. -1.
         13    1    3    3    0    0  0.38029120010E+02  0.43845550745E+01 -0.99853887899E+02  0.10694034421E+03  0.00000000000E+00 0.  1.
<mgrwt>
<rscale>  0 0.91585280E+02</rscale>
<asrwt>0</asrwt>
<pdfrwt beam="1">  1        3 0.24161845E-02 0.91585280E+02</pdfrwt>
<pdfrwt beam="2">  1       -3 0.20541613E-01 0.91585280E+02</pdfrwt>
<totfact> 0.30977591E+04</totfact>
</mgrwt>
</event>
<event>
 5    1  0.1197825E+001  0.9040030E+02  0.7546771E-02  0.1301885E+00
          1   -1    0    0  501    0  0.00000000000E+00  0.00000000000E+00  0.16262345664E+03  0.16262345664E+03  0.00000000000E+00 0. -1.
         -1   -1    0    0    0  501 -0.00000000000E+00 -0.00000000000E+00 -0.12563093110E+02  0.12563093110E+02  0.00000000000E+00 0.  1.
         23    2    1    2    0    0  0.00000000000E+00  0.00000000000E+00  0.15006036353E+03  0.17518654976E+03  0.90400301499E+02 0.  0.
        -13    1    3    3    0    0 -0.21834276411E+02  0.11437910030E+02  0.14845304245E+03  0.15048543858E+03  0.00000000000E+00 0. -1.
         13    1    3    3    0    0  0.21834276411E+02 -0.11437910030E+02  0.16073210855E+01  0.24701111175E+02  0.00000000000E+00 0.  1.
<mgrwt>
<rscale>  0 0.90400301E+02</rscale>
<asrwt>0</asrwt>
<pdfrwt beam="1">  1        1 0.25018992E-01 0.90400301E+02</pdfrwt>
<pdfrwt beam="2">  1       -1 0.19327837E-02 0.90400301E+02</pdfrwt>
<totfact> 0.11647392E+05</totfact>
</mgrwt>
</event>
<event>
 5    1  0.1197825E+001  0.9062702E+02  0.7546771E-02  0.1301340E+00
          2   -1    0    0  501    0  0.00000000000E+00  0.00000000000E+00  0.93734873085E+02  0.93734873085E+02  0.00000000000E+00 0. -1.
         -2   -1    0    0    0  501 -0.00000000000E+00 -0.00000000000E+00 -0.21905550194E+02  0.21905550194E+02  0.00000000000E+00 0.  1.
         23    2    1    2    0    0  0.00000000000E+00  0.00000000000E+00  0.71829322891E+02  0.11564042328E+03  0.90627015119E+02 0.  0.
        -13    1    3    3    0    0 -0.32258632114E+02  0.19052733304E+02  0.68438695759E+02  0.78022311357E+02  0.00000000000E+00 0. -1.
         13    1    3    3    0    0  0.32258632114E+02 -0.19052733304E+02  0.33906271311E+01  0.37618111922E+02  0.00000000000E+00 0.  1.
<mgrwt>
<rscale>  0 0.90627015E+02</rscale>
<asrwt>0</asrwt>
<pdfrwt beam="1">  1        2 0.14420749E-01 0.90627015E+02</pdfrwt>
<pdfrwt beam="2">  1       -2 0.33700847E-02 0.90627015E+02</pdfrwt>
<totfact> 0.12232773E+05</totfact>
</mgrwt>
</event>
<event>
 5    1  0.1197825E+001  0.9095543E+02  0.7546771E-02  0.1300554E+00
         -1   -1    0    0    0  501 -0.00000000000E+00  0.00000000000E+00  0.32426054976E+03  0.32426054976E+03  0.00000000000E+00 0.  1.
          1   -1    0    0  501    0  0.00000000000E+00 -0.00000000000E+00 -0.63782742337E+01  0.63782742337E+01  0.00000000000E+00 0. -1.
         23    2    1    2    0    0  0.00000000000E+00  0.00000000000E+00  0.31788227552E+03  0.33063882399E+03  0.90955433252E+02 0.  0.
        -13    1    3    3    0    0  0.57500591260E+01  0.41844755349E+02  0.22022115564E+03  0.22423515363E+03  0.00000000000E+00 0.  1.
         13    1    3    3    0    0 -0.57500591260E+01 -0.41844755349E+02  0.97661119879E+02  0.10640367036E+03  0.00000000000E+00 0. -1.
<mgrwt>
<rscale>  0 0.90955433E+02</rscale>
<asrwt>0</asrwt>
<pdfrwt beam="2">  1        1 0.98127321E-03 0.90955433E+02</pdfrwt>
<pdfrwt beam="1">  1       -1 0.49886225E-01 0.90955433E+02</pdfrwt>
<totfact> 0.59075143E+04</totfact>
</mgrwt>
</event>
<event>
 5    1  0.1197825E+001  0.9446511E+02  0.7546771E-02  0.1292385E+00
         -3   -1    0    0    0  501 -0.00000000000E+00  0.00000000000E+00  0.21499961070E+03  0.21499961070E+03  0.00000000000E+00 0.  1.
          3   -1    0    0  501    0  0.00000000000E+00 -0.00000000000E+00 -0.10376364286E+02  0.10376364286E+02  0.00000000000E+00 0. -1.
         23    2    1    2    0    0  0.00000000000E+00  0.00000000000E+00  0.20462324641E+03  0.22537597498E+03  0.94465110636E+02 0.  0.
        -13    1    3    3    0    0  0.37371689135E+02 -0.23890818688E+02  0.14103974372E+03  0.14785000397E+03  0.00000000000E+00 0.  1.
         13    1    3    3    0    0 -0.37371689135E+02  0.23890818688E+02  0.63583502692E+02  0.77525971010E+02  0.00000000000E+00 0. -1.
<mgrwt>
<rscale>  0 0.94465111E+02</rscale>
<asrwt>0</asrwt>
<pdfrwt beam="2">  1        3 0.15963639E-02 0.94465111E+02</pdfrwt>
<pdfrwt beam="1">  1       -3 0.33076860E-01 0.94465111E+02</pdfrwt>
<totfact> 0.24747733E+04</totfact>
</mgrwt>
</event>
<event>
 5    1  0.1197825E+001  0.8978741E+02  0.7546771E-02  0.1303367E+00
          1   -1    0    0  501    0  0.00000000000E+00  0.00000000000E+00  0.14359737560E+03  0.14359737560E+03  0.00000000000E+00 0. -1.
         -1   -1    0    0    0  501 -0.00000000000E+00 -0.00000000000E+00 -0.14035386107E+02  0.14035386107E+02  0.00000000000E+00 0.  1.
         23    2    1    2    0    0  0.00000000000E+00  0.00000000000E+00  0.12956198949E+03  0.15763276171E+03  0.89787406924E+02 0.  0.
        -13    1    3    3    0    0  0.20452934967E+02  0.33374878890E+02  0.10337432694E+03  0.11053712752E+03  0.00000000000E+00 0. -1.
         13    1    3    3    0    0 -0.20452934967E+02 -0.33374878890E+02  0.26187662551E+02  0.47095634188E+02  0.00000000000E+00 0.  1.
<mgrwt>
<rscale>  0 0.89787407E+02</rscale>
<asrwt>0</asrwt>
<pdfrwt beam="1">  1        1 0.22091903E-01 0.89787407E+02</pdfrwt>
<pdfrwt beam="2">  1       -1 0.21592903E-02 0.89787407E+02</pdfrwt>
<totfact> 0.11594355E+05</totfact>
</mgrwt>
</event>
<event>
 5    1  0.1197825E+001  0.9189587E+02  0.7546771E-02  0.1298324E+00
          1   -1    0    0  501    0  0.00000000000E+00  0.00000000000E+00  0.95121327551E+02  0.95121327551E+02  0.00000000000E+00 0. -1.
         -1   -1    0    0    0  501 -0.00000000000E+00 -0.00000000000E+00 -0.22194947026E+02  0.22194947026E+02  0.00000000000E+00 0.  1.
         23    2    1    2    0    0  0.00000000000E+00  0.00000000000E+00  0.72926380525E+02  0.11731627458E+03  0.91895872074E+02 0.  0.
        -13    1    3    3    0    0 -0.81665128667E+01  0.31127481295E+02  0.78331730423E+02  0.84684544134E+02  0.00000000000E+00 0. -1.
         13    1    3    3    0    0  0.81665128667E+01 -0.31127481295E+02 -0.54053498980E+01  0.32631730443E+02  0.00000000000E+00 0.  1.
<mgrwt>
<rscale>  0 0.91895872E+02</rscale>
<asrwt>0</asrwt>
<pdfrwt beam="1">  1        1 0.14634050E-01 0.91895872E+02</pdfrwt>
<pdfrwt beam="2">  1       -1 0.34146073E-02 0.91895872E+02</pdfrwt>
<totfact> 0.10139084E+05</totfact>
</mgrwt>
</event>
<event>
 5    1  0.1197825E+001  0.8699488E+02  0.7546771E-02  0.1310297E+00
         -3   -1    0    0    0  501 -0.00000000000E+00  0.00000000000E+00  0.22257946158E+02  0.22257946158E+02  0.00000000000E+00 0.  1.
          3   -1    0    0  501    0  0.00000000000E+00 -0.00000000000E+00 -0.85004577155E+02  0.85004577155E+02  0.00000000000E+00 0. -1.
         23    2    1    2    0    0  0.00000000000E+00  0.00000000000E+00 -0.62746630997E+02  0.10726252331E+03  0.86994880344E+02 0.  0.
        -13    1    3    3    0    0  0.71441094640E+01  0.31740870447E+02  0.42233007931E+01  0.32807886649E+02  0.00000000000E+00 0.  1.
         13    1    3    3    0    0 -0.71441094640E+01 -0.31740870447E+02 -0.66969931790E+02  0.74454636664E+02  0.00000000000E+00 0. -1.
<mgrwt>
<rscale>  0 0.86994880E+02</rscale>
<asrwt>0</asrwt>
<pdfrwt beam="2">  1        3 0.13077627E-01 0.86994880E+02</pdfrwt>
<pdfrwt beam="1">  1       -3 0.34242993E-02 0.86994880E+02</pdfrwt>
<totfact> 0.38769224E+04</totfact>
</mgrwt>
</event>
<event>
 5    1  0.1197825E+001  0.8989922E+02  0.7546771E-02  0.1303096E+00
         -4   -1    0    0    0  501 -0.00000000000E+00  0.00000000000E+00  0.13825884976E+02  0.13825884976E+02  0.00000000000E+00 0.  1.
          4   -1    0    0  501    0  0.00000000000E+00 -0.00000000000E+00 -0.14613658079E+03  0.14613658079E+03  0.00000000000E+00 0. -1.
         23    2    1    2    0    0  0.00000000000E+00  0.00000000000E+00 -0.13231069581E+03  0.15996246577E+03  0.89899222619E+02 0.  0.
        -11    1    3    3    0    0 -0.18540320540E+02 -0.33515968294E+02 -0.10801381089E+03  0.11460386974E+03  0.00000000000E+00 0. -1.
         11    1    3    3    0    0  0.18540320540E+02  0.33515968294E+02 -0.24296884921E+02  0.45358596024E+02  0.00000000000E+00 0.  1.
<mgrwt>
<rscale>  0 0.89899223E+02</rscale>
<asrwt>0</asrwt>
<pdfrwt beam="2">  1        4 0.22482552E-01 0.89899223E+02</pdfrwt>
<pdfrwt beam="1">  1       -4 0.21270592E-02 0.89899223E+02</pdfrwt>
<totfact> 0.24076717E+04</totfact>
</mgrwt>
</event>
<event>
 5    1  0.1197825E+001  0.9212366E+02  0.7546771E-02  0.1297789E+00
         -2   -1    0    0    0  501 -0.00000000000E+00  0.00000000000E+00  0.83308285587E+01  0.83308285587E+01  0.00000000000E+00 0. -1.
          2   -1    0    0  501    0  0.00000000000E+00 -0.00000000000E+00 -0.25467960333E+03  0.25467960333E+03  0.00000000000E+00 0.  1.
         23    2    1    2    0    0  0.00000000000E+00  0.00000000000E+00 -0.24634877477E+03  0.26301043189E+03  0.92123658475E+02 0.  0.
        -13    1    3    3    0    0  0.17412515602E+02  0.38067124882E+02 -0.68303168229E+02  0.80110077309E+02  0.00000000000E+00 0. -1.
         13    1    3    3    0    0 -0.17412515602E+02 -0.38067124882E+02 -0.17804560654E+03  0.18290035458E+03  0.00000000000E+00 0.  1.
<mgrwt>
<rscale>  0 0.92123658E+02</rscale>
<asrwt>0</asrwt>
<pdfrwt beam="2">  1        2 0.39181473E-01 0.92123658E+02</pdfrwt>
<pdfrwt beam="1">  1       -2 0.12816661E-02 0.92123658E+02</pdfrwt>
<totfact> 0.16440094E+05</totfact>
</mgrwt>
</event>
<event>
 5    1  0.1197825E+001  0.8002103E+02  0.7546771E-02  0.1328992E+00
          2   -1    0    0  501    0  0.00000000000E+00  0.00000000000E+00  0.11796336494E+02  0.11796336494E+02  0.00000000000E+00 0. -1.
         -2   -1    0    0    0  501 -0.00000000000E+00 -0.00000000000E+00 -0.13570666536E+03  0.13570666536E+03  0.00000000000E+00 0.  1.
         23    2    1    2    0    0  0.00000000000E+00  0.00000000000E+00 -0.12391032887E+03  0.14750300186E+03  0.80021034461E+02 0.  0.
        -11    1    3    3    0    0  0.34876575323E+02 -0.60744228994E+01 -0.27590176497E+02  0.44883092128E+02  0.00000000000E+00 0. -1.
         11    1    3    3    0    0 -0.34876575323E+02  0.60744228994E+01 -0.96320152371E+02  0.10261990973E+03  0.00000000000E+00 0.  1.
<mgrwt>
<rscale>  0 0.80021034E+02</rscale>
<asrwt>0</asrwt>
<pdfrwt beam="1">  1        2 0.18148210E-02 0.80021034E+02</pdfrwt>
<pdfrwt beam="2">  1       -2 0.20877949E-01 0.80021034E+02</pdfrwt>
<totfact> 0.10055406E+05</totfact>
</mgrwt>
</event>
<event>
 5    1  0.1197825E+001  0.9054377E+02  0.7546771E-02  0.1301540E+00
         -4   -1    0    0    0  501 -0.00000000000E+00  0.00000000000E+00  0.83238230885E+02  0.83238230885E+02  0.00000000000E+00 0. -1.
          4   -1    0    0  501    0  0.00000000000E+00 -0.00000000000E+00 -0.24622620222E+02  0.24622620222E+02  0.00000000000E+00 0.  1.
         23    2    1    2    0    0  0.00000000000E+00  0.00000000000E+00  0.58615610663E+02  0.10786085111E+03  0.90543765042E+02 0.  0.
        -11    1    3    3    0    0  0.41650910021E+02 -0.31161438446E+01  0.85022214293E+01  0.42623895027E+02  0.00000000000E+00 0.  1.
         11    1    3    3    0    0 -0.41650910021E+02  0.31161438446E+01  0.50113389234E+02  0.65236956080E+02  0.00000000000E+00 0. -1.
<mgrwt>
<rscale>  0 0.90543765E+02</rscale>
<asrwt>0</asrwt>
<pdfrwt beam="2">  1        4 0.37880954E-02 0.90543765E+02</pdfrwt>
<pdfrwt beam="1">  1       -4 0.12805882E-01 0.90543765E+02</pdfrwt>
<totfact> 0.26473911E+04</totfact>
</mgrwt>
</event>
<event>
 5    1  0.1197825E+001  0.8706866E+02  0.7546771E-02  0.1310110E+00
          3   -1    0    0  501    0  0.00000000000E+00  0.00000000000E+00  0.28466027627E+03  0.28466027627E+03  0.00000000000E+00 0. -1.
         -3   -1    0    0    0  501 -0.00000000000E+00 -0.00000000000E+00 -0.66578938440E+01  0.66578938440E+01  0.00000000000E+00 0.  1.
         23    2    1    2    0    0  0.00000000000E+00  0.00000000000E+00  0.27800238243E+03  0.29131817012E+03  0.87068660287E+02 0.  0.
        -13    1    3    3    0    0 -0.22651934627E+02 -0.28457875522E+02  0.58960858122E+02  0.69277295069E+02  0.00000000000E+00 0.  1.
         13    1    3    3    0    0  0.22651934627E+02  0.28457875522E+02  0.21904152431E+03  0.22204087505E+03  0.00000000000E+00 0. -1.
<mgrwt>
<rscale>  0 0.87068660E+02</rscale>
<asrwt>0</asrwt>
<pdfrwt beam="1">  1        3 0.43793879E-01 0.87068660E+02</pdfrwt>
<pdfrwt beam="2">  1       -3 0.10242916E-02 0.87068660E+02</pdfrwt>
<totfact> 0.27569259E+04</totfact>
</mgrwt>
</event>
<event>
 5    1  0.1197825E+001  0.9130239E+02  0.7546771E-02  0.1299728E+00
          4   -1    0    0  501    0  0.00000000000E+00  0.00000000000E+00  0.17475972935E+02  0.17475972935E+02  0.00000000000E+00 0.  1.
         -4   -1    0    0    0  501 -0.00000000000E+00 -0.00000000000E+00 -0.11925125313E+03  0.11925125313E+03  0.00000000000E+00 0. -1.
         23    2    1    2    0    0  0.00000000000E+00  0.00000000000E+00 -0.10177528020E+03  0.13672722607E+03  0.91302391475E+02 0.  0.
        -13    1    3    3    0    0  0.28428486703E+02  0.25166770854E+02 -0.12929507388E+02  0.40108819139E+02  0.00000000000E+00 0.  1.
         13    1    3    3    0    0 -0.28428486703E+02 -0.25166770854E+02 -0.88845772810E+02  0.96618406930E+02  0.00000000000E+00 0. -1.
<mgrwt>
<rscale>  0 0.91302391E+02</rscale>
<asrwt>0</asrwt>
<pdfrwt beam="1">  1        4 0.26886113E-02 0.91302391E+02</pdfrwt>
<pdfrwt beam="2">  1       -4 0.18346346E-01 0.91302391E+02</pdfrwt>
<totfact> 0.24266873E+04</totfact>
</mgrwt>
</event>
<event>
 5    1  0.1197825E+001  0.8693510E+02  0.7546771E-02  0.1310448E+00
          1   -1    0    0  501    0  0.00000000000E+00  0.00000000000E+00  0.14003977987E+02  0.14003977987E+02  0.00000000000E+00 0.  1.
         -1   -1    0    0    0  501 -0.00000000000E+00 -0.00000000000E+00 -0.13492080056E+03  0.13492080056E+03  0.00000000000E+00 0. -1.
         23    2    1    2    0    0  0.00000000000E+00  0.00000000000E+00 -0.12091682257E+03  0.14892477855E+03  0.86935100416E+02 0.  0.
        -13    1    3    3    0    0 -0.38449099980E+02  0.75497157424E+01 -0.92693774896E+02  0.10063531886E+03  0.00000000000E+00 0. -1.
         13    1    3    3    0    0  0.38449099980E+02 -0.75497157424E+01 -0.28223047679E+02  0.48289459692E+02  0.00000000000E+00 0.  1.
<mgrwt>
<rscale>  0 0.86935100E+02</rscale>
<asrwt>0</asrwt>
<pdfrwt beam="1">  1        1 0.21544582E-02 0.86935100E+02</pdfrwt>
<pdfrwt beam="2">  1       -1 0.20757046E-01 0.86935100E+02</pdfrwt>
<totfact> 0.86648419E+04</totfact>
</mgrwt>
</event>
<event>
 5    1  0.1197825E+001  0.9036777E+02  0.7546771E-02  0.1301964E+00
          4   -1    0    0  501    0  0.00000000000E+00  0.00000000000E+00  0.26758682037E+02  0.26758682037E+02  0.00000000000E+00 0. -1.
         -4   -1    0    0    0  501 -0.00000000000E+00 -0.00000000000E+00 -0.76296116915E+02  0.76296116915E+02  0.00000000000E+00 0.  1.
         23    2    1    2    0    0  0.00000000000E+00  0.00000000000E+00 -0.49537434877E+02  0.10305479895E+03  0.90367771538E+02 0.  0.
        -13    1    3    3    0    0 -0.20779603395E+02 -0.24106130583E+02 -0.61344706604E+02  0.69109120073E+02  0.00000000000E+00 0.  1.
         13    1    3    3    0    0  0.20779603395E+02  0.24106130583E+02  0.11807271727E+02  0.33945678879E+02  0.00000000000E+00 0. -1.
<mgrwt>
<rscale>  0 0.90367772E+02</rscale>
<asrwt>0</asrwt>
<pdfrwt beam="1">  1        4 0.41167204E-02 0.90367772E+02</pdfrwt>
<pdfrwt beam="2">  1       -4 0.11737864E-01 0.90367772E+02</pdfrwt>
<totfact> 0.26911193E+04</totfact>
</mgrwt>
</event>
<event>
 5    1  0.1197825E+001  0.9342051E+02  0.7546771E-02  0.1294774E+00
         -1   -1    0    0    0  501 -0.00000000000E+00  0.00000000000E+00  0.92273084633E+02  0.92273084633E+02  0.00000000000E+00 0.  1.
          1   -1    0    0  501    0  0.00000000000E+00 -0.00000000000E+00 -0.23645552790E+02  0.23645552790E+02  0.00000000000E+00 0. -1.
         23    2    1    2    0    0  0.00000000000E+00  0.00000000000E+00  0.68627531843E+02  0.11591863742E+03  0.93420513674E+02 0.  0.
        -11    1    3    3    0    0  0.43599308567E+02 -0.12479219564E+02  0.20428843077E+02  0.49739001377E+02  0.00000000000E+00 0. -1.
         11    1    3    3    0    0 -0.43599308567E+02  0.12479219564E+02  0.48198688766E+02  0.66179636047E+02  0.00000000000E+00 0.  1.
<mgrwt>
<rscale>  0 0.93420514E+02</rscale>
<asrwt>0</asrwt>
<pdfrwt beam="2">  1        1 0.36377774E-02 0.93420514E+02</pdfrwt>
<pdfrwt beam="1">  1       -1 0.14195859E-01 0.93420514E+02</pdfrwt>
<totfact> 0.77566590E+04</totfact>
</mgrwt>
</event>
<event>
 5    1  0.1197825E+001  0.9138994E+02  0.7546771E-02  0.1299520E+00
         -2   -1    0    0    0  501 -0.00000000000E+00  0.00000000000E+00  0.82277827974E+01  0.82277827974E+01  0.00000000000E+00 0.  1.
          2   -1    0    0  501    0  0.00000000000E+00 -0.00000000000E+00 -0.25377798225E+03  0.25377798225E+03  0.00000000000E+00 0. -1.
         23    2    1    2    0    0  0.00000000000E+00  0.00000000000E+00 -0.24555019946E+03  0.26200576505E+03  0.91389936355E+02 0.  0.
        -13    1    3    3    0    0  0.44301657762E+01  0.44450471066E+02 -0.95193295760E+02  0.10515338465E+03  0.00000000000E+00 0.  1.
         13    1    3    3    0    0 -0.44301657762E+01 -0.44450471066E+02 -0.15035690370E+03  0.15685238040E+03  0.00000000000E+00 0. -1.
<mgrwt>
<rscale>  0 0.91389936E+02</rscale>
<asrwt>0</asrwt>
<pdfrwt beam="2">  1        2 0.39042760E-01 0.91389936E+02</pdfrwt>
<pdfrwt beam="1">  1       -2 0.12658129E-02 0.91389936E+02</pdfrwt>
<totfact> 0.16774260E+05</totfact>
</mgrwt>
</event>
<event>
 5    1  0.1197825E+001  0.9179840E+02  0.7546771E-02  0.1298554E+00
          3   -1    0    0  501    0  0.00000000000E+00  0.00000000000E+00  0.23220913010E+03  0.23220913010E+03  0.00000000000E+00 0. -1.
         -3   -1    0    0    0  501 -0.00000000000E+00 -0.00000000000E+00 -0.90725834207E+01  0.90725834207E+01  0.00000000000E+00 0.  1.
         23    2    1    2    0    0  0.00000000000E+00  0.00000000000E+00  0.22313654668E+03  0.24128171352E+03  0.91798403121E+02 0.  0.
        -13    1    3    3    0    0 -0.39823889592E+02 -0.22675246197E+02  0.11833489252E+03  0.12689860425E+03  0.00000000000E+00 0.  1.
         13    1    3    3    0    0  0.39823889592E+02  0.22675246197E+02  0.10480165416E+03  0.11438310927E+03  0.00000000000E+00 0. -1.
<mgrwt>
<rscale>  0 0.91798403E+02</rscale>
<asrwt>0</asrwt>
<pdfrwt beam="1">  1        3 0.35724477E-01 0.91798403E+02</pdfrwt>
<pdfrwt beam="2">  1       -3 0.13957822E-02 0.91798403E+02</pdfrwt>
<totfact> 0.26015043E+04</totfact>
</mgrwt>
</event>
<event>
 5    1  0.1197825E+001  0.9242712E+02  0.7546771E-02  0.1297078E+00
          4   -1    0    0  501    0  0.00000000000E+00  0.00000000000E+00  0.13287395783E+03  0.13287395783E+03  0.00000000000E+00 0. -1.
         -4   -1    0    0    0  501 -0.00000000000E+00 -0.00000000000E+00 -0.16073076958E+02  0.16073076958E+02  0.00000000000E+00 0.  1.
         23    2    1    2    0    0  0.00000000000E+00  0.00000000000E+00  0.11680088087E+03  0.14894703479E+03  0.92427124805E+02 0.  0.
        -11    1    3    3    0    0 -0.39410284601E+01  0.28362300687E+02 -0.54027559861E-01  0.28634851572E+02  0.00000000000E+00 0.  1.
         11    1    3    3    0    0  0.39410284601E+01 -0.28362300687E+02  0.11685490843E+03  0.12031218322E+03  0.00000000000E+00 0. -1.
<mgrwt>
<rscale>  0 0.92427125E+02</rscale>
<asrwt>0</asrwt>
<pdfrwt beam="1">  1        4 0.20442147E-01 0.92427125E+02</pdfrwt>
<pdfrwt beam="2">  1       -4 0.24727812E-02 0.92427125E+02</pdfrwt>
<totfact> 0.22869870E+04</totfact>
</mgrwt>
</event>
<event>
 5    1  0.1197825E+001  0.8616858E+02  0.7546771E-02  0.1312405E+00
          2   -1    0    0  501    0  0.00000000000E+00  0.00000000000E+00  0.21670188791E+03  0.21670188791E+03  0.00000000000E+00 0. -1.
         -2   -1    0    0    0  501 -0.00000000000E+00 -0.00000000000E+00 -0.85659421821E+01  0.85659421821E+01  0.00000000000E+00 0.  1.
         23    2    1    2    0    0  0.00000000000E+00  0.00000000000E+00  0.20813594572E+03  0.22526783009E+03  0.86168575306E+02 0.  0.
        -11    1    3    3    0    0  0.40721908369E+02 -0.13691655239E+02  0.95588468282E+02  0.10479928680E+03  0.00000000000E+00 0.  1.
         11    1    3    3    0    0 -0.40721908369E+02  0.13691655239E+02  0.11254747744E+03  0.12046854329E+03  0.00000000000E+00 0. -1.
<mgrwt>
<rscale>  0 0.86168575E+02</rscale>
<asrwt>0</asrwt>
<pdfrwt beam="1">  1        2 0.33338748E-01 0.86168575E+02</pdfrwt>
<pdfrwt beam="2">  1       -2 0.13178374E-02 0.86168575E+02</pdfrwt>
<totfact> 0.18525424E+05</totfact>
</mgrwt>
</event>
<event>
 5    1  0.1197825E+001  0.9459719E+02  0.7546771E-02  0.1292086E+00
         -1   -1    0    0    0  501 -0.00000000000E+00  0.00000000000E+00  0.58451102730E+01  0.58451102730E+01  0.00000000000E+00 0.  1.
          1   -1    0    0  501    0  0.00000000000E+00 -0.00000000000E+00 -0.38273993803E+03  0.38273993803E+03  0.00000000000E+00 0. -1.
         23    2    1    2    0    0  0.00000000000E+00  0.00000000000E+00 -0.37689482775E+03  0.38858504830E+03  0.94597191156E+02 0.  0.
        -11    1    3    3    0    0  0.17626544750E+02  0.42021434300E+02 -0.13638033126E+03  0.14379183139E+03  0.00000000000E+00 0.  1.
         11    1    3    3    0    0 -0.17626544750E+02 -0.42021434300E+02 -0.24051449649E+03  0.24479321691E+03  0.00000000000E+00 0. -1.
<mgrwt>
<rscale>  0 0.94597191E+02</rscale>
<asrwt>0</asrwt>
<pdfrwt beam="2">  1        1 0.58883072E-01 0.94597191E+02</pdfrwt>
<pdfrwt beam="1">  1       -1 0.89924767E-03 0.94597191E+02</pdfrwt>
<totfact> 0.12139508E+05</totfact>
</mgrwt>
</event>
<event>
 5    1  0.1197825E+001  0.9228018E+02  0.7546771E-02  0.1297422E+00
         -1   -1    0    0    0  501 -0.00000000000E+00  0.00000000000E+00  0.60162290576E+02  0.60162290576E+02  0.00000000000E+00 0.  1.
          1   -1    0    0  501    0  0.00000000000E+00 -0.00000000000E+00 -0.35386082127E+02  0.35386082127E+02  0.00000000000E+00 0. -1.
         23    2    1    2    0    0  0.00000000000E+00  0.00000000000E+00  0.24776208449E+02  0.95548372703E+02  0.92280176750E+02 0.  0.
        -11    1    3    3    0    0  0.13754039291E+02  0.21847709892E+02  0.51983957686E+02  0.58041604742E+02  0.00000000000E+00 0.  1.
         11    1    3    3    0    0 -0.13754039291E+02 -0.21847709892E+02 -0.27207749237E+02  0.37506767961E+02  0.00000000000E+00 0. -1.
<mgrwt>
<rscale>  0 0.92280177E+02</rscale>
<asrwt>0</asrwt>
<pdfrwt beam="2">  1        1 0.54440126E-02 0.92280177E+02</pdfrwt>
<pdfrwt beam="1">  1       -1 0.92557370E-02 0.92280177E+02</pdfrwt>
<totfact> 0.85977599E+04</totfact>
</mgrwt>
</event>
<event>
 5    1  0.1197825E+001  0.5647714E+02  0.7546771E-02  0.1413240E+00
          2   -1    0    0  501    0  0.00000000000E+00  0.00000000000E+00  0.28618024307E+03  0.28618024307E+03  0.00000000000E+00 0. -1.
         -2   -1    0    0    0  501 -0.00000000000E+00 -0.00000000000E+00 -0.27864149413E+01  0.27864149413E+01  0.00000000000E+00 0.  1.
         23    2    1    2    0    0  0.00000000000E+00  0.00000000000E+00  0.28339382813E+03  0.28896665801E+03  0.56477142463E+02 0.  0.
        -11    1    3    3    0    0  0.27642602591E+02  0.55590501107E+01  0.14962404147E+03  0.15225757880E+03  0.00000000000E+00 0.  1.
         11    1    3    3    0    0 -0.27642602591E+02 -0.55590501107E+01  0.13376978666E+03  0.13670907921E+03  0.00000000000E+00 0. -1.
<mgrwt>
<rscale>  0 0.56477142E+02</rscale>
<asrwt>0</asrwt>
<pdfrwt beam="1">  1        2 0.44027707E-01 0.56477142E+02</pdfrwt>
<pdfrwt beam="2">  1       -2 0.42867945E-03 0.56477142E+02</pdfrwt>
<totfact> 0.61294054E+05</totfact>
</mgrwt>
</event>
<event>
 5    1  0.1197825E+001  0.8840131E+02  0.7546771E-02  0.1306770E+00
          2   -1    0    0  501    0  0.00000000000E+00  0.00000000000E+00  0.18348789260E+02  0.18348789260E+02  0.00000000000E+00 0. -1.
         -2   -1    0    0    0  501 -0.00000000000E+00 -0.00000000000E+00 -0.10647558072E+03  0.10647558072E+03  0.00000000000E+00 0.  1.
         23    2    1    2    0    0  0.00000000000E+00  0.00000000000E+00 -0.88126791463E+02  0.12482436998E+03  0.88401312028E+02 0.  0.
        -13    1    3    3    0    0  0.21425846628E+02 -0.38277242549E+02 -0.51730517054E+02  0.67825220940E+02  0.00000000000E+00 0.  1.
         13    1    3    3    0    0 -0.21425846628E+02  0.38277242549E+02 -0.36396274408E+02  0.56999149043E+02  0.00000000000E+00 0. -1.
<mgrwt>
<rscale>  0 0.88401312E+02</rscale>
<asrwt>0</asrwt>
<pdfrwt beam="1">  1        2 0.28228906E-02 0.88401312E+02</pdfrwt>
<pdfrwt beam="2">  1       -2 0.16380859E-01 0.88401312E+02</pdfrwt>
<totfact> 0.84584221E+04</totfact>
</mgrwt>
</event>
<event>
 5    1  0.1197825E+001  0.9228474E+02  0.7546771E-02  0.1297411E+00
         -2   -1    0    0    0  501 -0.00000000000E+00  0.00000000000E+00  0.14366693318E+02  0.14366693318E+02  0.00000000000E+00 0.  1.
          2   -1    0    0  501    0  0.00000000000E+00 -0.00000000000E+00 -0.14819823013E+03  0.14819823013E+03  0.00000000000E+00 0. -1.
         23    2    1    2    0    0  0.00000000000E+00  0.00000000000E+00 -0.13383153682E+03  0.16256492345E+03  0.92284744623E+02 0.  0.
        -13    1    3    3    0    0  0.62223466929E+01  0.25879773392E+02 -0.52026294901E+00  0.26622376729E+02  0.00000000000E+00 0. -1.
         13    1    3    3    0    0 -0.62223466929E+01 -0.25879773392E+02 -0.13331127387E+03  0.13594254672E+03  0.00000000000E+00 0.  1.
<mgrwt>
<rscale>  0 0.92284745E+02</rscale>
<asrwt>0</asrwt>
<pdfrwt beam="2">  1        2 0.22799727E-01 0.92284745E+02</pdfrwt>
<pdfrwt beam="1">  1       -2 0.22102605E-02 0.92284745E+02</pdfrwt>
<totfact> 0.13473772E+05</totfact>
</mgrwt>
</event>
<event>
 5    1  0.1197825E+001  0.8996951E+02  0.7546771E-02  0.1302926E+00
         -1   -1    0    0    0  501 -0.00000000000E+00  0.00000000000E+00  0.58644348767E+02  0.58644348767E+02  0.00000000000E+00 0.  1.
          1   -1    0    0  501    0  0.00000000000E+00 -0.00000000000E+00 -0.34506791808E+02  0.34506791808E+02  0.00000000000E+00 0. -1.
         23    2    1    2    0    0  0.00000000000E+00  0.00000000000E+00  0.24137556959E+02  0.93151140575E+02  0.89969513361E+02 0.  0.
        -11    1    3    3    0    0  0.43102959753E+02  0.10965794098E+02  0.50837537060E+01  0.44765593165E+02  0.00000000000E+00 0. -1.
         11    1    3    3    0    0 -0.43102959753E+02 -0.10965794098E+02  0.19053803253E+02  0.48385547409E+02  0.00000000000E+00 0.  1.
<mgrwt>
<rscale>  0 0.89969513E+02</rscale>
<asrwt>0</asrwt>
<pdfrwt beam="2">  1        1 0.53087372E-02 0.89969513E+02</pdfrwt>
<pdfrwt beam="1">  1       -1 0.90222075E-02 0.89969513E+02</pdfrwt>
<totfact> 0.92049774E+04</totfact>
</mgrwt>
</event>
<event>
 5    1  0.1197825E+001  0.9139687E+02  0.7546771E-02  0.1299504E+00
         -1   -1    0    0    0  501 -0.00000000000E+00  0.00000000000E+00  0.18656644471E+03  0.18656644471E+03  0.00000000000E+00 0.  1.
          1   -1    0    0  501    0  0.00000000000E+00 -0.00000000000E+00 -0.11193583212E+02  0.11193583212E+02  0.00000000000E+00 0. -1.
         23    2    1    2    0    0  0.00000000000E+00  0.00000000000E+00  0.17537286150E+03  0.19776002793E+03  0.91396871359E+02 0.  0.
        -13    1    3    3    0    0  0.39321204453E+02 -0.19117630703E+02  0.58923511868E+02  0.73373163856E+02  0.00000000000E+00 0. -1.
         13    1    3    3    0    0 -0.39321204453E+02  0.19117630703E+02  0.11644934963E+03  0.12438686407E+03  0.00000000000E+00 0.  1.
<mgrwt>
<rscale>  0 0.91396871E+02</rscale>
<asrwt>0</asrwt>
<pdfrwt beam="2">  1        1 0.17220899E-02 0.91396871E+02</pdfrwt>
<pdfrwt beam="1">  1       -1 0.28702528E-01 0.91396871E+02</pdfrwt>
<totfact> 0.70341356E+04</totfact>
</mgrwt>
</event>
<event>
 5    1  0.1197825E+001  0.9112354E+02  0.7546771E-02  0.1300153E+00
         -3   -1    0    0    0  501 -0.00000000000E+00  0.00000000000E+00  0.71635732761E+01  0.71635732761E+01  0.00000000000E+00 0.  1.
          3   -1    0    0  501    0  0.00000000000E+00 -0.00000000000E+00 -0.28978202754E+03  0.28978202754E+03  0.00000000000E+00 0. -1.
         23    2    1    2    0    0  0.00000000000E+00  0.00000000000E+00 -0.28261845426E+03  0.29694560082E+03  0.91123537868E+02 0.  0.
        -13    1    3    3    0    0  0.32484252622E+02  0.18532732252E+02 -0.56508359839E+02  0.67763438260E+02  0.00000000000E+00 0.  1.
         13    1    3    3    0    0 -0.32484252622E+02 -0.18532732252E+02 -0.22611009443E+03  0.22918216256E+03  0.00000000000E+00 0. -1.
<mgrwt>
<rscale>  0 0.91123538E+02</rscale>
<asrwt>0</asrwt>
<pdfrwt beam="2">  1        3 0.44581855E-01 0.91123538E+02</pdfrwt>
<pdfrwt beam="1">  1       -3 0.11020881E-02 0.91123538E+02</pdfrwt>
<totfact> 0.24187865E+04</totfact>
</mgrwt>
</event>
<event>
 5    1  0.1197825E+001  0.9266755E+02  0.7546771E-02  0.1296517E+00
         -1   -1    0    0    0  501 -0.00000000000E+00  0.00000000000E+00  0.53061445816E+02  0.53061445816E+02  0.00000000000E+00 0.  1.
          1   -1    0    0  501    0  0.00000000000E+00 -0.00000000000E+00 -0.40459107790E+02  0.40459107790E+02  0.00000000000E+00 0. -1.
         23    2    1    2    0    0  0.00000000000E+00  0.00000000000E+00  0.12602338026E+02  0.93520553606E+02  0.92667551079E+02 0.  0.
        -13    1    3    3    0    0 -0.19810464104E+02  0.11805056702E+02 -0.34255876080E+02  0.41295022675E+02  0.00000000000E+00 0. -1.
         13    1    3    3    0    0  0.19810464104E+02 -0.11805056702E+02  0.46858214106E+02  0.52225530930E+02  0.00000000000E+00 0.  1.
<mgrwt>
<rscale>  0 0.92667551E+02</rscale>
<asrwt>0</asrwt>
<pdfrwt beam="2">  1        1 0.62244781E-02 0.92667551E+02</pdfrwt>
<pdfrwt beam="1">  1       -1 0.81632994E-02 0.92667551E+02</pdfrwt>
<totfact> 0.86747235E+04</totfact>
</mgrwt>
</event>
<event>
 5    1  0.1197825E+001  0.9047916E+02  0.7546771E-02  0.1301695E+00
         -2   -1    0    0    0  501 -0.00000000000E+00  0.00000000000E+00  0.21817106843E+03  0.21817106843E+03  0.00000000000E+00 0.  1.
          2   -1    0    0  501    0  0.00000000000E+00 -0.00000000000E+00 -0.93808015636E+01  0.93808015636E+01  0.00000000000E+00 0. -1.
         23    2    1    2    0    0  0.00000000000E+00  0.00000000000E+00  0.20879026687E+03  0.22755187000E+03  0.90479157818E+02 0.  0.
        -11    1    3    3    0    0 -0.36851414579E+02  0.28548599048E+01  0.16999871969E+03  0.17397051956E+03  0.00000000000E+00 0.  1.
         11    1    3    3    0    0  0.36851414579E+02 -0.28548599048E+01  0.38791547183E+02  0.53581350434E+02  0.00000000000E+00 0. -1.
<mgrwt>
<rscale>  0 0.90479158E+02</rscale>
<asrwt>0</asrwt>
<pdfrwt beam="2">  1        2 0.14432004E-02 0.90479158E+02</pdfrwt>
<pdfrwt beam="1">  1       -2 0.33564776E-01 0.90479158E+02</pdfrwt>
<totfact> 0.61143227E+04</totfact>
</mgrwt>
</event>
<event>
 5    1  0.1197825E+001  0.9139680E+02  0.7546771E-02  0.1299504E+00
         -1   -1    0    0    0  501 -0.00000000000E+00  0.00000000000E+00  0.65015715320E+01  0.65015715320E+01  0.00000000000E+00 0.  1.
          1   -1    0    0  501    0  0.00000000000E+00 -0.00000000000E+00 -0.32120599881E+03  0.32120599881E+03  0.00000000000E+00 0. -1.
         23    2    1    2    0    0  0.00000000000E+00  0.00000000000E+00 -0.31470442727E+03  0.32770757034E+03  0.91396800332E+02 0.  0.
        -13    1    3    3    0    0  0.29580685425E+02 -0.27919478295E+02 -0.23203406093E+03  0.23557232361E+03  0.00000000000E+00 0. -1.
         13    1    3    3    0    0 -0.29580685425E+02  0.27919478295E+02 -0.82670366346E+02  0.92135246732E+02  0.00000000000E+00 0.  1.
<mgrwt>
<rscale>  0 0.91396800E+02</rscale>
<asrwt>0</asrwt>
<pdfrwt beam="2">  1        1 0.49416302E-01 0.91396800E+02</pdfrwt>
<pdfrwt beam="1">  1       -1 0.10002419E-02 0.91396800E+02</pdfrwt>
<totfact> 0.12895185E+05</totfact>
</mgrwt>
</event>
<event>
 5    1  0.1197825E+001  0.9202789E+02  0.7546771E-02  0.1298014E+00
         -2   -1    0    0    0  501 -0.00000000000E+00  0.00000000000E+00  0.22498772763E+03  0.22498772763E+03  0.00000000000E+00 0.  1.
          2   -1    0    0  501    0  0.00000000000E+00 -0.00000000000E+00 -0.94106610636E+01  0.94106610636E+01  0.00000000000E+00 0. -1.
         23    2    1    2    0    0  0.00000000000E+00  0.00000000000E+00  0.21557706656E+03  0.23439838869E+03  0.92027892471E+02 0.  0.
        -11    1    3    3    0    0 -0.47092203274E+00 -0.44603357523E+02  0.13656012239E+03  0.14366053145E+03  0.00000000000E+00 0.  1.
         11    1    3    3    0    0  0.47092203274E+00  0.44603357523E+02  0.79016944178E+02  0.90737857243E+02  0.00000000000E+00 0. -1.
<mgrwt>
<rscale>  0 0.92027892E+02</rscale>
<asrwt>0</asrwt>
<pdfrwt beam="2">  1        2 0.14477942E-02 0.92027892E+02</pdfrwt>
<pdfrwt beam="1">  1       -2 0.34613493E-01 0.92027892E+02</pdfrwt>
<totfact> 0.57716901E+04</totfact>
</mgrwt>
</event>
<event>
 5    1  0.1197825E+001  0.8994837E+02  0.7546771E-02  0.1302977E+00
         -2   -1    0    0    0  501 -0.00000000000E+00  0.00000000000E+00  0.35473608829E+03  0.35473608829E+03  0.00000000000E+00 0.  1.
          2   -1    0    0  501    0  0.00000000000E+00 -0.00000000000E+00 -0.57019208753E+01  0.57019208753E+01  0.00000000000E+00 0. -1.
         23    2    1    2    0    0  0.00000000000E+00  0.00000000000E+00  0.34903416741E+03  0.36043800916E+03  0.89948365344E+02 0.  0.
        -13    1    3    3    0    0 -0.22553282670E+02 -0.37400477433E+02  0.21753225559E+03  0.22187322618E+03  0.00000000000E+00 0.  1.
         13    1    3    3    0    0  0.22553282670E+02  0.37400477433E+02  0.13150191182E+03  0.13856478298E+03  0.00000000000E+00 0. -1.
<mgrwt>
<rscale>  0 0.89948365E+02</rscale>
<asrwt>0</asrwt>
<pdfrwt beam="2">  1        2 0.87721888E-03 0.89948365E+02</pdfrwt>
<pdfrwt beam="1">  1       -2 0.54574765E-01 0.89948365E+02</pdfrwt>
<totfact> 0.47810456E+04</totfact>
</mgrwt>
</event>
<event>
 5    1  0.1197825E+001  0.8671695E+02  0.7546771E-02  0.1311003E+00
         -3   -1    0    0    0  501 -0.00000000000E+00  0.00000000000E+00  0.91375667484E+01  0.91375667484E+01  0.00000000000E+00 0.  1.
          3   -1    0    0  501    0  0.00000000000E+00 -0.00000000000E+00 -0.20573939400E+03  0.20573939400E+03  0.00000000000E+00 0. -1.
         23    2    1    2    0    0  0.00000000000E+00  0.00000000000E+00 -0.19660182725E+03  0.21487696075E+03  0.86716952102E+02 0.  0.
        -13    1    3    3    0    0  0.10617156637E+02  0.41942036457E+02 -0.10535274255E+03  0.11389055623E+03  0.00000000000E+00 0.  1.
         13    1    3    3    0    0 -0.10617156637E+02 -0.41942036457E+02 -0.91249084704E+02  0.10098640451E+03  0.00000000000E+00 0. -1.
<mgrwt>
<rscale>  0 0.86716952E+02</rscale>
<asrwt>0</asrwt>
<pdfrwt beam="2">  1        3 0.31652216E-01 0.86716952E+02</pdfrwt>
<pdfrwt beam="1">  1       -3 0.14057795E-02 0.86716952E+02</pdfrwt>
<totfact> 0.31745484E+04</totfact>
</mgrwt>
</event>
<event>
 5    1  0.1197825E+001  0.9353106E+02  0.7546771E-02  0.1294519E+00
          1   -1    0    0  501    0  0.00000000000E+00  0.00000000000E+00  0.16411982859E+03  0.16411982859E+03  0.00000000000E+00 0. -1.
         -1   -1    0    0    0  501 -0.00000000000E+00 -0.00000000000E+00 -0.13325720296E+02  0.13325720296E+02  0.00000000000E+00 0.  1.
         23    2    1    2    0    0  0.00000000000E+00  0.00000000000E+00  0.15079410829E+03  0.17744554889E+03  0.93531062879E+02 0.  0.
        -13    1    3    3    0    0 -0.26697108065E+02 -0.20120808439E+02  0.13355036504E+02  0.35999159870E+02  0.00000000000E+00 0.  1.
         13    1    3    3    0    0  0.26697108065E+02  0.20120808439E+02  0.13743907179E+03  0.14144638902E+03  0.00000000000E+00 0. -1.
<mgrwt>
<rscale>  0 0.93531063E+02</rscale>
<asrwt>0</asrwt>
<pdfrwt beam="1">  1        1 0.25249203E-01 0.93531063E+02</pdfrwt>
<pdfrwt beam="2">  1       -1 0.20501109E-02 0.93531063E+02</pdfrwt>
<totfact> 0.10644007E+05</totfact>
</mgrwt>
</event>
<event>
 5    1  0.1197825E+001  0.9081449E+02  0.7546771E-02  0.1300891E+00
          2   -1    0    0  501    0  0.00000000000E+00  0.00000000000E+00  0.85476790312E+02  0.85476790312E+02  0.00000000000E+00 0. -1.
         -2   -1    0    0    0  501 -0.00000000000E+00 -0.00000000000E+00 -0.24121376284E+02  0.24121376284E+02  0.00000000000E+00 0.  1.
         23    2    1    2    0    0  0.00000000000E+00  0.00000000000E+00  0.61355414029E+02  0.10959816660E+03  0.90814488330E+02 0.  0.
        -13    1    3    3    0    0  0.88111871770E+01  0.37086143012E+02  0.90042578968E+00  0.38129119968E+02  0.00000000000E+00 0.  1.
         13    1    3    3    0    0 -0.88111871770E+01 -0.37086143012E+02  0.60454988239E+02  0.71469046628E+02  0.00000000000E+00 0. -1.
<mgrwt>
<rscale>  0 0.90814488E+02</rscale>
<asrwt>0</asrwt>
<pdfrwt beam="1">  1        2 0.13150275E-01 0.90814488E+02</pdfrwt>
<pdfrwt beam="2">  1       -2 0.37109810E-02 0.90814488E+02</pdfrwt>
<totfact> 0.11837067E+05</totfact>
</mgrwt>
</event>
<event>
 5    1  0.1197825E+001  0.8134828E+02  0.7546771E-02  0.1325268E+00
          3   -1    0    0  501    0  0.00000000000E+00  0.00000000000E+00  0.85888559124E+02  0.85888559124E+02  0.00000000000E+00 0. -1.
         -3   -1    0    0    0  501 -0.00000000000E+00 -0.00000000000E+00 -0.19262004633E+02  0.19262004633E+02  0.00000000000E+00 0.  1.
         23    2    1    2    0    0  0.00000000000E+00  0.00000000000E+00  0.66626554490E+02  0.10515056376E+03  0.81348283911E+02 0.  0.
        -13    1    3    3    0    0  0.71185996383E+01  0.37024134383E+02  0.53040734413E+02  0.65075191085E+02  0.00000000000E+00 0. -1.
         13    1    3    3    0    0 -0.71185996383E+01 -0.37024134383E+02  0.13585820077E+02  0.40075372672E+02  0.00000000000E+00 0.  1.
<mgrwt>
<rscale>  0 0.81348284E+02</rscale>
<asrwt>0</asrwt>
<pdfrwt beam="1">  1        3 0.13213624E-01 0.81348284E+02</pdfrwt>
<pdfrwt beam="2">  1       -3 0.29633854E-02 0.81348284E+02</pdfrwt>
<totfact> 0.46653288E+04</totfact>
</mgrwt>
</event>
<event>
 5    1  0.1197825E+001  0.9118167E+02  0.7546771E-02  0.1300015E+00
         -1   -1    0    0    0  501 -0.00000000000E+00  0.00000000000E+00  0.25860138775E+02  0.25860138775E+02  0.00000000000E+00 0.  1.
          1   -1    0    0  501    0  0.00000000000E+00 -0.00000000000E+00 -0.80375609625E+02  0.80375609625E+02  0.00000000000E+00 0. -1.
         23    2    1    2    0    0  0.00000000000E+00  0.00000000000E+00 -0.54515470850E+02  0.10623574840E+03  0.91181674015E+02 0.  0.
        -11    1    3    3    0    0 -0.43335142038E+02  0.11483005720E+02 -0.36916859746E+02  0.58074508085E+02  0.00000000000E+00 0. -1.
         11    1    3    3    0    0  0.43335142038E+02 -0.11483005720E+02 -0.17598611104E+02  0.48161240314E+02  0.00000000000E+00 0.  1.
<mgrwt>
<rscale>  0 0.91181674E+02</rscale>
<asrwt>0</asrwt>
<pdfrwt beam="2">  1        1 0.12365478E-01 0.91181674E+02</pdfrwt>
<pdfrwt beam="1">  1       -1 0.39784829E-02 0.91181674E+02</pdfrwt>
<totfact> 0.10080403E+05</totfact>
</mgrwt>
</event>
<event>
 5    1  0.1197825E+001  0.6976301E+02  0.7546771E-02  0.1360901E+00
         -3   -1    0    0    0  501 -0.00000000000E+00  0.00000000000E+00  0.10181948909E+03  0.10181948909E+03  0.00000000000E+00 0.  1.
          3   -1    0    0  501    0  0.00000000000E+00 -0.00000000000E+00 -0.11949767906E+02  0.11949767906E+02  0.00000000000E+00 0. -1.
         23    2    1    2    0    0  0.00000000000E+00  0.00000000000E+00  0.89869721181E+02  0.11376925699E+03  0.69763006327E+02 0.  0.
        -11    1    3    3    0    0 -0.31195386001E+02 -0.15426036606E+01  0.19608245014E+02  0.36878381286E+02  0.00000000000E+00 0. -1.
         11    1    3    3    0    0  0.31195386001E+02  0.15426036606E+01  0.70261476168E+02  0.76890875707E+02  0.00000000000E+00 0.  1.
<mgrwt>
<rscale>  0 0.69763006E+02</rscale>
<asrwt>0</asrwt>
<pdfrwt beam="2">  1        3 0.18384259E-02 0.69763006E+02</pdfrwt>
<pdfrwt beam="1">  1       -3 0.15664536E-01 0.69763006E+02</pdfrwt>
<totfact> 0.68837709E+04</totfact>
</mgrwt>
</event>
<event>
 5    1  0.1197825E+001  0.9266938E+02  0.7546771E-02  0.1296513E+00
          3   -1    0    0  501    0  0.00000000000E+00  0.00000000000E+00  0.70401807803E+02  0.70401807803E+02  0.00000000000E+00 0. -1.
         -3   -1    0    0    0  501 -0.00000000000E+00 -0.00000000000E+00 -0.30495005329E+02  0.30495005329E+02  0.00000000000E+00 0.  1.
         23    2    1    2    0    0  0.00000000000E+00  0.00000000000E+00  0.39906802474E+02  0.10089681313E+03  0.92669380146E+02 0.  0.
        -13    1    3    3    0    0 -0.41571092837E+02 -0.65648580900E+01 -0.11490598851E+01  0.42101941286E+02  0.00000000000E+00 0.  1.
         13    1    3    3    0    0  0.41571092837E+02  0.65648580900E+01  0.41055862359E+02  0.58794871847E+02  0.00000000000E+00 0. -1.
<mgrwt>
<rscale>  0 0.92669380E+02</rscale>
<asrwt>0</asrwt>
<pdfrwt beam="1">  1        3 0.10831047E-01 0.92669380E+02</pdfrwt>
<pdfrwt beam="2">  1       -3 0.46915393E-02 0.92669380E+02</pdfrwt>
<totfact> 0.33104924E+04</totfact>
</mgrwt>
</event>
<event>
 5    1  0.1197825E+001  0.9687312E+02  0.7546771E-02  0.1287012E+00
         -2   -1    0    0    0  501 -0.00000000000E+00  0.00000000000E+00  0.80919875200E+01  0.80919875200E+01  0.00000000000E+00 0.  1.
          2   -1    0    0  501    0  0.00000000000E+00 -0.00000000000E+00 -0.28992882829E+03  0.28992882829E+03  0.00000000000E+00 0. -1.
         23    2    1    2    0    0  0.00000000000E+00  0.00000000000E+00 -0.28183684077E+03  0.29802081581E+03  0.96873122386E+02 0.  0.
        -11    1    3    3    0    0  0.32503660839E+01 -0.40705127147E+02 -0.60776590607E+02  0.73220667995E+02  0.00000000000E+00 0.  1.
         11    1    3    3    0    0 -0.32503660839E+01  0.40705127147E+02 -0.22106025016E+03  0.22480014781E+03  0.00000000000E+00 0. -1.
<mgrwt>
<rscale>  0 0.96873122E+02</rscale>
<asrwt>0</asrwt>
<pdfrwt beam="2">  1        2 0.44604439E-01 0.96873122E+02</pdfrwt>
<pdfrwt beam="1">  1       -2 0.12449211E-02 0.96873122E+02</pdfrwt>
<totfact> 0.15079269E+05</totfact>
</mgrwt>
</event>
<event>
 5    1  0.1197825E+001  0.8984220E+02  0.7546771E-02  0.1303234E+00
          2   -1    0    0  501    0  0.00000000000E+00  0.00000000000E+00  0.37790630525E+02  0.37790630525E+02  0.00000000000E+00 0. -1.
         -2   -1    0    0    0  501 -0.00000000000E+00 -0.00000000000E+00 -0.53396969514E+02  0.53396969514E+02  0.00000000000E+00 0.  1.
         23    2    1    2    0    0  0.00000000000E+00  0.00000000000E+00 -0.15606338989E+02  0.91187600039E+02  0.89842198238E+02 0.  0.
        -11    1    3    3    0    0  0.19852058763E+02 -0.30564573957E+02 -0.34456806320E+02  0.50155447561E+02  0.00000000000E+00 0.  1.
         11    1    3    3    0    0 -0.19852058763E+02  0.30564573957E+02  0.18850467331E+02  0.41032152477E+02  0.00000000000E+00 0. -1.
<mgrwt>
<rscale>  0 0.89842198E+02</rscale>
<asrwt>0</asrwt>
<pdfrwt beam="1">  1        2 0.58139432E-02 0.89842198E+02</pdfrwt>
<pdfrwt beam="2">  1       -2 0.82149184E-02 0.89842198E+02</pdfrwt>
<totfact> 0.98104828E+04</totfact>
</mgrwt>
</event>
<event>
 5    1  0.1197825E+001  0.7002282E+02  0.7546771E-02  0.1360015E+00
         -2   -1    0    0    0  501 -0.00000000000E+00  0.00000000000E+00  0.38603700457E+02  0.38603700457E+02  0.00000000000E+00 0.  1.
          2   -1    0    0  501    0  0.00000000000E+00 -0.00000000000E+00 -0.31753405346E+02  0.31753405346E+02  0.00000000000E+00 0. -1.
         23    2    1    2    0    0  0.00000000000E+00  0.00000000000E+00  0.68502951107E+01  0.70357105803E+02  0.70022823378E+02 0.  0.
        -11    1    3    3    0    0  0.94077519580E+01  0.29640674078E+02 -0.12736527255E+02  0.33604977060E+02  0.00000000000E+00 0. -1.
         11    1    3    3    0    0 -0.94077519580E+01 -0.29640674078E+02  0.19586822366E+02  0.36752128743E+02  0.00000000000E+00 0.  1.
<mgrwt>
<rscale>  0 0.70022823E+02</rscale>
<asrwt>0</asrwt>
<pdfrwt beam="2">  1        2 0.48851392E-02 0.70022823E+02</pdfrwt>
<pdfrwt beam="1">  1       -2 0.59390309E-02 0.70022823E+02</pdfrwt>
<totfact> 0.19123186E+05</totfact>
</mgrwt>
</event>
<event>
 5    1  0.1197825E+001  0.9000214E+02  0.7546771E-02  0.1302847E+00
          4   -1    0    0  501    0  0.00000000000E+00  0.00000000000E+00  0.72457832231E+02  0.72457832231E+02  0.00000000000E+00 0. -1.
         -4   -1    0    0    0  501 -0.00000000000E+00 -0.00000000000E+00 -0.27948616608E+02  0.27948616608E+02  0.00000000000E+00 0.  1.
         23    2    1    2    0    0  0.00000000000E+00  0.00000000000E+00  0.44509215623E+02  0.10040644884E+03  0.90002137159E+02 0.  0.
        -11    1    3    3    0    0  0.69743687440E+01 -0.39427975211E+02  0.45168979337E+02  0.60360945511E+02  0.00000000000E+00 0. -1.
         11    1    3    3    0    0 -0.69743687440E+01  0.39427975211E+02 -0.65976371474E+00  0.40045503328E+02  0.00000000000E+00 0.  1.
<mgrwt>
<rscale>  0 0.90002137E+02</rscale>
<asrwt>0</asrwt>
<pdfrwt beam="1">  1        4 0.11147359E-01 0.90002137E+02</pdfrwt>
<pdfrwt beam="2">  1       -4 0.42997872E-02 0.90002137E+02</pdfrwt>
<totfact> 0.27376268E+04</totfact>
</mgrwt>
</event>
<event>
 5    1  0.1197825E+001  0.9135196E+02  0.7546771E-02  0.1299610E+00
         -2   -1    0    0    0  501 -0.00000000000E+00  0.00000000000E+00  0.11882078576E+02  0.11882078576E+02  0.00000000000E+00 0.  1.
          2   -1    0    0  501    0  0.00000000000E+00 -0.00000000000E+00 -0.17558335884E+03  0.17558335884E+03  0.00000000000E+00 0. -1.
         23    2    1    2    0    0  0.00000000000E+00  0.00000000000E+00 -0.16370128026E+03  0.18746543742E+03  0.91351962572E+02 0.  0.
        -11    1    3    3    0    0  0.34071609333E+02 -0.26408162655E+02 -0.50862251992E+02  0.66672590283E+02  0.00000000000E+00 0.  1.
         11    1    3    3    0    0 -0.34071609333E+02  0.26408162655E+02 -0.11283902827E+03  0.12079284713E+03  0.00000000000E+00 0. -1.
<mgrwt>
<rscale>  0 0.91351963E+02</rscale>
<asrwt>0</asrwt>
<pdfrwt beam="2">  1        2 0.27012824E-01 0.91351963E+02</pdfrwt>
<pdfrwt beam="1">  1       -2 0.18280121E-02 0.91351963E+02</pdfrwt>
<totfact> 0.14687875E+05</totfact>
</mgrwt>
</event>
<event>
 5    1  0.1197825E+001  0.9097860E+02  0.7546771E-02  0.1300499E+00
         -1   -1    0    0    0  501 -0.00000000000E+00  0.00000000000E+00  0.16454525213E+02  0.16454525213E+02  0.00000000000E+00 0.  1.
          1   -1    0    0  501    0  0.00000000000E+00 -0.00000000000E+00 -0.12575728697E+03  0.12575728697E+03  0.00000000000E+00 0. -1.
         23    2    1    2    0    0  0.00000000000E+00  0.00000000000E+00 -0.10930276176E+03  0.14221181219E+03  0.90978600763E+02 0.  0.
        -11    1    3    3    0    0  0.44686913154E+02  0.84987977456E+01 -0.55207731372E+02  0.71533512242E+02  0.00000000000E+00 0. -1.
         11    1    3    3    0    0 -0.44686913154E+02 -0.84987977456E+01 -0.54095030388E+02  0.70678299944E+02  0.00000000000E+00 0.  1.
<mgrwt>
<rscale>  0 0.90978601E+02</rscale>
<asrwt>0</asrwt>
<pdfrwt beam="2">  1        1 0.19347276E-01 0.90978601E+02</pdfrwt>
<pdfrwt beam="1">  1       -1 0.25314653E-02 0.90978601E+02</pdfrwt>
<totfact> 0.10926942E+05</totfact>
</mgrwt>
</event>
<event>
 5    1  0.1197825E+001  0.9181081E+02  0.7546771E-02  0.1298525E+00
         -1   -1    0    0    0  501 -0.00000000000E+00  0.00000000000E+00  0.65898287393E+02  0.65898287393E+02  0.00000000000E+00 0.  1.
          1   -1    0    0  501    0  0.00000000000E+00 -0.00000000000E+00 -0.31978165353E+02  0.31978165353E+02  0.00000000000E+00 0. -1.
         23    2    1    2    0    0  0.00000000000E+00  0.00000000000E+00  0.33920122040E+02  0.97876452746E+02  0.91810812669E+02 0.  0.
        -13    1    3    3    0    0  0.35547752172E+02  0.24371822107E+02  0.33805195021E+02  0.54776086094E+02  0.00000000000E+00 0.  1.
         13    1    3    3    0    0 -0.35547752172E+02 -0.24371822107E+02  0.11492701868E+00  0.43100366652E+02  0.00000000000E+00 0. -1.
<mgrwt>
<rscale>  0 0.91810813E+02</rscale>
<asrwt>0</asrwt>
<pdfrwt beam="2">  1        1 0.49197178E-02 0.91810813E+02</pdfrwt>
<pdfrwt beam="1">  1       -1 0.10138198E-01 0.91810813E+02</pdfrwt>
<totfact> 0.85852991E+04</totfact>
</mgrwt>
</event>
<event>
 5    1  0.1197825E+001  0.9063823E+02  0.7546771E-02  0.1301313E+00
         -3   -1    0    0    0  501 -0.00000000000E+00  0.00000000000E+00  0.75524288744E+01  0.75524288744E+01  0.00000000000E+00 0.  1.
          3   -1    0    0  501    0  0.00000000000E+00 -0.00000000000E+00 -0.27194194799E+03  0.27194194799E+03  0.00000000000E+00 0. -1.
         23    2    1    2    0    0  0.00000000000E+00  0.00000000000E+00 -0.26438951911E+03  0.27949437686E+03  0.90638230789E+02 0.  0.
        -11    1    3    3    0    0  0.33168971316E+02 -0.29792814454E+02 -0.10713761701E+03  0.11604422187E+03  0.00000000000E+00 0.  1.
         11    1    3    3    0    0 -0.33168971316E+02  0.29792814454E+02 -0.15725190211E+03  0.16345015499E+03  0.00000000000E+00 0. -1.
<mgrwt>
<rscale>  0 0.90638231E+02</rscale>
<asrwt>0</asrwt>
<pdfrwt beam="2">  1        3 0.41837221E-01 0.90638231E+02</pdfrwt>
<pdfrwt beam="1">  1       -3 0.11619122E-02 0.90638231E+02</pdfrwt>
<totfact> 0.25245047E+04</totfact>
</mgrwt>
</event>
<event>
 5    1  0.1197825E+001  0.9204303E+02  0.7546771E-02  0.1297978E+00
          1   -1    0    0  501    0  0.00000000000E+00  0.00000000000E+00  0.38740755802E+02  0.38740755802E+02  0.00000000000E+00 0. -1.
         -1   -1    0    0    0  501 -0.00000000000E+00 -0.00000000000E+00 -0.54670590454E+02  0.54670590454E+02  0.00000000000E+00 0.  1.
         23    2    1    2    0    0  0.00000000000E+00  0.00000000000E+00 -0.15929834652E+02  0.93411346255E+02  0.92043033290E+02 0.  0.
        -11    1    3    3    0    0 -0.22884965404E+02 -0.38036239235E+02 -0.20290541629E+02  0.48807614326E+02  0.00000000000E+00 0. -1.
         11    1    3    3    0    0  0.22884965404E+02  0.38036239235E+02  0.43607069763E+01  0.44603731929E+02  0.00000000000E+00 0.  1.
<mgrwt>
<rscale>  0 0.92043033E+02</rscale>
<asrwt>0</asrwt>
<pdfrwt beam="1">  1        1 0.59601163E-02 0.92043033E+02</pdfrwt>
<pdfrwt beam="2">  1       -1 0.84108600E-02 0.92043033E+02</pdfrwt>
<totfact> 0.87837107E+04</totfact>
</mgrwt>
</event>
<event>
 5    1  0.1197825E+001  0.9148546E+02  0.7546771E-02  0.1299294E+00
          1   -1    0    0  501    0  0.00000000000E+00  0.00000000000E+00  0.93853177644E+02  0.93853177644E+02  0.00000000000E+00 0. -1.
         -1   -1    0    0    0  501 -0.00000000000E+00 -0.00000000000E+00 -0.22294370381E+02  0.22294370381E+02  0.00000000000E+00 0.  1.
         23    2    1    2    0    0  0.00000000000E+00  0.00000000000E+00  0.71558807263E+02  0.11614754803E+03  0.91485463411E+02 0.  0.
        -11    1    3    3    0    0 -0.93838769934E+01  0.33944736577E+02 -0.12803063990E+01  0.35241190008E+02  0.00000000000E+00 0.  1.
         11    1    3    3    0    0  0.93838769934E+01 -0.33944736577E+02  0.72839113662E+02  0.80906358018E+02  0.00000000000E+00 0. -1.
<mgrwt>
<rscale>  0 0.91485463E+02</rscale>
<asrwt>0</asrwt>
<pdfrwt beam="1">  1        1 0.14438950E-01 0.91485463E+02</pdfrwt>
<pdfrwt beam="2">  1       -1 0.34299032E-02 0.91485463E+02</pdfrwt>
<totfact> 0.10241343E+05</totfact>
</mgrwt>
</event>
<event>
 5    1  0.1197825E+001  0.9205504E+02  0.7546771E-02  0.1297950E+00
          1   -1    0    0  501    0  0.00000000000E+00  0.00000000000E+00  0.55710859271E+02  0.55710859271E+02  0.00000000000E+00 0. -1.
         -1   -1    0    0    0  501 -0.00000000000E+00 -0.00000000000E+00 -0.38027280152E+02  0.38027280152E+02  0.00000000000E+00 0.  1.
         23    2    1    2    0    0  0.00000000000E+00  0.00000000000E+00  0.17683579119E+02  0.93738139423E+02  0.92055036864E+02 0.  0.
        -11    1    3    3    0    0  0.13917891986E+02  0.27459826032E+02  0.43684097857E+02  0.53442026240E+02  0.00000000000E+00 0. -1.
         11    1    3    3    0    0 -0.13917891986E+02 -0.27459826032E+02 -0.26000518738E+02  0.40296113183E+02  0.00000000000E+00 0.  1.
<mgrwt>
<rscale>  0 0.92055037E+02</rscale>
<asrwt>0</asrwt>
<pdfrwt beam="1">  1        1 0.85709014E-02 0.92055037E+02</pdfrwt>
<pdfrwt beam="2">  1       -1 0.58503508E-02 0.92055037E+02</pdfrwt>
<totfact> 0.92786931E+04</totfact>
</mgrwt>
</event>
<event>
 5    1  0.1197825E+001  0.9871438E+02  0.7546771E-02  0.1283023E+00
          3   -1    0    0  501    0  0.00000000000E+00  0.00000000000E+00  0.29885381994E+02  0.29885381994E+02  0.00000000000E+00 0. -1.
         -3   -1    0    0    0  501 -0.00000000000E+00 -0.00000000000E+00 -0.81515842326E+02  0.81515842326E+02  0.00000000000E+00 0.  1.
         23    2    1    2    0    0  0.00000000000E+00  0.00000000000E+00 -0.51630460332E+02  0.11140122432E+03  0.98714377604E+02 0.  0.
        -11    1    3    3    0    0  0.19486894052E+02 -0.44556898278E+02 -0.35329393910E+02  0.60110084827E+02  0.00000000000E+00 0.  1.
         11    1    3    3    0    0 -0.19486894052E+02  0.44556898278E+02 -0.16301066422E+02  0.51291139492E+02  0.00000000000E+00 0. -1.
<mgrwt>
<rscale>  0 0.98714378E+02</rscale>
<asrwt>0</asrwt>
<pdfrwt beam="1">  1        3 0.45977511E-02 0.98714378E+02</pdfrwt>
<pdfrwt beam="2">  1       -3 0.12540899E-01 0.98714378E+02</pdfrwt>
<totfact> 0.27238850E+04</totfact>
</mgrwt>
</event>
<event>
 5    1  0.1197825E+001  0.9051083E+02  0.7546771E-02  0.1301619E+00
         -2   -1    0    0    0  501 -0.00000000000E+00  0.00000000000E+00  0.37967947285E+02  0.37967947285E+02  0.00000000000E+00 0. -1.
          2   -1    0    0  501    0  0.00000000000E+00 -0.00000000000E+00 -0.53941615714E+02  0.53941615714E+02  0.00000000000E+00 0.  1.
         23    2    1    2    0    0  0.00000000000E+00  0.00000000000E+00 -0.15973668429E+02  0.91909562999E+02  0.90510826356E+02 0.  0.
        -13    1    3    3    0    0 -0.76739866091E+00  0.15082971716E+02 -0.51307187107E+02  0.53483758145E+02  0.00000000000E+00 0.  1.
         13    1    3    3    0    0  0.76739866091E+00 -0.15082971716E+02  0.35333518678E+02  0.38425804854E+02  0.00000000000E+00 0. -1.
<mgrwt>
<rscale>  0 0.90510826E+02</rscale>
<asrwt>0</asrwt>
<pdfrwt beam="2">  1        2 0.82987102E-02 0.90510826E+02</pdfrwt>
<pdfrwt beam="1">  1       -2 0.58412226E-02 0.90510826E+02</pdfrwt>
<totfact> 0.10527569E+05</totfact>
</mgrwt>
</event>
<event>
 5    1  0.1197825E+001  0.9156254E+02  0.7546771E-02  0.1299111E+00
          2   -1    0    0  501    0  0.00000000000E+00  0.00000000000E+00  0.80056484033E+02  0.80056484033E+02  0.00000000000E+00 0. -1.
         -2   -1    0    0    0  501 -0.00000000000E+00 -0.00000000000E+00 -0.26180575973E+02  0.26180575973E+02  0.00000000000E+00 0.  1.
         23    2    1    2    0    0  0.00000000000E+00  0.00000000000E+00  0.53875908060E+02  0.10623706001E+03  0.91562543921E+02 0.  0.
        -13    1    3    3    0    0 -0.25907980062E+01  0.45671184599E+02  0.29063343166E+02  0.54196376751E+02  0.00000000000E+00 0.  1.
         13    1    3    3    0    0  0.25907980062E+01 -0.45671184599E+02  0.24812564894E+02  0.52040683254E+02  0.00000000000E+00 0. -1.
<mgrwt>
<rscale>  0 0.91562544E+02</rscale>
<asrwt>0</asrwt>
<pdfrwt beam="1">  1        2 0.12316382E-01 0.91562544E+02</pdfrwt>
<pdfrwt beam="2">  1       -2 0.40277809E-02 0.91562544E+02</pdfrwt>
<totfact> 0.11353730E+05</totfact>
</mgrwt>
</event>
<event>
 5    1  0.1197825E+001  0.9282938E+02  0.7546771E-02  0.1296141E+00
         -1   -1    0    0    0  501 -0.00000000000E+00  0.00000000000E+00  0.33843544267E+02  0.33843544267E+02  0.00000000000E+00 0.  1.
          1   -1    0    0  501    0  0.00000000000E+00 -0.00000000000E+00 -0.63655371841E+02  0.63655371841E+02  0.00000000000E+00 0. -1.
         23    2    1    2    0    0  0.00000000000E+00  0.00000000000E+00 -0.29811827574E+02  0.97498916108E+02  0.92829378857E+02 0.  0.
        -13    1    3    3    0    0 -0.14645416163E+02  0.11399697877E+02  0.29776793814E+02  0.35087017202E+02  0.00000000000E+00 0.  1.
         13    1    3    3    0    0  0.14645416163E+02 -0.11399697877E+02 -0.59588621387E+02  0.62411898907E+02  0.00000000000E+00 0. -1.
<mgrwt>
<rscale>  0 0.92829379E+02</rscale>
<asrwt>0</asrwt>
<pdfrwt beam="2">  1        1 0.97931341E-02 0.92829379E+02</pdfrwt>
<pdfrwt beam="1">  1       -1 0.52066991E-02 0.92829379E+02</pdfrwt>
<totfact> 0.92514205E+04</totfact>
</mgrwt>
</event>
<event>
 5    1  0.1197825E+001  0.9079692E+02  0.7546771E-02  0.1300933E+00
         -1   -1    0    0    0  501 -0.00000000000E+00  0.00000000000E+00  0.81063039567E+02  0.81063039567E+02  0.00000000000E+00 0.  1.
          1   -1    0    0  501    0  0.00000000000E+00 -0.00000000000E+00 -0.25424905751E+02  0.25424905751E+02  0.00000000000E+00 0. -1.
         23    2    1    2    0    0  0.00000000000E+00  0.00000000000E+00  0.55638133817E+02  0.10648794532E+03  0.90796919350E+02 0.  0.
        -13    1    3    3    0    0  0.17066735355E+02 -0.31706243289E+02 -0.46079464355E+01  0.36301411674E+02  0.00000000000E+00 0.  1.
         13    1    3    3    0    0 -0.17066735355E+02  0.31706243289E+02  0.60246080252E+02  0.70186533644E+02  0.00000000000E+00 0. -1.
<mgrwt>
<rscale>  0 0.90796919E+02</rscale>
<asrwt>0</asrwt>
<pdfrwt beam="2">  1        1 0.39115240E-02 0.90796919E+02</pdfrwt>
<pdfrwt beam="1">  1       -1 0.12471237E-01 0.90796919E+02</pdfrwt>
<totfact> 0.85369129E+04</totfact>
</mgrwt>
</event>
<event>
 5    1  0.1197825E+001  0.8208407E+02  0.7546771E-02  0.1323239E+00
          3   -1    0    0  501    0  0.00000000000E+00  0.00000000000E+00  0.63408521079E+02  0.63408521079E+02  0.00000000000E+00 0. -1.
         -3   -1    0    0    0  501 -0.00000000000E+00 -0.00000000000E+00 -0.26565019067E+02  0.26565019067E+02  0.00000000000E+00 0.  1.
         23    2    1    2    0    0  0.00000000000E+00  0.00000000000E+00  0.36843502012E+02  0.89973540146E+02  0.82084068405E+02 0.  0.
        -11    1    3    3    0    0  0.43121893862E+01  0.35404129063E+02 -0.38377751992E+01  0.35871658039E+02  0.00000000000E+00 0.  1.
         11    1    3    3    0    0 -0.43121893862E+01 -0.35404129063E+02  0.40681277211E+02  0.54101882107E+02  0.00000000000E+00 0. -1.
<mgrwt>
<rscale>  0 0.82084068E+02</rscale>
<asrwt>0</asrwt>
<pdfrwt beam="1">  1        3 0.97551570E-02 0.82084068E+02</pdfrwt>
<pdfrwt beam="2">  1       -3 0.40869260E-02 0.82084068E+02</pdfrwt>
<totfact> 0.47074441E+04</totfact>
</mgrwt>
</event>
<event>
 5    1  0.1197825E+001  0.8514039E+02  0.7546771E-02  0.1315066E+00
         -1   -1    0    0    0  501 -0.00000000000E+00  0.00000000000E+00  0.79922041420E+01  0.79922041420E+01  0.00000000000E+00 0.  1.
          1   -1    0    0  501    0  0.00000000000E+00 -0.00000000000E+00 -0.22674865596E+03  0.22674865596E+03  0.00000000000E+00 0. -1.
         23    2    1    2    0    0  0.00000000000E+00  0.00000000000E+00 -0.21875645182E+03  0.23474086010E+03  0.85140391057E+02 0.  0.
        -13    1    3    3    0    0  0.15291287610E+02  0.28649028554E+02 -0.33488674436E+02  0.46648490108E+02  0.00000000000E+00 0.  1.
         13    1    3    3    0    0 -0.15291287610E+02 -0.28649028554E+02 -0.18526777738E+03  0.18809236999E+03  0.00000000000E+00 0. -1.
<mgrwt>
<rscale>  0 0.85140391E+02</rscale>
<asrwt>0</asrwt>
<pdfrwt beam="2">  1        1 0.34884404E-01 0.85140391E+02</pdfrwt>
<pdfrwt beam="1">  1       -1 0.12295700E-02 0.85140391E+02</pdfrwt>
<totfact> 0.14563185E+05</totfact>
</mgrwt>
</event>
<event>
 5    1  0.1197825E+001  0.9062156E+02  0.7546771E-02  0.1301353E+00
         -1   -1    0    0    0  501 -0.00000000000E+00  0.00000000000E+00  0.12528792284E+02  0.12528792284E+02  0.00000000000E+00 0.  1.
          1   -1    0    0  501    0  0.00000000000E+00 -0.00000000000E+00 -0.16386788823E+03  0.16386788823E+03  0.00000000000E+00 0. -1.
         23    2    1    2    0    0  0.00000000000E+00  0.00000000000E+00 -0.15133909594E+03  0.17639668051E+03  0.90621558883E+02 0.  0.
        -13    1    3    3    0    0 -0.82747436486E+01 -0.31980587104E+02 -0.13603795409E+03  0.13999126503E+03  0.00000000000E+00 0. -1.
         13    1    3    3    0    0  0.82747436486E+01  0.31980587104E+02 -0.15301141858E+02  0.36405415477E+02  0.00000000000E+00 0.  1.
<mgrwt>
<rscale>  0 0.90621559E+02</rscale>
<asrwt>0</asrwt>
<pdfrwt beam="2">  1        1 0.25210445E-01 0.90621559E+02</pdfrwt>
<pdfrwt beam="1">  1       -1 0.19275065E-02 0.90621559E+02</pdfrwt>
<totfact> 0.11587570E+05</totfact>
</mgrwt>
</event>
<event>
 5    1  0.1197825E+001  0.9350577E+02  0.7546771E-02  0.1294577E+00
         -2   -1    0    0    0  501 -0.00000000000E+00  0.00000000000E+00  0.63954338792E+01  0.63954338792E+01  0.00000000000E+00 0.  1.
          2   -1    0    0  501    0  0.00000000000E+00 -0.00000000000E+00 -0.34178015079E+03  0.34178015079E+03  0.00000000000E+00 0. -1.
         23    2    1    2    0    0  0.00000000000E+00  0.00000000000E+00 -0.33538471691E+03  0.34817558467E+03  0.93505772134E+02 0.  0.
        -11    1    3    3    0    0 -0.34624654796E+02 -0.29070960653E+02 -0.21203961200E+03  0.21680586831E+03  0.00000000000E+00 0.  1.
         11    1    3    3    0    0  0.34624654796E+02  0.29070960653E+02 -0.12334510491E+03  0.13136971637E+03  0.00000000000E+00 0. -1.
<mgrwt>
<rscale>  0 0.93505772E+02</rscale>
<asrwt>0</asrwt>
<pdfrwt beam="2">  1        2 0.52581577E-01 0.93505772E+02</pdfrwt>
<pdfrwt beam="1">  1       -2 0.98391261E-03 0.93505772E+02</pdfrwt>
<totfact> 0.17628107E+05</totfact>
</mgrwt>
</event>
<event>
 5    1  0.1197825E+001  0.9535287E+02  0.7546771E-02  0.1290383E+00
         -1   -1    0    0    0  501 -0.00000000000E+00  0.00000000000E+00  0.48879982319E+01  0.48879982319E+01  0.00000000000E+00 0.  1.
          1   -1    0    0  501    0  0.00000000000E+00 -0.00000000000E+00 -0.46502521348E+03  0.46502521348E+03  0.00000000000E+00 0. -1.
         23    2    1    2    0    0  0.00000000000E+00  0.00000000000E+00 -0.46013721525E+03  0.46991321171E+03  0.95352869306E+02 0.  0.
        -11    1    3    3    0    0  0.19582650428E+02 -0.43379710666E+02 -0.21633778326E+03  0.22151143529E+03  0.00000000000E+00 0.  1.
         11    1    3    3    0    0 -0.19582650428E+02  0.43379710666E+02 -0.24379943198E+03  0.24840177642E+03  0.00000000000E+00 0. -1.
<mgrwt>
<rscale>  0 0.95352869E+02</rscale>
<asrwt>0</asrwt>
<pdfrwt beam="2">  1        1 0.71542344E-01 0.95352869E+02</pdfrwt>
<pdfrwt beam="1">  1       -1 0.75199969E-03 0.95352869E+02</pdfrwt>
<totfact> 0.12249950E+05</totfact>
</mgrwt>
</event>
<event>
 5    1  0.1197825E+001  0.8995800E+02  0.7546771E-02  0.1302953E+00
         -1   -1    0    0    0  501 -0.00000000000E+00  0.00000000000E+00  0.29091898513E+02  0.29091898513E+02  0.00000000000E+00 0.  1.
          1   -1    0    0  501    0  0.00000000000E+00 -0.00000000000E+00 -0.69542061302E+02  0.69542061302E+02  0.00000000000E+00 0. -1.
         23    2    1    2    0    0  0.00000000000E+00  0.00000000000E+00 -0.40450162789E+02  0.98633959815E+02  0.89958003308E+02 0.  0.
        -13    1    3    3    0    0 -0.14001601604E+02  0.16288050848E+02  0.23105500790E+02  0.31546943032E+02  0.00000000000E+00 0.  1.
         13    1    3    3    0    0  0.14001601604E+02 -0.16288050848E+02 -0.63555663579E+02  0.67087016783E+02  0.00000000000E+00 0. -1.
<mgrwt>
<rscale>  0 0.89958003E+02</rscale>
<asrwt>0</asrwt>
<pdfrwt beam="2">  1        1 0.10698779E-01 0.89958003E+02</pdfrwt>
<pdfrwt beam="1">  1       -1 0.44756767E-02 0.89958003E+02</pdfrwt>
<totfact> 0.10228855E+05</totfact>
</mgrwt>
</event>
<event>
 5    1  0.1197825E+001  0.8865897E+02  0.7546771E-02  0.1306132E+00
         -3   -1    0    0    0  501 -0.00000000000E+00  0.00000000000E+00  0.15140625617E+02  0.15140625617E+02  0.00000000000E+00 0.  1.
          3   -1    0    0  501    0  0.00000000000E+00 -0.00000000000E+00 -0.12979009937E+03  0.12979009937E+03  0.00000000000E+00 0. -1.
         23    2    1    2    0    0  0.00000000000E+00  0.00000000000E+00 -0.11464947375E+03  0.14493072499E+03  0.88658971419E+02 0.  0.
        -13    1    3    3    0    0 -0.62815402618E+01 -0.26251900963E+02  0.15726640462E+00  0.26993421143E+02  0.00000000000E+00 0.  1.
         13    1    3    3    0    0  0.62815402618E+01  0.26251900963E+02 -0.11480674016E+03  0.11793730384E+03  0.00000000000E+00 0. -1.
<mgrwt>
<rscale>  0 0.88658971E+02</rscale>
<asrwt>0</asrwt>
<pdfrwt beam="2">  1        3 0.19967707E-01 0.88658971E+02</pdfrwt>
<pdfrwt beam="1">  1       -3 0.23293270E-02 0.88658971E+02</pdfrwt>
<totfact> 0.34104277E+04</totfact>
</mgrwt>
</event>
<event>
 5    1  0.1197825E+001  0.9028996E+02  0.7546771E-02  0.1302151E+00
         -1   -1    0    0    0  501 -0.00000000000E+00  0.00000000000E+00  0.15938898406E+03  0.15938898406E+03  0.00000000000E+00 0.  1.
          1   -1    0    0  501    0  0.00000000000E+00 -0.00000000000E+00 -0.12786762758E+02  0.12786762758E+02  0.00000000000E+00 0. -1.
         23    2    1    2    0    0  0.00000000000E+00  0.00000000000E+00  0.14660222130E+03  0.17217574681E+03  0.90289957921E+02 0.  0.
        -13    1    3    3    0    0  0.23625777754E+00  0.37828452718E+02  0.12028344073E+03  0.12609184655E+03  0.00000000000E+00 0. -1.
         13    1    3    3    0    0 -0.23625777754E+00 -0.37828452718E+02  0.26318780567E+02  0.46083900262E+02  0.00000000000E+00 0.  1.
<mgrwt>
<rscale>  0 0.90289958E+02</rscale>
<asrwt>0</asrwt>
<pdfrwt beam="2">  1        1 0.19671944E-02 0.90289958E+02</pdfrwt>
<pdfrwt beam="1">  1       -1 0.24521381E-01 0.90289958E+02</pdfrwt>
<totfact> 0.75605909E+04</totfact>
</mgrwt>
</event>
<event>
 5    1  0.1197825E+001  0.9032380E+02  0.7546771E-02  0.1302069E+00
          1   -1    0    0  501    0  0.00000000000E+00  0.00000000000E+00  0.11614023994E+03  0.11614023994E+03  0.00000000000E+00 0. -1.
         -1   -1    0    0    0  501 -0.00000000000E+00 -0.00000000000E+00 -0.17561501732E+02  0.17561501732E+02  0.00000000000E+00 0.  1.
         23    2    1    2    0    0  0.00000000000E+00  0.00000000000E+00  0.98578738211E+02  0.13370174168E+03  0.90323795867E+02 0.  0.
        -13    1    3    3    0    0  0.25325920058E+02  0.18771528549E+02  0.14192737217E+01  0.31556090517E+02  0.00000000000E+00 0.  1.
         13    1    3    3    0    0 -0.25325920058E+02 -0.18771528549E+02  0.97159464490E+02  0.10214565116E+03  0.00000000000E+00 0. -1.
<mgrwt>
<rscale>  0 0.90323796E+02</rscale>
<asrwt>0</asrwt>
<pdfrwt beam="1">  1        1 0.17867729E-01 0.90323796E+02</pdfrwt>
<pdfrwt beam="2">  1       -1 0.27017696E-02 0.90323796E+02</pdfrwt>
<totfact> 0.10989630E+05</totfact>
</mgrwt>
</event>
<event>
 5    1  0.1197825E+001  0.9049015E+02  0.7546771E-02  0.1301669E+00
          3   -1    0    0  501    0  0.00000000000E+00  0.00000000000E+00  0.22346322237E+02  0.22346322237E+02  0.00000000000E+00 0. -1.
         -3   -1    0    0    0  501 -0.00000000000E+00 -0.00000000000E+00 -0.91608662037E+02  0.91608662037E+02  0.00000000000E+00 0.  1.
         23    2    1    2    0    0  0.00000000000E+00  0.00000000000E+00 -0.69262339799E+02  0.11395498427E+03  0.90490147123E+02 0.  0.
        -13    1    3    3    0    0 -0.11171236199E+01  0.29141851115E+02  0.89310881230E+01  0.30500160436E+02  0.00000000000E+00 0. -1.
         13    1    3    3    0    0  0.11171236199E+01 -0.29141851115E+02 -0.78193427922E+02  0.83454823838E+02  0.00000000000E+00 0.  1.
<mgrwt>
<rscale>  0 0.90490147E+02</rscale>
<asrwt>0</asrwt>
<pdfrwt beam="1">  1        3 0.34378957E-02 0.90490147E+02</pdfrwt>
<pdfrwt beam="2">  1       -3 0.14093640E-01 0.90490147E+02</pdfrwt>
<totfact> 0.34364409E+04</totfact>
</mgrwt>
</event>
<event>
 5    1  0.1197825E+001  0.9128822E+02  0.7546771E-02  0.1299762E+00
          1   -1    0    0  501    0  0.00000000000E+00  0.00000000000E+00  0.18423088273E+03  0.18423088273E+03  0.00000000000E+00 0. -1.
         -1   -1    0    0    0  501 -0.00000000000E+00 -0.00000000000E+00 -0.11308552816E+02  0.11308552816E+02  0.00000000000E+00 0.  1.
         23    2    1    2    0    0  0.00000000000E+00  0.00000000000E+00  0.17292232991E+03  0.19553943555E+03  0.91288217588E+02 0.  0.
        -13    1    3    3    0    0 -0.13327760698E+02 -0.26608944794E+02  0.16059171001E+03  0.16332593938E+03  0.00000000000E+00 0. -1.
         13    1    3    3    0    0  0.13327760698E+02  0.26608944794E+02  0.12330619902E+02  0.32213496170E+02  0.00000000000E+00 0.  1.
<mgrwt>
<rscale>  0 0.91288218E+02</rscale>
<asrwt>0</asrwt>
<pdfrwt beam="1">  1        1 0.28343211E-01 0.91288218E+02</pdfrwt>
<pdfrwt beam="2">  1       -1 0.17397775E-02 0.91288218E+02</pdfrwt>
<totfact> 0.11616198E+05</totfact>
</mgrwt>
</event>
<event>
 5    1  0.1197825E+001  0.9238450E+02  0.7546771E-02  0.1297178E+00
          4   -1    0    0  501    0  0.00000000000E+00  0.00000000000E+00  0.22235107568E+02  0.22235107568E+02  0.00000000000E+00 0. -1.
         -4   -1    0    0    0  501 -0.00000000000E+00 -0.00000000000E+00 -0.95961940003E+02  0.95961940003E+02  0.00000000000E+00 0.  1.
         23    2    1    2    0    0  0.00000000000E+00  0.00000000000E+00 -0.73726832435E+02  0.11819704757E+03  0.92384502128E+02 0.  0.
        -13    1    3    3    0    0 -0.39814223384E+02 -0.18920916258E+02 -0.19202522820E+02  0.48082328754E+02  0.00000000000E+00 0.  1.
         13    1    3    3    0    0  0.39814223384E+02  0.18920916258E+02 -0.54524309615E+02  0.70114718817E+02  0.00000000000E+00 0. -1.
<mgrwt>
<rscale>  0 0.92384502E+02</rscale>
<asrwt>0</asrwt>
<pdfrwt beam="1">  1        4 0.34207858E-02 0.92384502E+02</pdfrwt>
<pdfrwt beam="2">  1       -4 0.14763375E-01 0.92384502E+02</pdfrwt>
<totfact> 0.24486433E+04</totfact>
</mgrwt>
</event>
<event>
 5    1  0.1197825E+001  0.9443685E+02  0.7546771E-02  0.1292450E+00
          3   -1    0    0  501    0  0.00000000000E+00  0.00000000000E+00  0.66882477486E+02  0.66882477486E+02  0.00000000000E+00 0. -1.
         -3   -1    0    0    0  501 -0.00000000000E+00 -0.00000000000E+00 -0.33335781687E+02  0.33335781687E+02  0.00000000000E+00 0.  1.
         23    2    1    2    0    0  0.00000000000E+00  0.00000000000E+00  0.33546695799E+02  0.10021825917E+03  0.94436850183E+02 0.  0.
        -11    1    3    3    0    0 -0.93099528802E+00  0.24140319693E+02  0.59827468217E+02  0.64520909327E+02  0.00000000000E+00 0. -1.
         11    1    3    3    0    0  0.93099528802E+00 -0.24140319693E+02 -0.26280772418E+02  0.35697349846E+02  0.00000000000E+00 0.  1.
<mgrwt>
<rscale>  0 0.94436850E+02</rscale>
<asrwt>0</asrwt>
<pdfrwt beam="1">  1        3 0.10289612E-01 0.94436850E+02</pdfrwt>
<pdfrwt beam="2">  1       -3 0.51285818E-02 0.94436850E+02</pdfrwt>
<totfact> 0.31483964E+04</totfact>
</mgrwt>
</event>
<event>
 5    1  0.1197825E+001  0.9054652E+02  0.7546771E-02  0.1301534E+00
         -2   -1    0    0    0  501 -0.00000000000E+00  0.00000000000E+00  0.21701376967E+02  0.21701376967E+02  0.00000000000E+00 0.  1.
          2   -1    0    0  501    0  0.00000000000E+00 -0.00000000000E+00 -0.94448766919E+02  0.94448766919E+02  0.00000000000E+00 0. -1.
         23    2    1    2    0    0  0.00000000000E+00  0.00000000000E+00 -0.72747389952E+02  0.11615014389E+03  0.90546524947E+02 0.  0.
        -13    1    3    3    0    0 -0.69144767756E+01 -0.40326449953E+02 -0.61235429128E+02  0.73646522900E+02  0.00000000000E+00 0. -1.
         13    1    3    3    0    0  0.69144767756E+01  0.40326449953E+02 -0.11511960824E+02  0.42503620985E+02  0.00000000000E+00 0.  1.
<mgrwt>
<rscale>  0 0.90546525E+02</rscale>
<asrwt>0</asrwt>
<pdfrwt beam="2">  1        2 0.14530580E-01 0.90546525E+02</pdfrwt>
<pdfrwt beam="1">  1       -2 0.33386733E-02 0.90546525E+02</pdfrwt>
<totfact> 0.12290565E+05</totfact>
</mgrwt>
</event>
<event>
 5    1  0.1197825E+001  0.9656964E+02  0.7546771E-02  0.1287679E+00
         -1   -1    0    0    0  501 -0.00000000000E+00  0.00000000000E+00  0.12357096250E+02  0.12357096250E+02  0.00000000000E+00 0.  1.
          1   -1    0    0  501    0  0.00000000000E+00 -0.00000000000E+00 -0.18867083855E+03  0.18867083855E+03  0.00000000000E+00 0. -1.
         23    2    1    2    0    0  0.00000000000E+00  0.00000000000E+00 -0.17631374230E+03  0.20102793480E+03  0.96569637288E+02 0.  0.
        -13    1    3    3    0    0 -0.32699283020E+02 -0.93377824757E+01 -0.15951315665E+03  0.16309777569E+03  0.00000000000E+00 0. -1.
         13    1    3    3    0    0  0.32699283020E+02  0.93377824757E+01 -0.16800585648E+02  0.37930159104E+02  0.00000000000E+00 0.  1.
<mgrwt>
<rscale>  0 0.96569637E+02</rscale>
<asrwt>0</asrwt>
<pdfrwt beam="2">  1        1 0.29026281E-01 0.96569637E+02</pdfrwt>
<pdfrwt beam="1">  1       -1 0.19010918E-02 0.96569637E+02</pdfrwt>
<totfact> 0.10028081E+05</totfact>
</mgrwt>
</event>
<event>
 5    1  0.1197825E+001  0.9360334E+02  0.7546771E-02  0.1294353E+00
         -2   -1    0    0    0  501 -0.00000000000E+00  0.00000000000E+00  0.43874237263E+02  0.43874237263E+02  0.00000000000E+00 0.  1.
          2   -1    0    0  501    0  0.00000000000E+00 -0.00000000000E+00 -0.49924425973E+02  0.49924425973E+02  0.00000000000E+00 0. -1.
         23    2    1    2    0    0  0.00000000000E+00  0.00000000000E+00 -0.60501887103E+01  0.93798663236E+02  0.93603335632E+02 0.  0.
        -13    1    3    3    0    0 -0.15105019173E+02 -0.42886347169E+02 -0.14138581348E+02  0.47616172255E+02  0.00000000000E+00 0.  1.
         13    1    3    3    0    0  0.15105019173E+02  0.42886347169E+02  0.80883926377E+01  0.46182490981E+02  0.00000000000E+00 0. -1.
<mgrwt>
<rscale>  0 0.93603336E+02</rscale>
<asrwt>0</asrwt>
<pdfrwt beam="2">  1        2 0.76806809E-02 0.93603336E+02</pdfrwt>
<pdfrwt beam="1">  1       -2 0.67498827E-02 0.93603336E+02</pdfrwt>
<totfact> 0.93719201E+04</totfact>
</mgrwt>
</event>
<event>
 5    1  0.1197825E+001  0.9197464E+02  0.7546771E-02  0.1298139E+00
         -2   -1    0    0    0  501 -0.00000000000E+00  0.00000000000E+00  0.81274219617E+02  0.81274219617E+02  0.00000000000E+00 0.  1.
          2   -1    0    0  501    0  0.00000000000E+00 -0.00000000000E+00 -0.26020965781E+02  0.26020965781E+02  0.00000000000E+00 0. -1.
         23    2    1    2    0    0  0.00000000000E+00  0.00000000000E+00  0.55253253836E+02  0.10729518540E+03  0.91974641886E+02 0.  0.
        -13    1    3    3    0    0  0.16684872964E+02  0.25336487095E+02  0.67945392598E+02  0.74410341616E+02  0.00000000000E+00 0.  1.
         13    1    3    3    0    0 -0.16684872964E+02 -0.25336487095E+02 -0.12692138762E+02  0.32884843781E+02  0.00000000000E+00 0. -1.
<mgrwt>
<rscale>  0 0.91974642E+02</rscale>
<asrwt>0</asrwt>
<pdfrwt beam="2">  1        2 0.40032255E-02 0.91974642E+02</pdfrwt>
<pdfrwt beam="1">  1       -2 0.12503726E-01 0.91974642E+02</pdfrwt>
<totfact> 0.82910197E+04</totfact>
</mgrwt>
</event>
<event>
 5    1  0.1197825E+001  0.9624276E+02  0.7546771E-02  0.1288401E+00
          1   -1    0    0  501    0  0.00000000000E+00  0.00000000000E+00  0.47642815684E+01  0.47642815684E+01  0.00000000000E+00 0. -1.
         -1   -1    0    0    0  501 -0.00000000000E+00 -0.00000000000E+00 -0.48604753926E+03  0.48604753926E+03  0.00000000000E+00 0.  1.
         23    2    1    2    0    0  0.00000000000E+00  0.00000000000E+00 -0.48128325769E+03  0.49081182083E+03  0.96242762484E+02 0.  0.
        -13    1    3    3    0    0  0.46741404873E+02  0.11310980525E+02 -0.24943052090E+03  0.25402417595E+03  0.00000000000E+00 0.  1.
         13    1    3    3    0    0 -0.46741404873E+02 -0.11310980525E+02 -0.23185273680E+03  0.23678764488E+03  0.00000000000E+00 0. -1.
<mgrwt>
<rscale>  0 0.96242762E+02</rscale>
<asrwt>0</asrwt>
<pdfrwt beam="1">  1        1 0.73296649E-03 0.96242762E+02</pdfrwt>
<pdfrwt beam="2">  1       -1 0.74776534E-01 0.96242762E+02</pdfrwt>
<totfact> 0.41518090E+04</totfact>
</mgrwt>
</event>
<event>
 5    1  0.1197825E+001  0.9304241E+02  0.7546771E-02  0.1295647E+00
         -4   -1    0    0    0  501 -0.00000000000E+00  0.00000000000E+00  0.10103824442E+02  0.10103824442E+02  0.00000000000E+00 0.  1.
          4   -1    0    0  501    0  0.00000000000E+00 -0.00000000000E+00 -0.21419834766E+03  0.21419834766E+03  0.00000000000E+00 0. -1.
         23    2    1    2    0    0  0.00000000000E+00  0.00000000000E+00 -0.20409452322E+03  0.22430217211E+03  0.93042409698E+02 0.  0.
        -13    1    3    3    0    0  0.41557764124E+02 -0.20523382740E+02 -0.92414654951E+02  0.10338629236E+03  0.00000000000E+00 0.  1.
         13    1    3    3    0    0 -0.41557764124E+02  0.20523382740E+02 -0.11167986827E+03  0.12091587975E+03  0.00000000000E+00 0. -1.
<mgrwt>
<rscale>  0 0.93042410E+02</rscale>
<asrwt>0</asrwt>
<pdfrwt beam="2">  1        4 0.32953591E-01 0.93042410E+02</pdfrwt>
<pdfrwt beam="1">  1       -4 0.15544346E-02 0.93042410E+02</pdfrwt>
<totfact> 0.19333703E+04</totfact>
</mgrwt>
</event>
<event>
 5    1  0.1197825E+001  0.8719428E+02  0.7546771E-02  0.1309792E+00
          1   -1    0    0  501    0  0.00000000000E+00  0.00000000000E+00  0.19160677396E+02  0.19160677396E+02  0.00000000000E+00 0. -1.
         -1   -1    0    0    0  501 -0.00000000000E+00 -0.00000000000E+00 -0.99198513435E+02  0.99198513435E+02  0.00000000000E+00 0.  1.
         23    2    1    2    0    0  0.00000000000E+00  0.00000000000E+00 -0.80037836039E+02  0.11835919083E+03  0.87194282246E+02 0.  0.
        -11    1    3    3    0    0 -0.21371534581E+01 -0.24243096900E+02 -0.89119521220E+02  0.92382813525E+02  0.00000000000E+00 0.  1.
         11    1    3    3    0    0  0.21371534581E+01  0.24243096900E+02  0.90816851812E+01  0.25976377306E+02  0.00000000000E+00 0. -1.
<mgrwt>
<rscale>  0 0.87194282E+02</rscale>
<asrwt>0</asrwt>
<pdfrwt beam="1">  1        1 0.29477965E-02 0.87194282E+02</pdfrwt>
<pdfrwt beam="2">  1       -1 0.15261310E-01 0.87194282E+02</pdfrwt>
<totfact> 0.91406170E+04</totfact>
</mgrwt>
</event>
<event>
 5    1  0.1197825E+001  0.8994842E+02  0.7546771E-02  0.1302977E+00
         -2   -1    0    0    0  501 -0.00000000000E+00  0.00000000000E+00  0.10573011767E+02  0.10573011767E+02  0.00000000000E+00 0.  1.
          2   -1    0    0  501    0  0.00000000000E+00 -0.00000000000E+00 -0.19130588276E+03  0.19130588276E+03  0.00000000000E+00 0. -1.
         23    2    1    2    0    0  0.00000000000E+00  0.00000000000E+00 -0.18073287100E+03  0.20187889453E+03  0.89948415206E+02 0.  0.
        -13    1    3    3    0    0 -0.55935185752E+01  0.38258075904E+02 -0.14192439162E+03  0.14709690941E+03  0.00000000000E+00 0. -1.
         13    1    3    3    0    0  0.55935185752E+01 -0.38258075904E+02 -0.38808479377E+02  0.54781985118E+02  0.00000000000E+00 0.  1.
<mgrwt>
<rscale>  0 0.89948415E+02</rscale>
<asrwt>0</asrwt>
<pdfrwt beam="2">  1        2 0.29431674E-01 0.89948415E+02</pdfrwt>
<pdfrwt beam="1">  1       -2 0.16266172E-02 0.89948415E+02</pdfrwt>
<totfact> 0.15788240E+05</totfact>
</mgrwt>
</event>
<event>
 5    1  0.1197825E+001  0.9672811E+02  0.7546771E-02  0.1287331E+00
         -4   -1    0    0    0  501 -0.00000000000E+00  0.00000000000E+00  0.11975734536E+02  0.11975734536E+02  0.00000000000E+00 0. -1.
          4   -1    0    0  501    0  0.00000000000E+00 -0.00000000000E+00 -0.19531843144E+03  0.19531843144E+03  0.00000000000E+00 0.  1.
         23    2    1    2    0    0  0.00000000000E+00  0.00000000000E+00 -0.18334269690E+03  0.20729416598E+03  0.96728107288E+02 0.  0.
        -11    1    3    3    0    0 -0.36692547410E+02 -0.13288430244E+02 -0.30447440028E+02  0.49497192021E+02  0.00000000000E+00 0. -1.
         11    1    3    3    0    0  0.36692547410E+02  0.13288430244E+02 -0.15289525688E+03  0.15779697395E+03  0.00000000000E+00 0.  1.
<mgrwt>
<rscale>  0 0.96728107E+02</rscale>
<asrwt>0</asrwt>
<pdfrwt beam="2">  1        4 0.30048984E-01 0.96728107E+02</pdfrwt>
<pdfrwt beam="1">  1       -4 0.18424210E-02 0.96728107E+02</pdfrwt>
<totfact> 0.17985939E+04</totfact>
</mgrwt>
</event>
<event>
 5    1  0.1197825E+001  0.9111285E+02  0.7546771E-02  0.1300179E+00
          2   -1    0    0  501    0  0.00000000000E+00  0.00000000000E+00  0.23974521758E+02  0.23974521758E+02  0.00000000000E+00 0. -1.
         -2   -1    0    0    0  501 -0.00000000000E+00 -0.00000000000E+00 -0.86566401004E+02  0.86566401004E+02  0.00000000000E+00 0.  1.
         23    2    1    2    0    0  0.00000000000E+00  0.00000000000E+00 -0.62591879246E+02  0.11054092276E+03  0.91112854513E+02 0.  0.
        -13    1    3    3    0    0  0.43869400656E+02 -0.96834029410E+01 -0.40463298075E+02  0.60461319019E+02  0.00000000000E+00 0. -1.
         13    1    3    3    0    0 -0.43869400656E+02  0.96834029410E+01 -0.22128581171E+02  0.50079603743E+02  0.00000000000E+00 0.  1.
<mgrwt>
<rscale>  0 0.91112855E+02</rscale>
<asrwt>0</asrwt>
<pdfrwt beam="1">  1        2 0.36883879E-02 0.91112855E+02</pdfrwt>
<pdfrwt beam="2">  1       -2 0.13317908E-01 0.91112855E+02</pdfrwt>
<totfact> 0.83367105E+04</totfact>
</mgrwt>
</event>
<event>
 5    1  0.1197825E+001  0.9017085E+02  0.7546771E-02  0.1302438E+00
         -1   -1    0    0    0  501 -0.00000000000E+00  0.00000000000E+00  0.23241941279E+03  0.23241941279E+03  0.00000000000E+00 0.  1.
          1   -1    0    0  501    0  0.00000000000E+00 -0.00000000000E+00 -0.87458077252E+01  0.87458077252E+01  0.00000000000E+00 0. -1.
         23    2    1    2    0    0  0.00000000000E+00  0.00000000000E+00  0.22367360507E+03  0.24116522052E+03  0.90170848857E+02 0.  0.
        -11    1    3    3    0    0  0.29702780009E+02  0.20313641564E+02  0.18448364810E+03  0.18796040964E+03  0.00000000000E+00 0.  1.
         11    1    3    3    0    0 -0.29702780009E+02 -0.20313641564E+02  0.39189956962E+02  0.53204810878E+02  0.00000000000E+00 0. -1.
<mgrwt>
<rscale>  0 0.90170849E+02</rscale>
<asrwt>0</asrwt>
<pdfrwt beam="2">  1        1 0.13455091E-02 0.90170849E+02</pdfrwt>
<pdfrwt beam="1">  1       -1 0.35756828E-01 0.90170849E+02</pdfrwt>
<totfact> 0.68286163E+04</totfact>
</mgrwt>
</event>
<event>
 5    1  0.1197825E+001  0.9147402E+02  0.7546771E-02  0.1299321E+00
          2   -1    0    0  501    0  0.00000000000E+00  0.00000000000E+00  0.18042746229E+03  0.18042746229E+03  0.00000000000E+00 0. -1.
         -2   -1    0    0    0  501 -0.00000000000E+00 -0.00000000000E+00 -0.11593989890E+02  0.11593989890E+02  0.00000000000E+00 0.  1.
         23    2    1    2    0    0  0.00000000000E+00  0.00000000000E+00  0.16883347240E+03  0.19202145218E+03  0.91474021968E+02 0.  0.
        -11    1    3    3    0    0 -0.27797239946E+02 -0.33900127422E+02  0.11178434269E+03  0.12007349607E+03  0.00000000000E+00 0. -1.
         11    1    3    3    0    0  0.27797239946E+02  0.33900127422E+02  0.57049129713E+02  0.71947956113E+02  0.00000000000E+00 0.  1.
<mgrwt>
<rscale>  0 0.91474022E+02</rscale>
<asrwt>0</asrwt>
<pdfrwt beam="1">  1        2 0.27758069E-01 0.91474022E+02</pdfrwt>
<pdfrwt beam="2">  1       -2 0.17836909E-02 0.91474022E+02</pdfrwt>
<totfact> 0.14776692E+05</totfact>
</mgrwt>
</event>
<event>
 5    1  0.1197825E+001  0.9094226E+02  0.7546771E-02  0.1300586E+00
          1   -1    0    0  501    0  0.00000000000E+00  0.00000000000E+00  0.91318449326E+02  0.91318449326E+02  0.00000000000E+00 0. -1.
         -1   -1    0    0    0  501 -0.00000000000E+00 -0.00000000000E+00 -0.22641904480E+02  0.22641904480E+02  0.00000000000E+00 0.  1.
         23    2    1    2    0    0  0.00000000000E+00  0.00000000000E+00  0.68676544847E+02  0.11396035381E+03  0.90942258755E+02 0.  0.
        -11    1    3    3    0    0  0.11479333323E+02 -0.25553611322E+02  0.79220864612E+02  0.84028016369E+02  0.00000000000E+00 0. -1.
         11    1    3    3    0    0 -0.11479333323E+02  0.25553611322E+02 -0.10544319765E+02  0.29932337437E+02  0.00000000000E+00 0.  1.
<mgrwt>
<rscale>  0 0.90942259E+02</rscale>
<asrwt>0</asrwt>
<pdfrwt beam="1">  1        1 0.14048992E-01 0.90942259E+02</pdfrwt>
<pdfrwt beam="2">  1       -1 0.34833700E-02 0.90942259E+02</pdfrwt>
<totfact> 0.10363039E+05</totfact>
</mgrwt>
</event>
<event>
 5    1  0.1197825E+001  0.8974102E+02  0.7546771E-02  0.1303480E+00
         -1   -1    0    0    0  501 -0.00000000000E+00  0.00000000000E+00  0.21611351657E+03  0.21611351657E+03  0.00000000000E+00 0. -1.
          1   -1    0    0  501    0  0.00000000000E+00 -0.00000000000E+00 -0.93162282274E+01  0.93162282274E+01  0.00000000000E+00 0.  1.
         23    2    1    2    0    0  0.00000000000E+00  0.00000000000E+00  0.20679728834E+03  0.22542974479E+03  0.89741023916E+02 0.  0.
        -13    1    3    3    0    0  0.29450750864E+02  0.26703216879E+02  0.51129999339E+02  0.64766390594E+02  0.00000000000E+00 0.  1.
         13    1    3    3    0    0 -0.29450750864E+02 -0.26703216879E+02  0.15566728900E+03  0.16066335420E+03  0.00000000000E+00 0. -1.
<mgrwt>
<rscale>  0 0.89741024E+02</rscale>
<asrwt>0</asrwt>
<pdfrwt beam="2">  1        1 0.14332660E-02 0.89741024E+02</pdfrwt>
<pdfrwt beam="1">  1       -1 0.33248229E-01 0.89741024E+02</pdfrwt>
<totfact> 0.70723458E+04</totfact>
</mgrwt>
</event>
<event>
 5    1  0.1197825E+001  0.9082490E+02  0.7546771E-02  0.1300866E+00
          2   -1    0    0  501    0  0.00000000000E+00  0.00000000000E+00  0.17530680980E+03  0.17530680980E+03  0.00000000000E+00 0. -1.
         -2   -1    0    0    0  501 -0.00000000000E+00 -0.00000000000E+00 -0.11763893966E+02  0.11763893966E+02  0.00000000000E+00 0.  1.
         23    2    1    2    0    0  0.00000000000E+00  0.00000000000E+00  0.16354291583E+03  0.18707070376E+03  0.90824902355E+02 0.  0.
        -11    1    3    3    0    0  0.30224899966E+02 -0.45504078202E+01  0.12594242340E+02  0.33058519771E+02  0.00000000000E+00 0.  1.
         11    1    3    3    0    0 -0.30224899966E+02  0.45504078202E+01  0.15094867349E+03  0.15401218399E+03  0.00000000000E+00 0. -1.
<mgrwt>
<rscale>  0 0.90824902E+02</rscale>
<asrwt>0</asrwt>
<pdfrwt beam="1">  1        2 0.26970277E-01 0.90824902E+02</pdfrwt>
<pdfrwt beam="2">  1       -2 0.18098300E-02 0.90824902E+02</pdfrwt>
<totfact> 0.14911023E+05</totfact>
</mgrwt>
</event>
<event>
 5    1  0.1197825E+001  0.7261842E+02  0.7546771E-02  0.1351409E+00
          2   -1    0    0  501    0  0.00000000000E+00  0.00000000000E+00  0.12393701193E+03  0.12393701193E+03  0.00000000000E+00 0. -1.
         -2   -1    0    0    0  501 -0.00000000000E+00 -0.00000000000E+00 -0.10637327542E+02  0.10637327542E+02  0.00000000000E+00 0.  1.
         23    2    1    2    0    0  0.00000000000E+00  0.00000000000E+00  0.11329968438E+03  0.13457433947E+03  0.72618416134E+02 0.  0.
        -13    1    3    3    0    0 -0.72890168637E+01 -0.31187450607E+02  0.88347828820E+02  0.93974069293E+02  0.00000000000E+00 0. -1.
         13    1    3    3    0    0  0.72890168637E+01  0.31187450607E+02  0.24951855563E+02  0.40600270175E+02  0.00000000000E+00 0.  1.
<mgrwt>
<rscale>  0 0.72618416E+02</rscale>
<asrwt>0</asrwt>
<pdfrwt beam="1">  1        2 0.19067232E-01 0.72618416E+02</pdfrwt>
<pdfrwt beam="2">  1       -2 0.16365120E-02 0.72618416E+02</pdfrwt>
<totfact> 0.24194205E+05</totfact>
</mgrwt>
</event>
<event>
 5    1  0.1197825E+001  0.9086942E+02  0.7546771E-02  0.1300760E+00
          2   -1    0    0  501    0  0.00000000000E+00  0.00000000000E+00  0.14725278102E+02  0.14725278102E+02  0.00000000000E+00 0. -1.
         -2   -1    0    0    0  501 -0.00000000000E+00 -0.00000000000E+00 -0.14018838691E+03  0.14018838691E+03  0.00000000000E+00 0.  1.
         23    2    1    2    0    0  0.00000000000E+00  0.00000000000E+00 -0.12546310881E+03  0.15491366501E+03  0.90869422447E+02 0.  0.
        -11    1    3    3    0    0  0.47459164941E+01  0.45164775170E+02 -0.65101368263E+02  0.79376122286E+02  0.00000000000E+00 0. -1.
         11    1    3    3    0    0 -0.47459164941E+01 -0.45164775170E+02 -0.60361740545E+02  0.75537542726E+02  0.00000000000E+00 0.  1.
<mgrwt>
<rscale>  0 0.90869422E+02</rscale>
<asrwt>0</asrwt>
<pdfrwt beam="1">  1        2 0.22654274E-02 0.90869422E+02</pdfrwt>
<pdfrwt beam="2">  1       -2 0.21567444E-01 0.90869422E+02</pdfrwt>
<totfact> 0.72178997E+04</totfact>
</mgrwt>
</event>
<event>
 5    1  0.1197825E+001  0.8828148E+02  0.7546771E-02  0.1307068E+00
         -3   -1    0    0    0  501 -0.00000000000E+00  0.00000000000E+00  0.91841706520E+02  0.91841706520E+02  0.00000000000E+00 0.  1.
          3   -1    0    0  501    0  0.00000000000E+00 -0.00000000000E+00 -0.21214817653E+02  0.21214817653E+02  0.00000000000E+00 0. -1.
         23    2    1    2    0    0  0.00000000000E+00  0.00000000000E+00  0.70626888866E+02  0.11305652417E+03  0.88281482923E+02 0.  0.
        -13    1    3    3    0    0  0.33649804235E-01 -0.38858618153E+02  0.62127782915E+02  0.73279292757E+02  0.00000000000E+00 0.  1.
         13    1    3    3    0    0 -0.33649804235E-01  0.38858618153E+02  0.84991059518E+01  0.39777231416E+02  0.00000000000E+00 0. -1.
<mgrwt>
<rscale>  0 0.88281483E+02</rscale>
<asrwt>0</asrwt>
<pdfrwt beam="2">  1        3 0.32638182E-02 0.88281483E+02</pdfrwt>
<pdfrwt beam="1">  1       -3 0.14129493E-01 0.88281483E+02</pdfrwt>
<totfact> 0.36810651E+04</totfact>
</mgrwt>
</event>
<event>
 5    1  0.1197825E+001  0.9718402E+02  0.7546771E-02  0.1286332E+00
          2   -1    0    0  501    0  0.00000000000E+00  0.00000000000E+00  0.62076811143E+02  0.62076811143E+02  0.00000000000E+00 0. -1.
         -2   -1    0    0    0  501 -0.00000000000E+00 -0.00000000000E+00 -0.38036477156E+02  0.38036477156E+02  0.00000000000E+00 0.  1.
         23    2    1    2    0    0  0.00000000000E+00  0.00000000000E+00  0.24040333986E+02  0.10011328830E+03  0.97184015331E+02 0.  0.
        -11    1    3    3    0    0  0.14024977881E+02 -0.22965102811E+02 -0.29660321635E+02  0.40047854264E+02  0.00000000000E+00 0.  1.
         11    1    3    3    0    0 -0.14024977881E+02  0.22965102811E+02  0.53700655621E+02  0.60065434035E+02  0.00000000000E+00 0. -1.
<mgrwt>
<rscale>  0 0.97184015E+02</rscale>
<asrwt>0</asrwt>
<pdfrwt beam="1">  1        2 0.95502786E-02 0.97184015E+02</pdfrwt>
<pdfrwt beam="2">  1       -2 0.58517657E-02 0.97184015E+02</pdfrwt>
<totfact> 0.89339272E+04</totfact>
</mgrwt>
</event>
<event>
 5    1  0.1197825E+001  0.9137251E+02  0.7546771E-02  0.1299562E+00
         -2   -1    0    0    0  501 -0.00000000000E+00  0.00000000000E+00  0.39932128619E+02  0.39932128619E+02  0.00000000000E+00 0.  1.
          2   -1    0    0  501    0  0.00000000000E+00 -0.00000000000E+00 -0.52269534406E+02  0.52269534406E+02  0.00000000000E+00 0. -1.
         23    2    1    2    0    0  0.00000000000E+00  0.00000000000E+00 -0.12337405786E+02  0.92201663025E+02  0.91372507261E+02 0.  0.
        -11    1    3    3    0    0 -0.12382259157E+01  0.34514988117E+02  0.24009476203E+02  0.42062721687E+02  0.00000000000E+00 0.  1.
         11    1    3    3    0    0  0.12382259157E+01 -0.34514988117E+02 -0.36346881989E+02  0.50138941338E+02  0.00000000000E+00 0. -1.
<mgrwt>
<rscale>  0 0.91372507E+02</rscale>
<asrwt>0</asrwt>
<pdfrwt beam="2">  1        2 0.80414669E-02 0.91372507E+02</pdfrwt>
<pdfrwt beam="1">  1       -2 0.61434044E-02 0.91372507E+02</pdfrwt>
<totfact> 0.10163774E+05</totfact>
</mgrwt>
</event>
<event>
 5    1  0.1197825E+001  0.9145362E+02  0.7546771E-02  0.1299369E+00
         -1   -1    0    0    0  501 -0.00000000000E+00  0.00000000000E+00  0.15601250834E+02  0.15601250834E+02  0.00000000000E+00 0.  1.
          1   -1    0    0  501    0  0.00000000000E+00 -0.00000000000E+00 -0.13402394585E+03  0.13402394585E+03  0.00000000000E+00 0. -1.
         23    2    1    2    0    0  0.00000000000E+00  0.00000000000E+00 -0.11842269502E+03  0.14962519669E+03  0.91453620967E+02 0.  0.
        -11    1    3    3    0    0  0.11756517877E+02  0.38266384496E+02 -0.23054064190E+02  0.46195473487E+02  0.00000000000E+00 0.  1.
         11    1    3    3    0    0 -0.11756517877E+02 -0.38266384496E+02 -0.95368630827E+02  0.10342972320E+03  0.00000000000E+00 0. -1.
<mgrwt>
<rscale>  0 0.91453621E+02</rscale>
<asrwt>0</asrwt>
<pdfrwt beam="2">  1        1 0.20619068E-01 0.91453621E+02</pdfrwt>
<pdfrwt beam="1">  1       -1 0.24001925E-02 0.91453621E+02</pdfrwt>
<totfact> 0.10896543E+05</totfact>
</mgrwt>
</event>
<event>
 5    1  0.1197825E+001  0.9097691E+02  0.7546771E-02  0.1300503E+00
          3   -1    0    0  501    0  0.00000000000E+00  0.00000000000E+00  0.59359388781E+02  0.59359388781E+02  0.00000000000E+00 0. -1.
         -3   -1    0    0    0  501 -0.00000000000E+00 -0.00000000000E+00 -0.34858842738E+02  0.34858842738E+02  0.00000000000E+00 0.  1.
         23    2    1    2    0    0  0.00000000000E+00  0.00000000000E+00  0.24500546042E+02  0.94218231519E+02  0.90976911325E+02 0.  0.
        -11    1    3    3    0    0  0.33215924754E+02  0.93624543967E+01  0.42941337120E+02  0.55090032159E+02  0.00000000000E+00 0. -1.
         11    1    3    3    0    0 -0.33215924754E+02 -0.93624543967E+01 -0.18440791078E+02  0.39128199360E+02  0.00000000000E+00 0.  1.
<mgrwt>
<rscale>  0 0.90976911E+02</rscale>
<asrwt>0</asrwt>
<pdfrwt beam="1">  1        3 0.91322137E-02 0.90976911E+02</pdfrwt>
<pdfrwt beam="2">  1       -3 0.53628989E-02 0.90976911E+02</pdfrwt>
<totfact> 0.35316593E+04</totfact>
</mgrwt>
</event>
<event>
 5    1  0.1197825E+001  0.9388751E+02  0.7546771E-02  0.1293702E+00
         -1   -1    0    0    0  501 -0.00000000000E+00  0.00000000000E+00  0.29549732526E+02  0.29549732526E+02  0.00000000000E+00 0.  1.
          1   -1    0    0  501    0  0.00000000000E+00 -0.00000000000E+00 -0.74576513146E+02  0.74576513146E+02  0.00000000000E+00 0. -1.
         23    2    1    2    0    0  0.00000000000E+00  0.00000000000E+00 -0.45026780620E+02  0.10412624567E+03  0.93887507501E+02 0.  0.
        -13    1    3    3    0    0 -0.16613349638E+02  0.37238360795E+02 -0.48309719030E+02  0.63218097517E+02  0.00000000000E+00 0.  1.
         13    1    3    3    0    0  0.16613349638E+02 -0.37238360795E+02  0.32829384098E+01  0.40908148155E+02  0.00000000000E+00 0. -1.
<mgrwt>
<rscale>  0 0.93887508E+02</rscale>
<asrwt>0</asrwt>
<pdfrwt beam="2">  1        1 0.11473310E-01 0.93887508E+02</pdfrwt>
<pdfrwt beam="1">  1       -1 0.45461127E-02 0.93887508E+02</pdfrwt>
<totfact> 0.91901682E+04</totfact>
</mgrwt>
</event>
<event>
 5    1  0.1197825E+001  0.9242883E+02  0.7546771E-02  0.1297074E+00
          2   -1    0    0  501    0  0.00000000000E+00  0.00000000000E+00  0.43993573123E+03  0.43993573123E+03  0.00000000000E+00 0. -1.
         -2   -1    0    0    0  501 -0.00000000000E+00 -0.00000000000E+00 -0.48547364348E+01  0.48547364348E+01  0.00000000000E+00 0.  1.
         23    2    1    2    0    0  0.00000000000E+00  0.00000000000E+00  0.43508099480E+03  0.44479046767E+03  0.92428827178E+02 0.  0.
        -11    1    3    3    0    0  0.25829376216E+02 -0.36970805467E+02  0.16899283183E+03  0.17490733073E+03  0.00000000000E+00 0. -1.
         11    1    3    3    0    0 -0.25829376216E+02  0.36970805467E+02  0.26608816296E+03  0.26988313694E+03  0.00000000000E+00 0.  1.
<mgrwt>
<rscale>  0 0.92428827E+02</rscale>
<asrwt>0</asrwt>
<pdfrwt beam="1">  1        2 0.67682389E-01 0.92428827E+02</pdfrwt>
<pdfrwt beam="2">  1       -2 0.74688288E-03 0.92428827E+02</pdfrwt>
<totfact> 0.19908668E+05</totfact>
</mgrwt>
</event>
<event>
 5    1  0.1197825E+001  0.9200119E+02  0.7546771E-02  0.1298077E+00
         -2   -1    0    0    0  501 -0.00000000000E+00  0.00000000000E+00  0.28712385392E+02  0.28712385392E+02  0.00000000000E+00 0.  1.
          2   -1    0    0  501    0  0.00000000000E+00 -0.00000000000E+00 -0.73698332700E+02  0.73698332700E+02  0.00000000000E+00 0. -1.
         23    2    1    2    0    0  0.00000000000E+00  0.00000000000E+00 -0.44985947308E+02  0.10241071809E+03  0.92001194149E+02 0.  0.
        -13    1    3    3    0    0 -0.30195029676E+02 -0.15430405342E+02 -0.57094036765E+02  0.66404565056E+02  0.00000000000E+00 0. -1.
         13    1    3    3    0    0  0.30195029676E+02  0.15430405342E+02  0.12108089456E+02  0.36006153036E+02  0.00000000000E+00 0.  1.
<mgrwt>
<rscale>  0 0.92001194E+02</rscale>
<asrwt>0</asrwt>
<pdfrwt beam="2">  1        2 0.11338205E-01 0.92001194E+02</pdfrwt>
<pdfrwt beam="1">  1       -2 0.44172901E-02 0.92001194E+02</pdfrwt>
<totfact> 0.10943017E+05</totfact>
</mgrwt>
</event>
<event>
 5    1  0.1197825E+001  0.9173578E+02  0.7546771E-02  0.1298702E+00
         -3   -1    0    0    0  501 -0.00000000000E+00  0.00000000000E+00  0.50216801921E+02  0.50216801921E+02  0.00000000000E+00 0.  1.
          3   -1    0    0  501    0  0.00000000000E+00 -0.00000000000E+00 -0.41895604056E+02  0.41895604056E+02  0.00000000000E+00 0. -1.
         23    2    1    2    0    0  0.00000000000E+00  0.00000000000E+00  0.83211978652E+01  0.92112405977E+02  0.91735778194E+02 0.  0.
        -13    1    3    3    0    0  0.18645151167E+02 -0.32545534050E+01  0.46112863554E+02  0.49846062683E+02  0.00000000000E+00 0.  1.
         13    1    3    3    0    0 -0.18645151167E+02  0.32545534050E+01 -0.37791665688E+02  0.42266343293E+02  0.00000000000E+00 0. -1.
<mgrwt>
<rscale>  0 0.91735778E+02</rscale>
<asrwt>0</asrwt>
<pdfrwt beam="2">  1        3 0.64454775E-02 0.91735778E+02</pdfrwt>
<pdfrwt beam="1">  1       -3 0.77256618E-02 0.91735778E+02</pdfrwt>
<totfact> 0.34683609E+04</totfact>
</mgrwt>
</event>
<event>
 5    1  0.1197825E+001  0.9178221E+02  0.7546771E-02  0.1298592E+00
         -1   -1    0    0    0  501 -0.00000000000E+00  0.00000000000E+00  0.43179079890E+02  0.43179079890E+02  0.00000000000E+00 0.  1.
          1   -1    0    0  501    0  0.00000000000E+00 -0.00000000000E+00 -0.48773464999E+02  0.48773464999E+02  0.00000000000E+00 0. -1.
         23    2    1    2    0    0  0.00000000000E+00  0.00000000000E+00 -0.55943851090E+01  0.91952544889E+02  0.91782206156E+02 0.  0.
        -13    1    3    3    0    0 -0.40652915788E+01 -0.13700917568E+02  0.40892818678E+02  0.43318175830E+02  0.00000000000E+00 0.  1.
         13    1    3    3    0    0  0.40652915788E+01  0.13700917568E+02 -0.46487203787E+02  0.48634369059E+02  0.00000000000E+00 0. -1.
<mgrwt>
<rscale>  0 0.91782206E+02</rscale>
<asrwt>0</asrwt>
<pdfrwt beam="2">  1        1 0.75036100E-02 0.91782206E+02</pdfrwt>
<pdfrwt beam="1">  1       -1 0.66429353E-02 0.91782206E+02</pdfrwt>
<totfact> 0.91698502E+04</totfact>
</mgrwt>
</event>
<event>
 5    1  0.1197825E+001  0.8334614E+02  0.7546771E-02  0.1319815E+00
          2   -1    0    0  501    0  0.00000000000E+00  0.00000000000E+00  0.17651316861E+02  0.17651316861E+02  0.00000000000E+00 0. -1.
         -2   -1    0    0    0  501 -0.00000000000E+00 -0.00000000000E+00 -0.98386134571E+02  0.98386134571E+02  0.00000000000E+00 0.  1.
         23    2    1    2    0    0  0.00000000000E+00  0.00000000000E+00 -0.80734817710E+02  0.11603745143E+03  0.83346141746E+02 0.  0.
        -11    1    3    3    0    0  0.14566390183E+02  0.29897813512E+02 -0.54063324506E+01  0.33694026270E+02  0.00000000000E+00 0. -1.
         11    1    3    3    0    0 -0.14566390183E+02 -0.29897813512E+02 -0.75328485260E+02  0.82343425161E+02  0.00000000000E+00 0.  1.
<mgrwt>
<rscale>  0 0.83346142E+02</rscale>
<asrwt>0</asrwt>
<pdfrwt beam="1">  1        2 0.27155872E-02 0.83346142E+02</pdfrwt>
<pdfrwt beam="2">  1       -2 0.15136329E-01 0.83346142E+02</pdfrwt>
<totfact> 0.10025245E+05</totfact>
</mgrwt>
</event>
<event>
 5    1  0.1197825E+001  0.1264337E+03  0.7546771E-02  0.1232846E+00
          2   -1    0    0  501    0  0.00000000000E+00  0.00000000000E+00  0.24989190809E+03  0.24989190809E+03  0.00000000000E+00 0.  1.
         -2   -1    0    0    0  501 -0.00000000000E+00 -0.00000000000E+00 -0.15992389869E+02  0.15992389869E+02  0.00000000000E+00 0. -1.
         23    2    1    2    0    0  0.00000000000E+00  0.00000000000E+00  0.23389951822E+03  0.26588429795E+03  0.12643367936E+03 0.  0.
        -11    1    3    3    0    0  0.58262627151E+02  0.18447164678E+02  0.82940540111E+02  0.10302409816E+03  0.00000000000E+00 0. -1.
         11    1    3    3    0    0 -0.58262627151E+02 -0.18447164678E+02  0.15095897811E+03  0.16286019980E+03  0.00000000000E+00 0.  1.
<mgrwt>
<rscale>  0 0.12643368E+03</rscale>
<asrwt>0</asrwt>
<pdfrwt beam="1">  1        2 0.38444906E-01 0.12643368E+03</pdfrwt>
<pdfrwt beam="2">  1       -2 0.24603678E-02 0.12643368E+03</pdfrwt>
<totfact> 0.68708006E+04</totfact>
</mgrwt>
</event>
<event>
 5    1  0.1197825E+001  0.9087114E+02  0.7546771E-02  0.1300756E+00
          2   -1    0    0  501    0  0.00000000000E+00  0.00000000000E+00  0.29228314875E+02  0.29228314875E+02  0.00000000000E+00 0. -1.
         -2   -1    0    0    0  501 -0.00000000000E+00 -0.00000000000E+00 -0.70629835369E+02  0.70629835369E+02  0.00000000000E+00 0.  1.
         23    2    1    2    0    0  0.00000000000E+00  0.00000000000E+00 -0.41401520494E+02  0.99858150245E+02  0.90871141025E+02 0.  0.
        -13    1    3    3    0    0 -0.99168163381E+01  0.38815555141E+02  0.28526213192E+01  0.40163764958E+02  0.00000000000E+00 0. -1.
         13    1    3    3    0    0  0.99168163381E+01 -0.38815555141E+02 -0.44254141813E+02  0.59694385287E+02  0.00000000000E+00 0.  1.
<mgrwt>
<rscale>  0 0.90871141E+02</rscale>
<asrwt>0</asrwt>
<pdfrwt beam="1">  1        2 0.44966639E-02 0.90871141E+02</pdfrwt>
<pdfrwt beam="2">  1       -2 0.10866128E-01 0.90871141E+02</pdfrwt>
<totfact> 0.88732766E+04</totfact>
</mgrwt>
</event>
<event>
 5    1  0.1197825E+001  0.9148224E+02  0.7546771E-02  0.1299301E+00
         -1   -1    0    0    0  501 -0.00000000000E+00  0.00000000000E+00  0.13220969492E+02  0.13220969492E+02  0.00000000000E+00 0.  1.
          1   -1    0    0  501    0  0.00000000000E+00 -0.00000000000E+00 -0.15825238500E+03  0.15825238500E+03  0.00000000000E+00 0. -1.
         23    2    1    2    0    0  0.00000000000E+00  0.00000000000E+00 -0.14503141551E+03  0.17147335449E+03  0.91482237710E+02 0.  0.
        -11    1    3    3    0    0  0.41093852513E+02 -0.13262161667E+02 -0.44234137160E+02  0.61816248161E+02  0.00000000000E+00 0.  1.
         11    1    3    3    0    0 -0.41093852513E+02  0.13262161667E+02 -0.10079727835E+03  0.10965710633E+03  0.00000000000E+00 0. -1.
<mgrwt>
<rscale>  0 0.91482238E+02</rscale>
<asrwt>0</asrwt>
<pdfrwt beam="2">  1        1 0.24346520E-01 0.91482238E+02</pdfrwt>
<pdfrwt beam="1">  1       -1 0.20339954E-02 0.91482238E+02</pdfrwt>
<totfact> 0.11223160E+05</totfact>
</mgrwt>
</event>
<event>
 5    1  0.1197825E+001  0.9213361E+02  0.7546771E-02  0.1297766E+00
          4   -1    0    0  501    0  0.00000000000E+00  0.00000000000E+00  0.16022411276E+02  0.16022411276E+02  0.00000000000E+00 0. -1.
         -4   -1    0    0    0  501 -0.00000000000E+00 -0.00000000000E+00 -0.13244889504E+03  0.13244889504E+03  0.00000000000E+00 0.  1.
         23    2    1    2    0    0  0.00000000000E+00  0.00000000000E+00 -0.11642648376E+03  0.14847130631E+03  0.92133613180E+02 0.  0.
        -13    1    3    3    0    0  0.19103081770E+02 -0.35064391051E+02 -0.95232070425E+02  0.10326464298E+03  0.00000000000E+00 0.  1.
         13    1    3    3    0    0 -0.19103081770E+02  0.35064391051E+02 -0.21194413338E+02  0.45206663332E+02  0.00000000000E+00 0. -1.
<mgrwt>
<rscale>  0 0.92133613E+02</rscale>
<asrwt>0</asrwt>
<pdfrwt beam="1">  1        4 0.24649864E-02 0.92133613E+02</pdfrwt>
<pdfrwt beam="2">  1       -4 0.20376753E-01 0.92133613E+02</pdfrwt>
<totfact> 0.23090445E+04</totfact>
</mgrwt>
</event>
<event>
 5    1  0.1197825E+001  0.9699914E+02  0.7546771E-02  0.1286736E+00
         -2   -1    0    0    0  501 -0.00000000000E+00  0.00000000000E+00  0.86504686497E+01  0.86504686497E+01  0.00000000000E+00 0. -1.
          2   -1    0    0  501    0  0.00000000000E+00 -0.00000000000E+00 -0.27191687353E+03  0.27191687353E+03  0.00000000000E+00 0.  1.
         23    2    1    2    0    0  0.00000000000E+00  0.00000000000E+00 -0.26326640488E+03  0.28056734218E+03  0.96999142054E+02 0.  0.
        -11    1    3    3    0    0  0.12768284191E+02 -0.36772566773E+02 -0.47953338662E+02  0.61763852188E+02  0.00000000000E+00 0. -1.
         11    1    3    3    0    0 -0.12768284191E+02  0.36772566773E+02 -0.21531306622E+03  0.21880348999E+03  0.00000000000E+00 0.  1.
<mgrwt>
<rscale>  0 0.96999142E+02</rscale>
<asrwt>0</asrwt>
<pdfrwt beam="2">  1        2 0.41833361E-01 0.96999142E+02</pdfrwt>
<pdfrwt beam="1">  1       -2 0.13308415E-02 0.96999142E+02</pdfrwt>
<totfact> 0.14668017E+05</totfact>
</mgrwt>
</event>
<event>
 5    1  0.1197825E+001  0.9236527E+02  0.7546771E-02  0.1297223E+00
         -3   -1    0    0    0  501 -0.00000000000E+00  0.00000000000E+00  0.18217122923E+03  0.18217122923E+03  0.00000000000E+00 0.  1.
          3   -1    0    0  501    0  0.00000000000E+00 -0.00000000000E+00 -0.11707861706E+02  0.11707861706E+02  0.00000000000E+00 0. -1.
         23    2    1    2    0    0  0.00000000000E+00  0.00000000000E+00  0.17046336752E+03  0.19387909093E+03  0.92365265303E+02 0.  0.
        -11    1    3    3    0    0  0.41698028308E+02  0.17518041385E+02  0.65627408239E+02  0.79702973916E+02  0.00000000000E+00 0.  1.
         11    1    3    3    0    0 -0.41698028308E+02 -0.17518041385E+02  0.10483595928E+03  0.11417611702E+03  0.00000000000E+00 0. -1.
<mgrwt>
<rscale>  0 0.92365265E+02</rscale>
<asrwt>0</asrwt>
<pdfrwt beam="2">  1        3 0.18012096E-02 0.92365265E+02</pdfrwt>
<pdfrwt beam="1">  1       -3 0.28026341E-01 0.92365265E+02</pdfrwt>
<totfact> 0.27825242E+04</totfact>
</mgrwt>
</event>
<event>
 5    1  0.1197825E+001  0.8117841E+02  0.7546771E-02  0.1325740E+00
          4   -1    0    0  501    0  0.00000000000E+00  0.00000000000E+00  0.11249319845E+02  0.11249319845E+02  0.00000000000E+00 0. -1.
         -4   -1    0    0    0  501 -0.00000000000E+00 -0.00000000000E+00 -0.14645182884E+03  0.14645182884E+03  0.00000000000E+00 0.  1.
         23    2    1    2    0    0  0.00000000000E+00  0.00000000000E+00 -0.13520250900E+03  0.15770114869E+03  0.81178407584E+02 0.  0.
        -13    1    3    3    0    0 -0.10564877630E+02 -0.32864842424E+02 -0.10907437370E+03  0.11440687700E+03  0.00000000000E+00 0.  1.
         13    1    3    3    0    0  0.10564877630E+02  0.32864842424E+02 -0.26128135303E+02  0.43294271691E+02  0.00000000000E+00 0. -1.
<mgrwt>
<rscale>  0 0.81178408E+02</rscale>
<asrwt>0</asrwt>
<pdfrwt beam="1">  1        4 0.17306648E-02 0.81178408E+02</pdfrwt>
<pdfrwt beam="2">  1       -4 0.22531048E-01 0.81178408E+02</pdfrwt>
<totfact> 0.31737174E+04</totfact>
</mgrwt>
</event>
<event>
 5    1  0.1197825E+001  0.9263753E+02  0.7546771E-02  0.1296587E+00
         -1   -1    0    0    0  501 -0.00000000000E+00  0.00000000000E+00  0.61631593502E+02  0.61631593502E+02  0.00000000000E+00 0.  1.
          1   -1    0    0  501    0  0.00000000000E+00 -0.00000000000E+00 -0.34810523089E+02  0.34810523089E+02  0.00000000000E+00 0. -1.
         23    2    1    2    0    0  0.00000000000E+00  0.00000000000E+00  0.26821070413E+02  0.96442116592E+02  0.92637530378E+02 0.  0.
        -13    1    3    3    0    0  0.35551625666E+02  0.20450407931E+02  0.35818714607E+02  0.54452893295E+02  0.00000000000E+00 0.  1.
         13    1    3    3    0    0 -0.35551625666E+02 -0.20450407931E+02 -0.89976441938E+01  0.41989223297E+02  0.00000000000E+00 0. -1.
<mgrwt>
<rscale>  0 0.92637530E+02</rscale>
<asrwt>0</asrwt>
<pdfrwt beam="2">  1        1 0.53554651E-02 0.92637530E+02</pdfrwt>
<pdfrwt beam="1">  1       -1 0.94817836E-02 0.92637530E+02</pdfrwt>
<totfact> 0.84814763E+04</totfact>
</mgrwt>
</event>
<event>
 5    1  0.1197825E+001  0.8917669E+02  0.7546771E-02  0.1304858E+00
          3   -1    0    0  501    0  0.00000000000E+00  0.00000000000E+00  0.47883864356E+02  0.47883864356E+02  0.00000000000E+00 0. -1.
         -3   -1    0    0    0  501 -0.00000000000E+00 -0.00000000000E+00 -0.41519630543E+02  0.41519630543E+02  0.00000000000E+00 0.  1.
         23    2    1    2    0    0  0.00000000000E+00  0.00000000000E+00  0.63642338135E+01  0.89403494899E+02  0.89176686573E+02 0.  0.
        -11    1    3    3    0    0  0.40141502354E+02  0.10089480343E+02  0.19806889674E+02  0.45885190458E+02  0.00000000000E+00 0. -1.
         11    1    3    3    0    0 -0.40141502354E+02 -0.10089480343E+02 -0.13442655860E+02  0.43518304441E+02  0.00000000000E+00 0.  1.
<mgrwt>
<rscale>  0 0.89176687E+02</rscale>
<asrwt>0</asrwt>
<pdfrwt beam="1">  1        3 0.73667484E-02 0.89176687E+02</pdfrwt>
<pdfrwt beam="2">  1       -3 0.63876354E-02 0.89176687E+02</pdfrwt>
<totfact> 0.37680088E+04</totfact>
</mgrwt>
</event>
<event>
 5    1  0.1197825E+001  0.8845174E+02  0.7546771E-02  0.1306645E+00
         -1   -1    0    0    0  501 -0.00000000000E+00  0.00000000000E+00  0.76692505264E+01  0.76692505264E+01  0.00000000000E+00 0. -1.
          1   -1    0    0  501    0  0.00000000000E+00 -0.00000000000E+00 -0.25503503298E+03  0.25503503298E+03  0.00000000000E+00 0.  1.
         23    2    1    2    0    0  0.00000000000E+00  0.00000000000E+00 -0.24736578245E+03  0.26270428350E+03  0.88451739630E+02 0.  0.
        -11    1    3    3    0    0 -0.84844638604E+01 -0.42690254362E+02 -0.14697133551E+03  0.15328084487E+03  0.00000000000E+00 0.  1.
         11    1    3    3    0    0  0.84844638604E+01  0.42690254362E+02 -0.10039444695E+03  0.10942343863E+03  0.00000000000E+00 0. -1.
<mgrwt>
<rscale>  0 0.88451740E+02</rscale>
<asrwt>0</asrwt>
<pdfrwt beam="2">  1        1 0.39236152E-01 0.88451740E+02</pdfrwt>
<pdfrwt beam="1">  1       -1 0.11798849E-02 0.88451740E+02</pdfrwt>
<totfact> 0.13460685E+05</totfact>
</mgrwt>
</event>
<event>
 5    1  0.1197825E+001  0.1217884E+03  0.7546771E-02  0.1240175E+00
          1   -1    0    0  501    0  0.00000000000E+00  0.00000000000E+00  0.18789692276E+02  0.18789692276E+02  0.00000000000E+00 0. -1.
         -1   -1    0    0    0  501 -0.00000000000E+00 -0.00000000000E+00 -0.19734791049E+03  0.19734791049E+03  0.00000000000E+00 0.  1.
         23    2    1    2    0    0  0.00000000000E+00  0.00000000000E+00 -0.17855821821E+03  0.21613760276E+03  0.12178844788E+03 0.  0.
        -13    1    3    3    0    0 -0.89289126213E+01  0.43444772938E+02 -0.16332743257E+03  0.16924250059E+03  0.00000000000E+00 0.  1.
         13    1    3    3    0    0  0.89289126213E+01 -0.43444772938E+02 -0.15230785637E+02  0.46895102168E+02  0.00000000000E+00 0. -1.
<mgrwt>
<rscale>  0 0.12178845E+03</rscale>
<asrwt>0</asrwt>
<pdfrwt beam="1">  1        1 0.28907217E-02 0.12178845E+03</pdfrwt>
<pdfrwt beam="2">  1       -1 0.30361219E-01 0.12178845E+03</pdfrwt>
<totfact> 0.32592169E+04</totfact>
</mgrwt>
</event>
<event>
 5    1  0.1197825E+001  0.1018396E+03  0.7546771E-02  0.1276474E+00
         -1   -1    0    0    0  501 -0.00000000000E+00  0.00000000000E+00  0.39158369440E+02  0.39158369440E+02  0.00000000000E+00 0.  1.
          1   -1    0    0  501    0  0.00000000000E+00 -0.00000000000E+00 -0.66213904399E+02  0.66213904399E+02  0.00000000000E+00 0. -1.
         23    2    1    2    0    0  0.00000000000E+00  0.00000000000E+00 -0.27055534959E+02  0.10537227384E+03  0.10183964907E+03 0.  0.
        -13    1    3    3    0    0 -0.24413503932E+02  0.27333825227E+02 -0.50104707084E+02  0.62077683975E+02  0.00000000000E+00 0. -1.
         13    1    3    3    0    0  0.24413503932E+02 -0.27333825227E+02  0.23049172125E+02  0.43294589863E+02  0.00000000000E+00 0.  1.
<mgrwt>
<rscale>  0 0.10183965E+03</rscale>
<asrwt>0</asrwt>
<pdfrwt beam="2">  1        1 0.10186754E-01 0.10183965E+03</pdfrwt>
<pdfrwt beam="1">  1       -1 0.60243646E-02 0.10183965E+03</pdfrwt>
<totfact> 0.71870811E+04</totfact>
</mgrwt>
</event>
<event>
 5    1  0.1197825E+001  0.8946592E+02  0.7546771E-02  0.1304150E+00
          1   -1    0    0  501    0  0.00000000000E+00  0.00000000000E+00  0.29392765723E+03  0.29392765723E+03  0.00000000000E+00 0. -1.
         -1   -1    0    0    0  501 -0.00000000000E+00 -0.00000000000E+00 -0.68079261745E+01  0.68079261745E+01  0.00000000000E+00 0.  1.
         23    2    1    2    0    0  0.00000000000E+00  0.00000000000E+00  0.28711973106E+03  0.30073558340E+03  0.89465921804E+02 0.  0.
        -13    1    3    3    0    0 -0.37584101757E+00 -0.41400957453E+02  0.86627386254E+02  0.96012939668E+02  0.00000000000E+00 0.  1.
         13    1    3    3    0    0  0.37584101757E+00  0.41400957453E+02  0.20049234480E+03  0.20472264374E+03  0.00000000000E+00 0. -1.
<mgrwt>
<rscale>  0 0.89465922E+02</rscale>
<asrwt>0</asrwt>
<pdfrwt beam="1">  1        1 0.45219630E-01 0.89465922E+02</pdfrwt>
<pdfrwt beam="2">  1       -1 0.10473735E-02 0.89465922E+02</pdfrwt>
<totfact> 0.13422068E+05</totfact>
</mgrwt>
</event>
<event>
 5    1  0.1197825E+001  0.8925572E+02  0.7546771E-02  0.1304664E+00
         -1   -1    0    0    0  501 -0.00000000000E+00  0.00000000000E+00  0.12009249297E+02  0.12009249297E+02  0.00000000000E+00 0.  1.
          1   -1    0    0  501    0  0.00000000000E+00 -0.00000000000E+00 -0.16584266396E+03  0.16584266396E+03  0.00000000000E+00 0. -1.
         23    2    1    2    0    0  0.00000000000E+00  0.00000000000E+00 -0.15383341467E+03  0.17785191326E+03  0.89255720167E+02 0.  0.
        -13    1    3    3    0    0  0.47242965668E+01  0.26258715976E+02 -0.56322772590E+01  0.27268327596E+02  0.00000000000E+00 0.  1.
         13    1    3    3    0    0 -0.47242965668E+01 -0.26258715976E+02 -0.14820113741E+03  0.15058358567E+03  0.00000000000E+00 0. -1.
<mgrwt>
<rscale>  0 0.89255720E+02</rscale>
<asrwt>0</asrwt>
<pdfrwt beam="2">  1        1 0.25514256E-01 0.89255720E+02</pdfrwt>
<pdfrwt beam="1">  1       -1 0.18475768E-02 0.89255720E+02</pdfrwt>
<totfact> 0.12096919E+05</totfact>
</mgrwt>
</event>
<event>
 5    1  0.1197825E+001  0.8936719E+02  0.7546771E-02  0.1304391E+00
         -1   -1    0    0    0  501 -0.00000000000E+00  0.00000000000E+00  0.26211245955E+03  0.26211245955E+03  0.00000000000E+00 0.  1.
          1   -1    0    0  501    0  0.00000000000E+00 -0.00000000000E+00 -0.76174321210E+01  0.76174321210E+01  0.00000000000E+00 0. -1.
         23    2    1    2    0    0  0.00000000000E+00  0.00000000000E+00  0.25449502743E+03  0.26972989167E+03  0.89367194623E+02 0.  0.
        -13    1    3    3    0    0  0.34355200002E+02  0.15702100172E+02  0.55201880945E+02  0.66888589288E+02  0.00000000000E+00 0. -1.
         13    1    3    3    0    0 -0.34355200002E+02 -0.15702100172E+02  0.19929314648E+03  0.20284130238E+03  0.00000000000E+00 0.  1.
<mgrwt>
<rscale>  0 0.89367195E+02</rscale>
<asrwt>0</asrwt>
<pdfrwt beam="2">  1        1 0.11719128E-02 0.89367195E+02</pdfrwt>
<pdfrwt beam="1">  1       -1 0.40324987E-01 0.89367195E+02</pdfrwt>
<totfact> 0.67135238E+04</totfact>
</mgrwt>
</event>
<event>
 5    1  0.1197825E+001  0.9366509E+02  0.7546771E-02  0.1294211E+00
         -1   -1    0    0    0  501 -0.00000000000E+00  0.00000000000E+00  0.96050141747E+01  0.96050141747E+01  0.00000000000E+00 0.  1.
          1   -1    0    0  501    0  0.00000000000E+00 -0.00000000000E+00 -0.22834817066E+03  0.22834817066E+03  0.00000000000E+00 0. -1.
         23    2    1    2    0    0  0.00000000000E+00  0.00000000000E+00 -0.21874315649E+03  0.23795318484E+03  0.93665093093E+02 0.  0.
        -11    1    3    3    0    0 -0.34634392518E+02  0.25273630421E+02 -0.61506173376E+02  0.74975375311E+02  0.00000000000E+00 0.  1.
         11    1    3    3    0    0  0.34634392518E+02 -0.25273630421E+02 -0.15723698311E+03  0.16297780953E+03  0.00000000000E+00 0. -1.
<mgrwt>
<rscale>  0 0.93665093E+02</rscale>
<asrwt>0</asrwt>
<pdfrwt beam="2">  1        1 0.35130483E-01 0.93665093E+02</pdfrwt>
<pdfrwt beam="1">  1       -1 0.14776947E-02 0.93665093E+02</pdfrwt>
<totfact> 0.11304084E+05</totfact>
</mgrwt>
</event>
<event>
 5    1  0.1197825E+001  0.9059064E+02  0.7546771E-02  0.1301428E+00
          4   -1    0    0  501    0  0.00000000000E+00  0.00000000000E+00  0.90913273453E+02  0.90913273453E+02  0.00000000000E+00 0. -1.
         -4   -1    0    0    0  501 -0.00000000000E+00 -0.00000000000E+00 -0.22567287674E+02  0.22567287674E+02  0.00000000000E+00 0.  1.
         23    2    1    2    0    0  0.00000000000E+00  0.00000000000E+00  0.68345985779E+02  0.11348056113E+03  0.90590639592E+02 0.  0.
        -11    1    3    3    0    0 -0.28901973223E+02 -0.69134066892E+01 -0.86484398579E+01  0.30950198064E+02  0.00000000000E+00 0.  1.
         11    1    3    3    0    0  0.28901973223E+02  0.69134066892E+01  0.76994425637E+02  0.82530363063E+02  0.00000000000E+00 0. -1.
<mgrwt>
<rscale>  0 0.90590640E+02</rscale>
<asrwt>0</asrwt>
<pdfrwt beam="1">  1        4 0.13986657E-01 0.90590640E+02</pdfrwt>
<pdfrwt beam="2">  1       -4 0.34718905E-02 0.90590640E+02</pdfrwt>
<totfact> 0.26098387E+04</totfact>
</mgrwt>
</event>
<event>
 5    1  0.1197825E+001  0.9034790E+02  0.7546771E-02  0.1302011E+00
          3   -1    0    0  501    0  0.00000000000E+00  0.00000000000E+00  0.15194742604E+02  0.15194742604E+02  0.00000000000E+00 0. -1.
         -3   -1    0    0    0  501 -0.00000000000E+00 -0.00000000000E+00 -0.13430208640E+03  0.13430208640E+03  0.00000000000E+00 0.  1.
         23    2    1    2    0    0  0.00000000000E+00  0.00000000000E+00 -0.11910734379E+03  0.14949682900E+03  0.90347897243E+02 0.  0.
        -13    1    3    3    0    0 -0.19853072839E+02 -0.36420678560E+02 -0.89156964402E+02  0.98333995288E+02  0.00000000000E+00 0. -1.
         13    1    3    3    0    0  0.19853072839E+02  0.36420678560E+02 -0.29950379392E+02  0.51162833715E+02  0.00000000000E+00 0.  1.
<mgrwt>
<rscale>  0 0.90347897E+02</rscale>
<asrwt>0</asrwt>
<pdfrwt beam="1">  1        3 0.23376527E-02 0.90347897E+02</pdfrwt>
<pdfrwt beam="2">  1       -3 0.20661859E-01 0.90347897E+02</pdfrwt>
<totfact> 0.32122433E+04</totfact>
</mgrwt>
</event>
<event>
 5    1  0.1197825E+001  0.9543814E+02  0.7546771E-02  0.1290192E+00
          1   -1    0    0  501    0  0.00000000000E+00  0.00000000000E+00  0.34825024490E+02  0.34825024490E+02  0.00000000000E+00 0. -1.
         -1   -1    0    0    0  501 -0.00000000000E+00 -0.00000000000E+00 -0.65387164268E+02  0.65387164268E+02  0.00000000000E+00 0.  1.
         23    2    1    2    0    0  0.00000000000E+00  0.00000000000E+00 -0.30562139778E+02  0.10021218876E+03  0.95438139064E+02 0.  0.
        -13    1    3    3    0    0  0.32984946350E+02  0.34441778485E+02 -0.17058930640E+02  0.50648296176E+02  0.00000000000E+00 0.  1.
         13    1    3    3    0    0 -0.32984946350E+02 -0.34441778485E+02 -0.13503209138E+02  0.49563892583E+02  0.00000000000E+00 0. -1.
<mgrwt>
<rscale>  0 0.95438139E+02</rscale>
<asrwt>0</asrwt>
<pdfrwt beam="1">  1        1 0.53576961E-02 0.95438139E+02</pdfrwt>
<pdfrwt beam="2">  1       -1 0.10059564E-01 0.95438139E+02</pdfrwt>
<totfact> 0.77884073E+04</totfact>
</mgrwt>
</event>
<event>
 5    1  0.1197825E+001  0.9190626E+02  0.7546771E-02  0.1298300E+00
          2   -1    0    0  501    0  0.00000000000E+00  0.00000000000E+00  0.11149994004E+03  0.11149994004E+03  0.00000000000E+00 0. -1.
         -2   -1    0    0    0  501 -0.00000000000E+00 -0.00000000000E+00 -0.18938933691E+02  0.18938933691E+02  0.00000000000E+00 0.  1.
         23    2    1    2    0    0  0.00000000000E+00  0.00000000000E+00  0.92561006348E+02  0.13043887373E+03  0.91906255957E+02 0.  0.
        -11    1    3    3    0    0  0.41328905622E+02  0.17491755046E+01  0.17875726915E+02  0.45063063229E+02  0.00000000000E+00 0.  1.
         11    1    3    3    0    0 -0.41328905622E+02 -0.17491755046E+01  0.74685279433E+02  0.85375810502E+02  0.00000000000E+00 0. -1.
<mgrwt>
<rscale>  0 0.91906256E+02</rscale>
<asrwt>0</asrwt>
<pdfrwt beam="1">  1        2 0.17153837E-01 0.91906256E+02</pdfrwt>
<pdfrwt beam="2">  1       -2 0.29136822E-02 0.91906256E+02</pdfrwt>
<totfact> 0.12412978E+05</totfact>
</mgrwt>
</event>
<event>
 5    1  0.1197825E+001  0.8881299E+02  0.7546771E-02  0.1305752E+00
          1   -1    0    0  501    0  0.00000000000E+00  0.00000000000E+00  0.64991143690E+02  0.64991143690E+02  0.00000000000E+00 0. -1.
         -1   -1    0    0    0  501 -0.00000000000E+00 -0.00000000000E+00 -0.30341623383E+02  0.30341623383E+02  0.00000000000E+00 0.  1.
         23    2    1    2    0    0  0.00000000000E+00  0.00000000000E+00  0.34649520307E+02  0.95332767072E+02  0.88812990154E+02 0.  0.
        -13    1    3    3    0    0  0.25494668664E+02  0.21853309121E+02 -0.13866839447E+02  0.36329526368E+02  0.00000000000E+00 0.  1.
         13    1    3    3    0    0 -0.25494668664E+02 -0.21853309121E+02  0.48516359754E+02  0.59003240705E+02  0.00000000000E+00 0. -1.
<mgrwt>
<rscale>  0 0.88812990E+02</rscale>
<asrwt>0</asrwt>
<pdfrwt beam="1">  1        1 0.99986375E-02 0.88812990E+02</pdfrwt>
<pdfrwt beam="2">  1       -1 0.46679421E-02 0.88812990E+02</pdfrwt>
<totfact> 0.10487757E+05</totfact>
</mgrwt>
</event>
<event>
 5    1  0.1197825E+001  0.9004954E+02  0.7546771E-02  0.1302732E+00
         -1   -1    0    0    0  501 -0.00000000000E+00  0.00000000000E+00  0.49180447526E+02  0.49180447526E+02  0.00000000000E+00 0.  1.
          1   -1    0    0  501    0  0.00000000000E+00 -0.00000000000E+00 -0.41220245196E+02  0.41220245196E+02  0.00000000000E+00 0. -1.
         23    2    1    2    0    0  0.00000000000E+00  0.00000000000E+00  0.79602023299E+01  0.90400692723E+02  0.90049544272E+02 0.  0.
        -11    1    3    3    0    0  0.36446696693E+02 -0.11050078263E+02 -0.20129464030E+02  0.43077386777E+02  0.00000000000E+00 0. -1.
         11    1    3    3    0    0 -0.36446696693E+02  0.11050078263E+02  0.28089666360E+02  0.47323305946E+02  0.00000000000E+00 0.  1.
<mgrwt>
<rscale>  0 0.90049544E+02</rscale>
<asrwt>0</asrwt>
<pdfrwt beam="2">  1        1 0.63415762E-02 0.90049544E+02</pdfrwt>
<pdfrwt beam="1">  1       -1 0.75662227E-02 0.90049544E+02</pdfrwt>
<totfact> 0.94324637E+04</totfact>
</mgrwt>
</event>
<event>
 5    1  0.1197825E+001  0.7878374E+02  0.7546771E-02  0.1332539E+00
          1   -1    0    0  501    0  0.00000000000E+00  0.00000000000E+00  0.14120348356E+02  0.14120348356E+02  0.00000000000E+00 0. -1.
         -1   -1    0    0    0  501 -0.00000000000E+00 -0.00000000000E+00 -0.10989243403E+03  0.10989243403E+03  0.00000000000E+00 0.  1.
         23    2    1    2    0    0  0.00000000000E+00  0.00000000000E+00 -0.95772085671E+02  0.12401278238E+03  0.78783740712E+02 0.  0.
        -13    1    3    3    0    0  0.20996285263E+02 -0.32401410254E+02 -0.35589573397E+02  0.52510123936E+02  0.00000000000E+00 0.  1.
         13    1    3    3    0    0 -0.20996285263E+02  0.32401410254E+02 -0.60182512274E+02  0.71502658446E+02  0.00000000000E+00 0. -1.
<mgrwt>
<rscale>  0 0.78783741E+02</rscale>
<asrwt>0</asrwt>
<pdfrwt beam="1">  1        1 0.21723611E-02 0.78783741E+02</pdfrwt>
<pdfrwt beam="2">  1       -1 0.16906530E-01 0.78783741E+02</pdfrwt>
<totfact> 0.11636231E+05</totfact>
</mgrwt>
</event>
<event>
 5    1  0.1197825E+001  0.8572360E+02  0.7546771E-02  0.1313551E+00
          2   -1    0    0  501    0  0.00000000000E+00  0.00000000000E+00  0.36278689011E+02  0.36278689011E+02  0.00000000000E+00 0. -1.
         -2   -1    0    0    0  501 -0.00000000000E+00 -0.00000000000E+00 -0.50639478197E+02  0.50639478197E+02  0.00000000000E+00 0.  1.
         23    2    1    2    0    0  0.00000000000E+00  0.00000000000E+00 -0.14360789186E+02  0.86918167208E+02  0.85723599579E+02 0.  0.
        -11    1    3    3    0    0 -0.17434003475E+02 -0.16009283270E+02 -0.43411975743E+02  0.49445336139E+02  0.00000000000E+00 0.  1.
         11    1    3    3    0    0  0.17434003475E+02  0.16009283270E+02  0.29051186557E+02  0.37472831070E+02  0.00000000000E+00 0. -1.
<mgrwt>
<rscale>  0 0.85723600E+02</rscale>
<asrwt>0</asrwt>
<pdfrwt beam="1">  1        2 0.55813368E-02 0.85723600E+02</pdfrwt>
<pdfrwt beam="2">  1       -2 0.77906889E-02 0.85723600E+02</pdfrwt>
<totfact> 0.11119269E+05</totfact>
</mgrwt>
</event>
<event>
 5    1  0.1197825E+001  0.8976025E+02  0.7546771E-02  0.1303433E+00
          3   -1    0    0  501    0  0.00000000000E+00  0.00000000000E+00  0.18754821733E+03  0.18754821733E+03  0.00000000000E+00 0. -1.
         -3   -1    0    0    0  501 -0.00000000000E+00 -0.00000000000E+00 -0.10739774446E+02  0.10739774446E+02  0.00000000000E+00 0.  1.
         23    2    1    2    0    0  0.00000000000E+00  0.00000000000E+00  0.17680844289E+03  0.19828799178E+03  0.89760248482E+02 0.  0.
        -11    1    3    3    0    0 -0.32776447264E+01  0.41213955565E+02  0.12697742534E+03  0.13353875705E+03  0.00000000000E+00 0. -1.
         11    1    3    3    0    0  0.32776447264E+01 -0.41213955565E+02  0.49831017546E+02  0.64749234728E+02  0.00000000000E+00 0.  1.
<mgrwt>
<rscale>  0 0.89760248E+02</rscale>
<asrwt>0</asrwt>
<pdfrwt beam="1">  1        3 0.28853569E-01 0.89760248E+02</pdfrwt>
<pdfrwt beam="2">  1       -3 0.16522731E-02 0.89760248E+02</pdfrwt>
<totfact> 0.29818211E+04</totfact>
</mgrwt>
</event>
<event>
 5    1  0.1197825E+001  0.1002766E+03  0.7546771E-02  0.1279715E+00
          2   -1    0    0  501    0  0.00000000000E+00  0.00000000000E+00  0.38329412294E+02  0.38329412294E+02  0.00000000000E+00 0. -1.
         -2   -1    0    0    0  501 -0.00000000000E+00 -0.00000000000E+00 -0.65585408508E+02  0.65585408508E+02  0.00000000000E+00 0.  1.
         23    2    1    2    0    0  0.00000000000E+00  0.00000000000E+00 -0.27255996214E+02  0.10391482080E+03  0.10027662067E+03 0.  0.
        -13    1    3    3    0    0 -0.49904375675E+02 -0.82685833657E+00 -0.86885361651E+01  0.50661830473E+02  0.00000000000E+00 0. -1.
         13    1    3    3    0    0  0.49904375675E+02  0.82685833657E+00 -0.18567460049E+02  0.53252990328E+02  0.00000000000E+00 0.  1.
<mgrwt>
<rscale>  0 0.10027662E+03</rscale>
<asrwt>0</asrwt>
<pdfrwt beam="1">  1        2 0.58968327E-02 0.10027662E+03</pdfrwt>
<pdfrwt beam="2">  1       -2 0.10090063E-01 0.10027662E+03</pdfrwt>
<totfact> 0.71320664E+04</totfact>
</mgrwt>
</event>
<event>
 5    1  0.1197825E+001  0.9062269E+02  0.7546771E-02  0.1301351E+00
         -2   -1    0    0    0  501 -0.00000000000E+00  0.00000000000E+00  0.10864264795E+02  0.10864264795E+02  0.00000000000E+00 0.  1.
          2   -1    0    0  501    0  0.00000000000E+00 -0.00000000000E+00 -0.18897902560E+03  0.18897902560E+03  0.00000000000E+00 0. -1.
         23    2    1    2    0    0  0.00000000000E+00  0.00000000000E+00 -0.17811476080E+03  0.19984329039E+03  0.90622694173E+02 0.  0.
        -13    1    3    3    0    0  0.40615554008E+02 -0.20015710764E+02 -0.92790837395E+02  0.10324917147E+03  0.00000000000E+00 0.  1.
         13    1    3    3    0    0 -0.40615554008E+02  0.20015710764E+02 -0.85323923406E+02  0.96594118921E+02  0.00000000000E+00 0. -1.
<mgrwt>
<rscale>  0 0.90622694E+02</rscale>
<asrwt>0</asrwt>
<pdfrwt beam="2">  1        2 0.29073694E-01 0.90622694E+02</pdfrwt>
<pdfrwt beam="1">  1       -2 0.16714255E-02 0.90622694E+02</pdfrwt>
<totfact> 0.15406524E+05</totfact>
</mgrwt>
</event>
<event>
 5    1  0.1197825E+001  0.9020104E+02  0.7546771E-02  0.1302366E+00
         -1   -1    0    0    0  501 -0.00000000000E+00  0.00000000000E+00  0.56792731105E+02  0.56792731105E+02  0.00000000000E+00 0.  1.
          1   -1    0    0  501    0  0.00000000000E+00 -0.00000000000E+00 -0.35815445899E+02  0.35815445899E+02  0.00000000000E+00 0. -1.
         23    2    1    2    0    0  0.00000000000E+00  0.00000000000E+00  0.20977285206E+02  0.92608177004E+02  0.90201041864E+02 0.  0.
        -13    1    3    3    0    0  0.39968683334E+02 -0.16527912543E+02 -0.26348606691E+01  0.43331397753E+02  0.00000000000E+00 0. -1.
         13    1    3    3    0    0 -0.39968683334E+02  0.16527912543E+02  0.23612145876E+02  0.49276779251E+02  0.00000000000E+00 0.  1.
<mgrwt>
<rscale>  0 0.90201042E+02</rscale>
<asrwt>0</asrwt>
<pdfrwt beam="2">  1        1 0.55100686E-02 0.90201042E+02</pdfrwt>
<pdfrwt beam="1">  1       -1 0.87373432E-02 0.90201042E+02</pdfrwt>
<totfact> 0.91904413E+04</totfact>
</mgrwt>
</event>
<event>
 5    1  0.1197825E+001  0.9259321E+02  0.7546771E-02  0.1296691E+00
          1   -1    0    0  501    0  0.00000000000E+00  0.00000000000E+00  0.10385268300E+02  0.10385268300E+02  0.00000000000E+00 0. -1.
         -1   -1    0    0    0  501 -0.00000000000E+00 -0.00000000000E+00 -0.20638614633E+03  0.20638614633E+03  0.00000000000E+00 0.  1.
         23    2    1    2    0    0  0.00000000000E+00  0.00000000000E+00 -0.19600087803E+03  0.21677141463E+03  0.92593207160E+02 0.  0.
        -11    1    3    3    0    0 -0.28071976982E+02 -0.19353330126E+02 -0.24682456468E+02  0.42092884624E+02  0.00000000000E+00 0. -1.
         11    1    3    3    0    0  0.28071976982E+02  0.19353330126E+02 -0.17131842156E+03  0.17467853001E+03  0.00000000000E+00 0.  1.
<mgrwt>
<rscale>  0 0.92593207E+02</rscale>
<asrwt>0</asrwt>
<pdfrwt beam="1">  1        1 0.15977337E-02 0.92593207E+02</pdfrwt>
<pdfrwt beam="2">  1       -1 0.31751712E-01 0.92593207E+02</pdfrwt>
<totfact> 0.66083405E+04</totfact>
</mgrwt>
</event>
<event>
 5    1  0.1197825E+001  0.9425039E+02  0.7546771E-02  0.1292873E+00
         -1   -1    0    0    0  501 -0.00000000000E+00  0.00000000000E+00  0.97777915141E+02  0.97777915141E+02  0.00000000000E+00 0.  1.
          1   -1    0    0  501    0  0.00000000000E+00 -0.00000000000E+00 -0.22712534044E+02  0.22712534044E+02  0.00000000000E+00 0. -1.
         23    2    1    2    0    0  0.00000000000E+00  0.00000000000E+00  0.75065381098E+02  0.12049044919E+03  0.94250394723E+02 0.  0.
        -13    1    3    3    0    0 -0.15513368741E+02 -0.43747370624E+02  0.27124284702E+02  0.53760802327E+02  0.00000000000E+00 0. -1.
         13    1    3    3    0    0  0.15513368741E+02  0.43747370624E+02  0.47941096396E+02  0.66729646859E+02  0.00000000000E+00 0.  1.
<mgrwt>
<rscale>  0 0.94250395E+02</rscale>
<asrwt>0</asrwt>
<pdfrwt beam="2">  1        1 0.34942361E-02 0.94250395E+02</pdfrwt>
<pdfrwt beam="1">  1       -1 0.15042756E-01 0.94250395E+02</pdfrwt>
<totfact> 0.75017313E+04</totfact>
</mgrwt>
</event>
<event>
 5    1  0.1197825E+001  0.8834064E+02  0.7546771E-02  0.1306921E+00
         -2   -1    0    0    0  501 -0.00000000000E+00  0.00000000000E+00  0.92655860573E+01  0.92655860573E+01  0.00000000000E+00 0. -1.
          2   -1    0    0  501    0  0.00000000000E+00 -0.00000000000E+00 -0.21056599439E+03  0.21056599439E+03  0.00000000000E+00 0.  1.
         23    2    1    2    0    0  0.00000000000E+00  0.00000000000E+00 -0.20130040833E+03  0.21983158045E+03  0.88340643914E+02 0.  0.
        -11    1    3    3    0    0 -0.36000269220E+01  0.40904011848E+02 -0.60147311167E+02  0.72827175008E+02  0.00000000000E+00 0.  1.
         11    1    3    3    0    0  0.36000269220E+01 -0.40904011848E+02 -0.14115309717E+03  0.14700440544E+03  0.00000000000E+00 0. -1.
<mgrwt>
<rscale>  0 0.88340644E+02</rscale>
<asrwt>0</asrwt>
<pdfrwt beam="2">  1        2 0.32394765E-01 0.88340644E+02</pdfrwt>
<pdfrwt beam="1">  1       -2 0.14254749E-02 0.88340644E+02</pdfrwt>
<totfact> 0.17153724E+05</totfact>
</mgrwt>
</event>
<event>
 5    1  0.1197825E+001  0.9094969E+02  0.7546771E-02  0.1300568E+00
          1   -1    0    0  501    0  0.00000000000E+00  0.00000000000E+00  0.53855320385E+02  0.53855320385E+02  0.00000000000E+00 0. -1.
         -1   -1    0    0    0  501 -0.00000000000E+00 -0.00000000000E+00 -0.38398464970E+02  0.38398464970E+02  0.00000000000E+00 0.  1.
         23    2    1    2    0    0  0.00000000000E+00  0.00000000000E+00  0.15456855415E+02  0.92253785355E+02  0.90949692320E+02 0.  0.
        -13    1    3    3    0    0  0.97660663068E+01 -0.10808638639E+02 -0.35967779125E+02  0.38805719366E+02  0.00000000000E+00 0.  1.
         13    1    3    3    0    0 -0.97660663068E+01  0.10808638639E+02  0.51424634540E+02  0.53448065989E+02  0.00000000000E+00 0. -1.
<mgrwt>
<rscale>  0 0.90949692E+02</rscale>
<asrwt>0</asrwt>
<pdfrwt beam="1">  1        1 0.82854339E-02 0.90949692E+02</pdfrwt>
<pdfrwt beam="2">  1       -1 0.59074561E-02 0.90949692E+02</pdfrwt>
<totfact> 0.95476364E+04</totfact>
</mgrwt>
</event>
<event>
 5    1  0.1197825E+001  0.9147133E+02  0.7546771E-02  0.1299327E+00
         -2   -1    0    0    0  501 -0.00000000000E+00  0.00000000000E+00  0.62049506274E+01  0.62049506274E+01  0.00000000000E+00 0. -1.
          2   -1    0    0  501    0  0.00000000000E+00 -0.00000000000E+00 -0.33711002747E+03  0.33711002747E+03  0.00000000000E+00 0.  1.
         23    2    1    2    0    0  0.00000000000E+00  0.00000000000E+00 -0.33090507684E+03  0.34331497810E+03  0.91471330513E+02 0.  0.
        -11    1    3    3    0    0 -0.18150953568E+02 -0.36401936444E+02 -0.24392989157E+03  0.24729809966E+03  0.00000000000E+00 0.  1.
         11    1    3    3    0    0  0.18150953568E+02  0.36401936444E+02 -0.86975185270E+02  0.96016878439E+02  0.00000000000E+00 0. -1.
<mgrwt>
<rscale>  0 0.91471331E+02</rscale>
<asrwt>0</asrwt>
<pdfrwt beam="2">  1        2 0.51863087E-01 0.91471331E+02</pdfrwt>
<pdfrwt beam="1">  1       -2 0.95460767E-03 0.91471331E+02</pdfrwt>
<totfact> 0.18599023E+05</totfact>
</mgrwt>
</event>
<event>
 5    1  0.1197825E+001  0.8717111E+02  0.7546771E-02  0.1309851E+00
         -2   -1    0    0    0  501 -0.00000000000E+00  0.00000000000E+00  0.12397801227E+03  0.12397801227E+03  0.00000000000E+00 0.  1.
          2   -1    0    0  501    0  0.00000000000E+00 -0.00000000000E+00 -0.15322882855E+02  0.15322882855E+02  0.00000000000E+00 0. -1.
         23    2    1    2    0    0  0.00000000000E+00  0.00000000000E+00  0.10865512941E+03  0.13930089512E+03  0.87171108941E+02 0.  0.
        -13    1    3    3    0    0  0.33126585462E+02  0.19290645532E+02  0.21182643717E+02  0.43797306587E+02  0.00000000000E+00 0. -1.
         13    1    3    3    0    0 -0.33126585462E+02 -0.19290645532E+02  0.87472485694E+02  0.95503588534E+02  0.00000000000E+00 0.  1.
<mgrwt>
<rscale>  0 0.87171109E+02</rscale>
<asrwt>0</asrwt>
<pdfrwt beam="2">  1        2 0.23573667E-02 0.87171109E+02</pdfrwt>
<pdfrwt beam="1">  1       -2 0.19073540E-01 0.87171109E+02</pdfrwt>
<totfact> 0.83529449E+04</totfact>
</mgrwt>
</event>
<event>
 5    1  0.1197825E+001  0.8202775E+02  0.7546771E-02  0.1323394E+00
          1   -1    0    0  501    0  0.00000000000E+00  0.00000000000E+00  0.14357853983E+03  0.14357853983E+03  0.00000000000E+00 0. -1.
         -1   -1    0    0    0  501 -0.00000000000E+00 -0.00000000000E+00 -0.11715802553E+02  0.11715802553E+02  0.00000000000E+00 0.  1.
         23    2    1    2    0    0  0.00000000000E+00  0.00000000000E+00  0.13186273728E+03  0.15529434239E+03  0.82027747100E+02 0.  0.
        -11    1    3    3    0    0  0.68742670894E+01 -0.38798717384E+02  0.87479014152E+02  0.95943597680E+02  0.00000000000E+00 0.  1.
         11    1    3    3    0    0 -0.68742670894E+01  0.38798717384E+02  0.44383723127E+02  0.59350744707E+02  0.00000000000E+00 0. -1.
<mgrwt>
<rscale>  0 0.82027747E+02</rscale>
<asrwt>0</asrwt>
<pdfrwt beam="1">  1        1 0.22089005E-01 0.82027747E+02</pdfrwt>
<pdfrwt beam="2">  1       -1 0.18024313E-02 0.82027747E+02</pdfrwt>
<totfact> 0.14771439E+05</totfact>
</mgrwt>
</event>
<event>
 5    1  0.1197825E+001  0.9570544E+02  0.7546771E-02  0.1289595E+00
          2   -1    0    0  501    0  0.00000000000E+00  0.00000000000E+00  0.68890664279E+02  0.68890664279E+02  0.00000000000E+00 0. -1.
         -2   -1    0    0    0  501 -0.00000000000E+00 -0.00000000000E+00 -0.33239376532E+02  0.33239376532E+02  0.00000000000E+00 0.  1.
         23    2    1    2    0    0  0.00000000000E+00  0.00000000000E+00  0.35651287747E+02  0.10213004081E+03  0.95705438288E+02 0.  0.
        -11    1    3    3    0    0 -0.28222418177E+02  0.21925833008E+02  0.51783753312E+02  0.62919028504E+02  0.00000000000E+00 0. -1.
         11    1    3    3    0    0  0.28222418177E+02 -0.21925833008E+02 -0.16132465565E+02  0.39211012306E+02  0.00000000000E+00 0.  1.
<mgrwt>
<rscale>  0 0.95705438E+02</rscale>
<asrwt>0</asrwt>
<pdfrwt beam="1">  1        2 0.10598564E-01 0.95705438E+02</pdfrwt>
<pdfrwt beam="2">  1       -2 0.51137503E-02 0.95705438E+02</pdfrwt>
<totfact> 0.96089094E+04</totfact>
</mgrwt>
</event>
<event>
 5    1  0.1197825E+001  0.9058741E+02  0.7546771E-02  0.1301435E+00
          2   -1    0    0  501    0  0.00000000000E+00  0.00000000000E+00  0.66400261992E+02  0.66400261992E+02  0.00000000000E+00 0.  1.
         -2   -1    0    0    0  501 -0.00000000000E+00 -0.00000000000E+00 -0.30896262573E+02  0.30896262573E+02  0.00000000000E+00 0. -1.
         23    2    1    2    0    0  0.00000000000E+00  0.00000000000E+00  0.35503999419E+02  0.97296524565E+02  0.90587414787E+02 0.  0.
        -13    1    3    3    0    0 -0.20660923875E+02 -0.22335642394E+02  0.53789393698E+02  0.61798491656E+02  0.00000000000E+00 0.  1.
         13    1    3    3    0    0  0.20660923875E+02  0.22335642394E+02 -0.18285394279E+02  0.35498032910E+02  0.00000000000E+00 0. -1.
<mgrwt>
<rscale>  0 0.90587415E+02</rscale>
<asrwt>0</asrwt>
<pdfrwt beam="1">  1        2 0.10215425E-01 0.90587415E+02</pdfrwt>
<pdfrwt beam="2">  1       -2 0.47532712E-02 0.90587415E+02</pdfrwt>
<totfact> 0.11102235E+05</totfact>
</mgrwt>
</event>
<event>
 5    1  0.1197825E+001  0.9352933E+02  0.7546771E-02  0.1294523E+00
         -2   -1    0    0    0  501 -0.00000000000E+00  0.00000000000E+00  0.21611409409E+02  0.21611409409E+02  0.00000000000E+00 0.  1.
          2   -1    0    0  501    0  0.00000000000E+00 -0.00000000000E+00 -0.10119348843E+03  0.10119348843E+03  0.00000000000E+00 0. -1.
         23    2    1    2    0    0  0.00000000000E+00  0.00000000000E+00 -0.79582079025E+02  0.12280489784E+03  0.93529330332E+02 0.  0.
        -11    1    3    3    0    0 -0.36959182800E+02 -0.26504815551E+02 -0.54080990958E+02  0.70662861700E+02  0.00000000000E+00 0.  1.
         11    1    3    3    0    0  0.36959182800E+02  0.26504815551E+02 -0.25501088067E+02  0.52142036144E+02  0.00000000000E+00 0. -1.
<mgrwt>
<rscale>  0 0.93529330E+02</rscale>
<asrwt>0</asrwt>
<pdfrwt beam="2">  1        2 0.15568229E-01 0.93529330E+02</pdfrwt>
<pdfrwt beam="1">  1       -2 0.33248323E-02 0.93529330E+02</pdfrwt>
<totfact> 0.11476392E+05</totfact>
</mgrwt>
</event>
<event>
 5    1  0.1197825E+001  0.9415735E+02  0.7546771E-02  0.1293085E+00
          3   -1    0    0  501    0  0.00000000000E+00  0.00000000000E+00  0.67326382335E+01  0.67326382335E+01  0.00000000000E+00 0. -1.
         -3   -1    0    0    0  501 -0.00000000000E+00 -0.00000000000E+00 -0.32920255915E+03  0.32920255915E+03  0.00000000000E+00 0.  1.
         23    2    1    2    0    0  0.00000000000E+00  0.00000000000E+00 -0.32246992092E+03  0.33593519739E+03  0.94157352052E+02 0.  0.
        -13    1    3    3    0    0  0.40782302161E+02 -0.28301665979E+01 -0.24454119276E+03  0.24793467077E+03  0.00000000000E+00 0.  1.
         13    1    3    3    0    0 -0.40782302161E+02  0.28301665979E+01 -0.77928728158E+02  0.88000526617E+02  0.00000000000E+00 0. -1.
<mgrwt>
<rscale>  0 0.94157352E+02</rscale>
<asrwt>0</asrwt>
<pdfrwt beam="1">  1        3 0.10357906E-02 0.94157352E+02</pdfrwt>
<pdfrwt beam="2">  1       -3 0.50646544E-01 0.94157352E+02</pdfrwt>
<totfact> 0.20814021E+04</totfact>
</mgrwt>
</event>
<event>
 5    1  0.1197825E+001  0.9828555E+02  0.7546771E-02  0.1283943E+00
         -1   -1    0    0    0  501 -0.00000000000E+00  0.00000000000E+00  0.19178860457E+03  0.19178860457E+03  0.00000000000E+00 0.  1.
          1   -1    0    0  501    0  0.00000000000E+00 -0.00000000000E+00 -0.12592053866E+02  0.12592053866E+02  0.00000000000E+00 0. -1.
         23    2    1    2    0    0  0.00000000000E+00  0.00000000000E+00  0.17919655070E+03  0.20438065843E+03  0.98285552136E+02 0.  0.
        -13    1    3    3    0    0 -0.35389203494E+02  0.31374093169E+02  0.11736374801E+03  0.12653449646E+03  0.00000000000E+00 0.  1.
         13    1    3    3    0    0  0.35389203494E+02 -0.31374093169E+02  0.61832802687E+02  0.77846161975E+02  0.00000000000E+00 0. -1.
<mgrwt>
<rscale>  0 0.98285552E+02</rscale>
<asrwt>0</asrwt>
<pdfrwt beam="2">  1        1 0.19372392E-02 0.98285552E+02</pdfrwt>
<pdfrwt beam="1">  1       -1 0.29505937E-01 0.98285552E+02</pdfrwt>
<totfact> 0.57744007E+04</totfact>
</mgrwt>
</event>
<event>
 5    1  0.1197825E+001  0.9039182E+02  0.7546771E-02  0.1301906E+00
         -3   -1    0    0    0  501 -0.00000000000E+00  0.00000000000E+00  0.48048650814E+02  0.48048650814E+02  0.00000000000E+00 0.  1.
          3   -1    0    0  501    0  0.00000000000E+00 -0.00000000000E+00 -0.42512540845E+02  0.42512540845E+02  0.00000000000E+00 0. -1.
         23    2    1    2    0    0  0.00000000000E+00  0.00000000000E+00  0.55361099694E+01  0.90561191659E+02  0.90391818884E+02 0.  0.
        -11    1    3    3    0    0 -0.44651913212E+02 -0.23688413542E+01 -0.38219190473E+01  0.44877743126E+02  0.00000000000E+00 0. -1.
         11    1    3    3    0    0  0.44651913212E+02  0.23688413542E+01  0.93580290167E+01  0.45683448534E+02  0.00000000000E+00 0.  1.
<mgrwt>
<rscale>  0 0.90391819E+02</rscale>
<asrwt>0</asrwt>
<pdfrwt beam="2">  1        3 0.65403909E-02 0.90391819E+02</pdfrwt>
<pdfrwt beam="1">  1       -3 0.73921002E-02 0.90391819E+02</pdfrwt>
<totfact> 0.36228593E+04</totfact>
</mgrwt>
</event>
<event>
 5    1  0.1197825E+001  0.9132745E+02  0.7546771E-02  0.1299669E+00
          1   -1    0    0  501    0  0.00000000000E+00  0.00000000000E+00  0.92846955198E+01  0.92846955198E+01  0.00000000000E+00 0. -1.
         -1   -1    0    0    0  501 -0.00000000000E+00 -0.00000000000E+00 -0.22458205247E+03  0.22458205247E+03  0.00000000000E+00 0.  1.
         23    2    1    2    0    0  0.00000000000E+00  0.00000000000E+00 -0.21529735695E+03  0.23386674799E+03  0.91327454282E+02 0.  0.
        -13    1    3    3    0    0  0.41243727075E+02 -0.14742391265E+02 -0.14072032698E+03  0.14737908111E+03  0.00000000000E+00 0.  1.
         13    1    3    3    0    0 -0.41243727075E+02  0.14742391265E+02 -0.74577029971E+02  0.86487666881E+02  0.00000000000E+00 0. -1.
<mgrwt>
<rscale>  0 0.91327454E+02</rscale>
<asrwt>0</asrwt>
<pdfrwt beam="1">  1        1 0.14284148E-02 0.91327454E+02</pdfrwt>
<pdfrwt beam="2">  1       -1 0.34551082E-01 0.91327454E+02</pdfrwt>
<totfact> 0.66773789E+04</totfact>
</mgrwt>
</event>
<event>
 5    1  0.1197825E+001  0.8967266E+02  0.7546771E-02  0.1303646E+00
          4   -1    0    0  501    0  0.00000000000E+00  0.00000000000E+00  0.92092436261E+01  0.92092436261E+01  0.00000000000E+00 0. -1.
         -4   -1    0    0    0  501 -0.00000000000E+00 -0.00000000000E+00 -0.21829114785E+03  0.21829114785E+03  0.00000000000E+00 0.  1.
         23    2    1    2    0    0  0.00000000000E+00  0.00000000000E+00 -0.20908190423E+03  0.22750039148E+03  0.89672657193E+02 0.  0.
        -13    1    3    3    0    0 -0.15332975360E+02 -0.39870806532E+02 -0.69985892834E+02  0.81992722498E+02  0.00000000000E+00 0. -1.
         13    1    3    3    0    0  0.15332975360E+02  0.39870806532E+02 -0.13909601139E+03  0.14550766898E+03  0.00000000000E+00 0.  1.
<mgrwt>
<rscale>  0 0.89672657E+02</rscale>
<asrwt>0</asrwt>
<pdfrwt beam="1">  1        4 0.14168068E-02 0.89672657E+02</pdfrwt>
<pdfrwt beam="2">  1       -4 0.33583251E-01 0.89672657E+02</pdfrwt>
<totfact> 0.21209122E+04</totfact>
</mgrwt>
</event>
<event>
 5    1  0.1197825E+001  0.9034296E+02  0.7546771E-02  0.1302023E+00
         -2   -1    0    0    0  501 -0.00000000000E+00  0.00000000000E+00  0.10704962609E+02  0.10704962609E+02  0.00000000000E+00 0.  1.
          2   -1    0    0  501    0  0.00000000000E+00 -0.00000000000E+00 -0.19060905277E+03  0.19060905277E+03  0.00000000000E+00 0. -1.
         23    2    1    2    0    0  0.00000000000E+00  0.00000000000E+00 -0.17990409016E+03  0.20131401537E+03  0.90342963925E+02 0.  0.
        -11    1    3    3    0    0 -0.18259320807E+02  0.41314682581E+02 -0.90834952491E+02  0.10144601711E+03  0.00000000000E+00 0.  1.
         11    1    3    3    0    0  0.18259320807E+02 -0.41314682581E+02 -0.89069137666E+02  0.99867998266E+02  0.00000000000E+00 0. -1.
<mgrwt>
<rscale>  0 0.90342964E+02</rscale>
<asrwt>0</asrwt>
<pdfrwt beam="2">  1        2 0.29324468E-01 0.90342964E+02</pdfrwt>
<pdfrwt beam="1">  1       -2 0.16469174E-02 0.90342964E+02</pdfrwt>
<totfact> 0.15583086E+05</totfact>
</mgrwt>
</event>
<event>
 5    1  0.1197825E+001  0.8965491E+02  0.7546771E-02  0.1303690E+00
          2   -1    0    0  501    0  0.00000000000E+00  0.00000000000E+00  0.14112383769E+02  0.14112383769E+02  0.00000000000E+00 0. -1.
         -2   -1    0    0    0  501 -0.00000000000E+00 -0.00000000000E+00 -0.14239270907E+03  0.14239270907E+03  0.00000000000E+00 0.  1.
         23    2    1    2    0    0  0.00000000000E+00  0.00000000000E+00 -0.12828032530E+03  0.15650509283E+03  0.89654906308E+02 0.  0.
        -13    1    3    3    0    0  0.30810802469E+02 -0.18970306015E+02 -0.11033606476E+03  0.11611729090E+03  0.00000000000E+00 0.  1.
         13    1    3    3    0    0 -0.30810802469E+02  0.18970306015E+02 -0.17944260539E+02  0.40387801938E+02  0.00000000000E+00 0. -1.
<mgrwt>
<rscale>  0 0.89654906E+02</rscale>
<asrwt>0</asrwt>
<pdfrwt beam="1">  1        2 0.21711360E-02 0.89654906E+02</pdfrwt>
<pdfrwt beam="2">  1       -2 0.21906570E-01 0.89654906E+02</pdfrwt>
<totfact> 0.74263662E+04</totfact>
</mgrwt>
</event>
<event>
 5    1  0.1197825E+001  0.9526664E+02  0.7546771E-02  0.1290577E+00
          2   -1    0    0  501    0  0.00000000000E+00  0.00000000000E+00  0.11472947644E+03  0.11472947644E+03  0.00000000000E+00 0. -1.
         -2   -1    0    0    0  501 -0.00000000000E+00 -0.00000000000E+00 -0.19776376900E+02  0.19776376900E+02  0.00000000000E+00 0.  1.
         23    2    1    2    0    0  0.00000000000E+00  0.00000000000E+00  0.94953099538E+02  0.13450585334E+03  0.95266644061E+02 0.  0.
        -13    1    3    3    0    0 -0.26712882437E+02 -0.11535929150E+02  0.10072322624E+03  0.10484190027E+03  0.00000000000E+00 0. -1.
         13    1    3    3    0    0  0.26712882437E+02  0.11535929150E+02 -0.57701266969E+01  0.29663953067E+02  0.00000000000E+00 0.  1.
<mgrwt>
<rscale>  0 0.95266644E+02</rscale>
<asrwt>0</asrwt>
<pdfrwt beam="1">  1        2 0.17650688E-01 0.95266644E+02</pdfrwt>
<pdfrwt beam="2">  1       -2 0.30425196E-02 0.95266644E+02</pdfrwt>
<totfact> 0.11347287E+05</totfact>
</mgrwt>
</event>
<event>
 5    1  0.1197825E+001  0.9154614E+02  0.7546771E-02  0.1299150E+00
          2   -1    0    0  501    0  0.00000000000E+00  0.00000000000E+00  0.20388192042E+02  0.20388192042E+02  0.00000000000E+00 0. -1.
         -2   -1    0    0    0  501 -0.00000000000E+00 -0.00000000000E+00 -0.10276407853E+03  0.10276407853E+03  0.00000000000E+00 0.  1.
         23    2    1    2    0    0  0.00000000000E+00  0.00000000000E+00 -0.82375886485E+02  0.12315227057E+03  0.91546136304E+02 0.  0.
        -11    1    3    3    0    0  0.38509039445E+02  0.12850146193E+02 -0.69632908959E+02  0.80602818724E+02  0.00000000000E+00 0.  1.
         11    1    3    3    0    0 -0.38509039445E+02 -0.12850146193E+02 -0.12742977526E+02  0.42549451846E+02  0.00000000000E+00 0. -1.
<mgrwt>
<rscale>  0 0.91546136E+02</rscale>
<asrwt>0</asrwt>
<pdfrwt beam="1">  1        2 0.31366449E-02 0.91546136E+02</pdfrwt>
<pdfrwt beam="2">  1       -2 0.15809858E-01 0.91546136E+02</pdfrwt>
<totfact> 0.78362029E+04</totfact>
</mgrwt>
</event>
<event>
 5    1  0.1197825E+001  0.1069692E+03  0.7546771E-02  0.1266288E+00
          1   -1    0    0  501    0  0.00000000000E+00  0.00000000000E+00  0.75887811297E+02  0.75887811297E+02  0.00000000000E+00 0. -1.
         -1   -1    0    0    0  501 -0.00000000000E+00 -0.00000000000E+00 -0.37695129445E+02  0.37695129445E+02  0.00000000000E+00 0.  1.
         23    2    1    2    0    0  0.00000000000E+00  0.00000000000E+00  0.38192681852E+02  0.11358294074E+03  0.10696917070E+03 0.  0.
        -11    1    3    3    0    0  0.31146766047E+02  0.23492571434E+02 -0.19752357321E+02  0.43728452608E+02  0.00000000000E+00 0.  1.
         11    1    3    3    0    0 -0.31146766047E+02 -0.23492571434E+02  0.57945039173E+02  0.69854488134E+02  0.00000000000E+00 0. -1.
<mgrwt>
<rscale>  0 0.10696917E+03</rscale>
<asrwt>0</asrwt>
<pdfrwt beam="1">  1        1 0.11675048E-01 0.10696917E+03</pdfrwt>
<pdfrwt beam="2">  1       -1 0.57992507E-02 0.10696917E+03</pdfrwt>
<totfact> 0.64055356E+04</totfact>
</mgrwt>
</event>
<event>
 5    1  0.1197825E+001  0.9072269E+02  0.7546771E-02  0.1301111E+00
          3   -1    0    0  501    0  0.00000000000E+00  0.00000000000E+00  0.21557822981E+02  0.21557822981E+02  0.00000000000E+00 0. -1.
         -3   -1    0    0    0  501 -0.00000000000E+00 -0.00000000000E+00 -0.95448027976E+02  0.95448027976E+02  0.00000000000E+00 0.  1.
         23    2    1    2    0    0  0.00000000000E+00  0.00000000000E+00 -0.73890204995E+02  0.11700585096E+03  0.90722691560E+02 0.  0.
        -13    1    3    3    0    0 -0.75226134309E+01  0.21384141575E+02 -0.87619013453E+02  0.90503937717E+02  0.00000000000E+00 0.  1.
         13    1    3    3    0    0  0.75226134309E+01 -0.21384141575E+02  0.13728808458E+02  0.26501913240E+02  0.00000000000E+00 0. -1.
<mgrwt>
<rscale>  0 0.90722692E+02</rscale>
<asrwt>0</asrwt>
<pdfrwt beam="1">  1        3 0.33165882E-02 0.90722692E+02</pdfrwt>
<pdfrwt beam="2">  1       -3 0.14684312E-01 0.90722692E+02</pdfrwt>
<totfact> 0.33910527E+04</totfact>
</mgrwt>
</event>
<event>
 5    1  0.1197825E+001  0.9066838E+02  0.7546771E-02  0.1301241E+00
          3   -1    0    0  501    0  0.00000000000E+00  0.00000000000E+00  0.10093444298E+03  0.10093444298E+03  0.00000000000E+00 0. -1.
         -3   -1    0    0    0  501 -0.00000000000E+00 -0.00000000000E+00 -0.20361622230E+02  0.20361622230E+02  0.00000000000E+00 0.  1.
         23    2    1    2    0    0  0.00000000000E+00  0.00000000000E+00  0.80572820750E+02  0.12129606521E+03  0.90668384744E+02 0.  0.
        -11    1    3    3    0    0 -0.11378975807E+02  0.43645691330E+02  0.34190752641E+02  0.56598895998E+02  0.00000000000E+00 0.  1.
         11    1    3    3    0    0  0.11378975807E+02 -0.43645691330E+02  0.46382068109E+02  0.64697169213E+02  0.00000000000E+00 0. -1.
<mgrwt>
<rscale>  0 0.90668385E+02</rscale>
<asrwt>0</asrwt>
<pdfrwt beam="1">  1        3 0.15528376E-01 0.90668385E+02</pdfrwt>
<pdfrwt beam="2">  1       -3 0.31325573E-02 0.90668385E+02</pdfrwt>
<totfact> 0.33664667E+04</totfact>
</mgrwt>
</event>
<event>
 5    1  0.1197825E+001  0.9189459E+02  0.7546771E-02  0.1298327E+00
         -2   -1    0    0    0  501 -0.00000000000E+00  0.00000000000E+00  0.20292980749E+02  0.20292980749E+02  0.00000000000E+00 0.  1.
          2   -1    0    0  501    0  0.00000000000E+00 -0.00000000000E+00 -0.10403370775E+03  0.10403370775E+03  0.00000000000E+00 0. -1.
         23    2    1    2    0    0  0.00000000000E+00  0.00000000000E+00 -0.83740726997E+02  0.12432668849E+03  0.91894592409E+02 0.  0.
        -11    1    3    3    0    0  0.10195450039E+02  0.16138655032E+02  0.14674071117E+02  0.24077619294E+02  0.00000000000E+00 0.  1.
         11    1    3    3    0    0 -0.10195450039E+02 -0.16138655032E+02 -0.98414798113E+02  0.10024906920E+03  0.00000000000E+00 0. -1.
<mgrwt>
<rscale>  0 0.91894592E+02</rscale>
<asrwt>0</asrwt>
<pdfrwt beam="2">  1        2 0.16005186E-01 0.91894592E+02</pdfrwt>
<pdfrwt beam="1">  1       -2 0.31219970E-02 0.91894592E+02</pdfrwt>
<totfact> 0.12151905E+05</totfact>
</mgrwt>
</event>
<event>
 5    1  0.1197825E+001  0.9050868E+02  0.7546771E-02  0.1301625E+00
          4   -1    0    0  501    0  0.00000000000E+00  0.00000000000E+00  0.45057923464E+02  0.45057923464E+02  0.00000000000E+00 0. -1.
         -4   -1    0    0    0  501 -0.00000000000E+00 -0.00000000000E+00 -0.45451614472E+02  0.45451614472E+02  0.00000000000E+00 0.  1.
         23    2    1    2    0    0  0.00000000000E+00  0.00000000000E+00 -0.39369100812E+00  0.90509537935E+02  0.90508681709E+02 0.  0.
        -13    1    3    3    0    0  0.46471397937E+01 -0.19831867846E+02 -0.40608321272E+02  0.45430547510E+02  0.00000000000E+00 0.  1.
         13    1    3    3    0    0 -0.46471397937E+01  0.19831867846E+02  0.40214630264E+02  0.45078990425E+02  0.00000000000E+00 0. -1.
<mgrwt>
<rscale>  0 0.90508682E+02</rscale>
<asrwt>0</asrwt>
<pdfrwt beam="1">  1        4 0.69319882E-02 0.90508682E+02</pdfrwt>
<pdfrwt beam="2">  1       -4 0.69925561E-02 0.90508682E+02</pdfrwt>
<totfact> 0.27604133E+04</totfact>
</mgrwt>
</event>
<event>
 5    1  0.1197825E+001  0.9127939E+02  0.7546771E-02  0.1299783E+00
         -1   -1    0    0    0  501 -0.00000000000E+00  0.00000000000E+00  0.26788029062E+02  0.26788029062E+02  0.00000000000E+00 0.  1.
          1   -1    0    0  501    0  0.00000000000E+00 -0.00000000000E+00 -0.77757924997E+02  0.77757924997E+02  0.00000000000E+00 0. -1.
         23    2    1    2    0    0  0.00000000000E+00  0.00000000000E+00 -0.50969895934E+02  0.10454595406E+03  0.91279385507E+02 0.  0.
        -13    1    3    3    0    0  0.29514228952E+02  0.23425362823E+02 -0.54979276740E+02  0.66652518369E+02  0.00000000000E+00 0. -1.
         13    1    3    3    0    0 -0.29514228952E+02 -0.23425362823E+02  0.40093808058E+01  0.37893435691E+02  0.00000000000E+00 0.  1.
<mgrwt>
<rscale>  0 0.91279386E+02</rscale>
<asrwt>0</asrwt>
<pdfrwt beam="2">  1        1 0.11962758E-01 0.91279386E+02</pdfrwt>
<pdfrwt beam="1">  1       -1 0.41212353E-02 0.91279386E+02</pdfrwt>
<totfact> 0.99984847E+04</totfact>
</mgrwt>
</event>
<event>
 5    1  0.1197825E+001  0.9529720E+02  0.7546771E-02  0.1290508E+00
         -2   -1    0    0    0  501 -0.00000000000E+00  0.00000000000E+00  0.67998306010E+01  0.67998306010E+01  0.00000000000E+00 0.  1.
          2   -1    0    0  501    0  0.00000000000E+00 -0.00000000000E+00 -0.33388909430E+03  0.33388909430E+03  0.00000000000E+00 0. -1.
         23    2    1    2    0    0  0.00000000000E+00  0.00000000000E+00 -0.32708926370E+03  0.34068892490E+03  0.95297204172E+02 0.  0.
        -13    1    3    3    0    0  0.39294589594E+02  0.23608725652E+02 -0.11707595853E+03  0.12573073119E+03  0.00000000000E+00 0.  1.
         13    1    3    3    0    0 -0.39294589594E+02 -0.23608725652E+02 -0.21001330517E+03  0.21495819371E+03  0.00000000000E+00 0. -1.
<mgrwt>
<rscale>  0 0.95297204E+02</rscale>
<asrwt>0</asrwt>
<pdfrwt beam="2">  1        2 0.51367567E-01 0.95297204E+02</pdfrwt>
<pdfrwt beam="1">  1       -2 0.10461275E-02 0.95297204E+02</pdfrwt>
<totfact> 0.16611863E+05</totfact>
</mgrwt>
</event>
<event>
 5    1  0.1197825E+001  0.9201679E+02  0.7546771E-02  0.1298040E+00
          2   -1    0    0  501    0  0.00000000000E+00  0.00000000000E+00  0.49089937152E+02  0.49089937152E+02  0.00000000000E+00 0. -1.
         -2   -1    0    0    0  501 -0.00000000000E+00 -0.00000000000E+00 -0.43120291634E+02  0.43120291634E+02  0.00000000000E+00 0.  1.
         23    2    1    2    0    0  0.00000000000E+00  0.00000000000E+00  0.59696455187E+01  0.92210228786E+02  0.92016789909E+02 0.  0.
        -13    1    3    3    0    0 -0.37433054716E+01 -0.45838149838E+02  0.17077458494E+01  0.46022437053E+02  0.00000000000E+00 0. -1.
         13    1    3    3    0    0  0.37433054716E+01  0.45838149838E+02  0.42618996693E+01  0.46187791733E+02  0.00000000000E+00 0.  1.
<mgrwt>
<rscale>  0 0.92016790E+02</rscale>
<asrwt>0</asrwt>
<pdfrwt beam="1">  1        2 0.75522981E-02 0.92016790E+02</pdfrwt>
<pdfrwt beam="2">  1       -2 0.66338910E-02 0.92016790E+02</pdfrwt>
<totfact> 0.97988402E+04</totfact>
</mgrwt>
</event>
<event>
 5    1  0.1197825E+001  0.9123866E+02  0.7546771E-02  0.1299880E+00
         -2   -1    0    0    0  501 -0.00000000000E+00  0.00000000000E+00  0.89184134074E+01  0.89184134074E+01  0.00000000000E+00 0.  1.
          2   -1    0    0  501    0  0.00000000000E+00 -0.00000000000E+00 -0.23335127131E+03  0.23335127131E+03  0.00000000000E+00 0. -1.
         23    2    1    2    0    0  0.00000000000E+00  0.00000000000E+00 -0.22443285790E+03  0.24226968472E+03  0.91238656428E+02 0.  0.
        -13    1    3    3    0    0  0.95423069453E+01 -0.43361190243E+02 -0.14005000295E+03  0.14691920149E+03  0.00000000000E+00 0. -1.
         13    1    3    3    0    0 -0.95423069453E+01  0.43361190243E+02 -0.84382854952E+02  0.95350483223E+02  0.00000000000E+00 0.  1.
<mgrwt>
<rscale>  0 0.91238656E+02</rscale>
<asrwt>0</asrwt>
<pdfrwt beam="2">  1        2 0.35900200E-01 0.91238656E+02</pdfrwt>
<pdfrwt beam="1">  1       -2 0.13720634E-02 0.91238656E+02</pdfrwt>
<totfact> 0.16334591E+05</totfact>
</mgrwt>
</event>
<event>
 5    1  0.1197825E+001  0.8898010E+02  0.7546771E-02  0.1305340E+00
          3   -1    0    0  501    0  0.00000000000E+00  0.00000000000E+00  0.40966060295E+03  0.40966060295E+03  0.00000000000E+00 0. -1.
         -3   -1    0    0    0  501 -0.00000000000E+00 -0.00000000000E+00 -0.48317183456E+01  0.48317183456E+01  0.00000000000E+00 0.  1.
         23    2    1    2    0    0  0.00000000000E+00  0.00000000000E+00  0.40482888461E+03  0.41449232130E+03  0.88980102287E+02 0.  0.
        -11    1    3    3    0    0  0.43021413027E+02 -0.68144869029E+01  0.16021014687E+03  0.16602581236E+03  0.00000000000E+00 0.  1.
         11    1    3    3    0    0 -0.43021413027E+02  0.68144869029E+01  0.24461873774E+03  0.24846650894E+03  0.00000000000E+00 0. -1.
<mgrwt>
<rscale>  0 0.88980102E+02</rscale>
<asrwt>0</asrwt>
<pdfrwt beam="1">  1        3 0.63024681E-01 0.88980102E+02</pdfrwt>
<pdfrwt beam="2">  1       -3 0.74334160E-03 0.88980102E+02</pdfrwt>
<totfact> 0.21541025E+04</totfact>
</mgrwt>
</event>
<event>
 5    1  0.1197825E+001  0.9160447E+02  0.7546771E-02  0.1299012E+00
         -2   -1    0    0    0  501 -0.00000000000E+00  0.00000000000E+00  0.78197488970E+01  0.78197488970E+01  0.00000000000E+00 0.  1.
          2   -1    0    0  501    0  0.00000000000E+00 -0.00000000000E+00 -0.26827520168E+03  0.26827520168E+03  0.00000000000E+00 0. -1.
         23    2    1    2    0    0  0.00000000000E+00  0.00000000000E+00 -0.26045545278E+03  0.27609495058E+03  0.91604469595E+02 0.  0.
        -13    1    3    3    0    0 -0.38772874433E+02 -0.17331970672E+02 -0.78538746635E+02  0.89286436384E+02  0.00000000000E+00 0.  1.
         13    1    3    3    0    0  0.38772874433E+02  0.17331970672E+02 -0.18191670615E+03  0.18680851419E+03  0.00000000000E+00 0. -1.
<mgrwt>
<rscale>  0 0.91604470E+02</rscale>
<asrwt>0</asrwt>
<pdfrwt beam="2">  1        2 0.41273110E-01 0.91604470E+02</pdfrwt>
<pdfrwt beam="1">  1       -2 0.12030382E-02 0.91604470E+02</pdfrwt>
<totfact> 0.17017915E+05</totfact>
</mgrwt>
</event>
<event>
 5    1  0.1197825E+001  0.9094868E+02  0.7546771E-02  0.1300570E+00
          1   -1    0    0  501    0  0.00000000000E+00  0.00000000000E+00  0.17874695214E+02  0.17874695214E+02  0.00000000000E+00 0. -1.
         -1   -1    0    0    0  501 -0.00000000000E+00 -0.00000000000E+00 -0.11568954755E+03  0.11568954755E+03  0.00000000000E+00 0.  1.
         23    2    1    2    0    0  0.00000000000E+00  0.00000000000E+00 -0.97814852333E+02  0.13356424276E+03  0.90948675676E+02 0.  0.
        -13    1    3    3    0    0  0.21401426919E+02  0.38091614351E+02 -0.30393968511E+02  0.53223918307E+02  0.00000000000E+00 0.  1.
         13    1    3    3    0    0 -0.21401426919E+02 -0.38091614351E+02 -0.67420883822E+02  0.80340324454E+02  0.00000000000E+00 0. -1.
<mgrwt>
<rscale>  0 0.90948676E+02</rscale>
<asrwt>0</asrwt>
<pdfrwt beam="1">  1        1 0.27499532E-02 0.90948676E+02</pdfrwt>
<pdfrwt beam="2">  1       -1 0.17798391E-01 0.90948676E+02</pdfrwt>
<totfact> 0.79628284E+04</totfact>
</mgrwt>
</event>
<event>
 5    1  0.1197825E+001  0.9613502E+02  0.7546771E-02  0.1288640E+00
          1   -1    0    0  501    0  0.00000000000E+00  0.00000000000E+00  0.22800373499E+03  0.22800373499E+03  0.00000000000E+00 0. -1.
         -1   -1    0    0    0  501 -0.00000000000E+00 -0.00000000000E+00 -0.10133541964E+02  0.10133541964E+02  0.00000000000E+00 0.  1.
         23    2    1    2    0    0  0.00000000000E+00  0.00000000000E+00  0.21787019303E+03  0.23813727695E+03  0.96135017894E+02 0.  0.
        -13    1    3    3    0    0 -0.10907773811E+02 -0.44348510350E+02  0.71801902859E+02  0.85095729352E+02  0.00000000000E+00 0.  1.
         13    1    3    3    0    0  0.10907773811E+02  0.44348510350E+02  0.14606829017E+03  0.15304154760E+03  0.00000000000E+00 0. -1.
<mgrwt>
<rscale>  0 0.96135018E+02</rscale>
<asrwt>0</asrwt>
<pdfrwt beam="1">  1        1 0.35077494E-01 0.96135018E+02</pdfrwt>
<pdfrwt beam="2">  1       -1 0.15590066E-02 0.96135018E+02</pdfrwt>
<totfact> 0.10536901E+05</totfact>
</mgrwt>
</event>
<event>
 5    1  0.1197825E+001  0.8984393E+02  0.7546771E-02  0.1303230E+00
          1   -1    0    0  501    0  0.00000000000E+00  0.00000000000E+00  0.10217097892E+03  0.10217097892E+03  0.00000000000E+00 0. -1.
         -1   -1    0    0    0  501 -0.00000000000E+00 -0.00000000000E+00 -0.19751040392E+02  0.19751040392E+02  0.00000000000E+00 0.  1.
         23    2    1    2    0    0  0.00000000000E+00  0.00000000000E+00  0.82419938530E+02  0.12192201931E+03  0.89843934277E+02 0.  0.
        -11    1    3    3    0    0 -0.27994753505E+02  0.33235805145E+02  0.25757662561E+02  0.50515167505E+02  0.00000000000E+00 0.  1.
         11    1    3    3    0    0  0.27994753505E+02 -0.33235805145E+02  0.56662275969E+02  0.71406851810E+02  0.00000000000E+00 0. -1.
<mgrwt>
<rscale>  0 0.89843934E+02</rscale>
<asrwt>0</asrwt>
<pdfrwt beam="1">  1        1 0.15718612E-01 0.89843934E+02</pdfrwt>
<pdfrwt beam="2">  1       -1 0.30386216E-02 0.89843934E+02</pdfrwt>
<totfact> 0.10911027E+05</totfact>
</mgrwt>
</event>
<event>
 5    1  0.1197825E+001  0.9041294E+02  0.7546771E-02  0.1301855E+00
          2   -1    0    0  501    0  0.00000000000E+00  0.00000000000E+00  0.28935503397E+02  0.28935503397E+02  0.00000000000E+00 0. -1.
         -2   -1    0    0    0  501 -0.00000000000E+00 -0.00000000000E+00 -0.70626907271E+02  0.70626907271E+02  0.00000000000E+00 0.  1.
         23    2    1    2    0    0  0.00000000000E+00  0.00000000000E+00 -0.41691403874E+02  0.99562410669E+02  0.90412944102E+02 0.  0.
        -11    1    3    3    0    0 -0.30413534688E+02 -0.12357673437E+02 -0.55070240688E+02  0.64112608701E+02  0.00000000000E+00 0.  1.
         11    1    3    3    0    0  0.30413534688E+02  0.12357673437E+02  0.13378836815E+02  0.35449801967E+02  0.00000000000E+00 0. -1.
<mgrwt>
<rscale>  0 0.90412944E+02</rscale>
<asrwt>0</asrwt>
<pdfrwt beam="1">  1        2 0.44516159E-02 0.90412944E+02</pdfrwt>
<pdfrwt beam="2">  1       -2 0.10865678E-01 0.90412944E+02</pdfrwt>
<totfact> 0.89832715E+04</totfact>
</mgrwt>
</event>
<event>
 5    1  0.1197825E+001  0.8658658E+02  0.7546771E-02  0.1311335E+00
         -2   -1    0    0    0  501 -0.00000000000E+00  0.00000000000E+00  0.68607969818E+02  0.68607969818E+02  0.00000000000E+00 0.  1.
          2   -1    0    0  501    0  0.00000000000E+00 -0.00000000000E+00 -0.27319116699E+02  0.27319116699E+02  0.00000000000E+00 0. -1.
         23    2    1    2    0    0  0.00000000000E+00  0.00000000000E+00  0.41288853119E+02  0.95927086517E+02  0.86586584041E+02 0.  0.
        -11    1    3    3    0    0  0.94192536561E+01 -0.74123110145E+01 -0.25444285669E+02  0.28126079840E+02  0.00000000000E+00 0. -1.
         11    1    3    3    0    0 -0.94192536561E+01  0.74123110145E+01  0.66733138787E+02  0.67801006677E+02  0.00000000000E+00 0.  1.
<mgrwt>
<rscale>  0 0.86586584E+02</rscale>
<asrwt>0</asrwt>
<pdfrwt beam="2">  1        2 0.42029410E-02 0.86586584E+02</pdfrwt>
<pdfrwt beam="1">  1       -2 0.10555072E-01 0.86586584E+02</pdfrwt>
<totfact> 0.10057472E+05</totfact>
</mgrwt>
</event>
<event>
 5    1  0.1197825E+001  0.1089026E+03  0.7546771E-02  0.1262616E+00
          3   -1    0    0  501    0  0.00000000000E+00  0.00000000000E+00  0.41000637248E+02  0.41000637248E+02  0.00000000000E+00 0. -1.
         -3   -1    0    0    0  501 -0.00000000000E+00 -0.00000000000E+00 -0.72314542642E+02  0.72314542642E+02  0.00000000000E+00 0.  1.
         23    2    1    2    0    0  0.00000000000E+00  0.00000000000E+00 -0.31313905394E+02  0.11331517989E+03  0.10890256802E+03 0.  0.
        -13    1    3    3    0    0  0.32737370317E+02  0.28177589802E+02 -0.50154985174E+02  0.66190894541E+02  0.00000000000E+00 0.  1.
         13    1    3    3    0    0 -0.32737370317E+02 -0.28177589802E+02  0.18841079780E+02  0.47124285348E+02  0.00000000000E+00 0. -1.
<mgrwt>
<rscale>  0 0.10890257E+03</rscale>
<asrwt>0</asrwt>
<pdfrwt beam="1">  1        3 0.63077904E-02 0.10890257E+03</pdfrwt>
<pdfrwt beam="2">  1       -3 0.11125314E-01 0.10890257E+03</pdfrwt>
<totfact> 0.20688430E+04</totfact>
</mgrwt>
</event>
<event>
 5    1  0.1197825E+001  0.9178586E+02  0.7546771E-02  0.1298584E+00
         -1   -1    0    0    0  501 -0.00000000000E+00  0.00000000000E+00  0.83452591640E+02  0.83452591640E+02  0.00000000000E+00 0.  1.
          1   -1    0    0  501    0  0.00000000000E+00 -0.00000000000E+00 -0.25237814767E+02  0.25237814767E+02  0.00000000000E+00 0. -1.
         23    2    1    2    0    0  0.00000000000E+00  0.00000000000E+00  0.58214776874E+02  0.10869040641E+03  0.91785860558E+02 0.  0.
        -13    1    3    3    0    0 -0.16065249922E+02  0.20269427016E+02 -0.15785435188E+02  0.30300526245E+02  0.00000000000E+00 0. -1.
         13    1    3    3    0    0  0.16065249922E+02 -0.20269427016E+02  0.74000212062E+02  0.78389880162E+02  0.00000000000E+00 0.  1.
<mgrwt>
<rscale>  0 0.91785861E+02</rscale>
<asrwt>0</asrwt>
<pdfrwt beam="2">  1        1 0.38827408E-02 0.91785861E+02</pdfrwt>
<pdfrwt beam="1">  1       -1 0.12838860E-01 0.91785861E+02</pdfrwt>
<totfact> 0.82619858E+04</totfact>
</mgrwt>
</event>
<event>
 5    1  0.1197825E+001  0.9190759E+02  0.7546771E-02  0.1298297E+00
          1   -1    0    0  501    0  0.00000000000E+00  0.00000000000E+00  0.17137204278E+03  0.17137204278E+03  0.00000000000E+00 0. -1.
         -1   -1    0    0    0  501 -0.00000000000E+00 -0.00000000000E+00 -0.12322612220E+02  0.12322612220E+02  0.00000000000E+00 0.  1.
         23    2    1    2    0    0  0.00000000000E+00  0.00000000000E+00  0.15904943056E+03  0.18369465500E+03  0.91907588988E+02 0.  0.
        -11    1    3    3    0    0  0.11993632338E+01  0.34626130848E+02  0.19187359680E+02  0.39605077720E+02  0.00000000000E+00 0.  1.
         11    1    3    3    0    0 -0.11993632338E+01 -0.34626130848E+02  0.13986207088E+03  0.14408957728E+03  0.00000000000E+00 0. -1.
<mgrwt>
<rscale>  0 0.91907589E+02</rscale>
<asrwt>0</asrwt>
<pdfrwt beam="1">  1        1 0.26364928E-01 0.91907589E+02</pdfrwt>
<pdfrwt beam="2">  1       -1 0.18957866E-02 0.91907589E+02</pdfrwt>
<totfact> 0.11250455E+05</totfact>
</mgrwt>
</event>
<event>
 5    1  0.1197825E+001  0.9322292E+02  0.7546771E-02  0.1295229E+00
         -3   -1    0    0    0  501 -0.00000000000E+00  0.00000000000E+00  0.12977327082E+02  0.12977327082E+02  0.00000000000E+00 0.  1.
          3   -1    0    0  501    0  0.00000000000E+00 -0.00000000000E+00 -0.16741722146E+03  0.16741722146E+03  0.00000000000E+00 0. -1.
         23    2    1    2    0    0  0.00000000000E+00  0.00000000000E+00 -0.15443989438E+03  0.18039454854E+03  0.93222916538E+02 0.  0.
        -11    1    3    3    0    0 -0.17097102010E+02  0.42269455461E+02 -0.58497505137E+02  0.74168563889E+02  0.00000000000E+00 0. -1.
         11    1    3    3    0    0  0.17097102010E+02 -0.42269455461E+02 -0.95942389241E+02  0.10622598465E+03  0.00000000000E+00 0.  1.
<mgrwt>
<rscale>  0 0.93222917E+02</rscale>
<asrwt>0</asrwt>
<pdfrwt beam="2">  1        3 0.25756493E-01 0.93222917E+02</pdfrwt>
<pdfrwt beam="1">  1       -3 0.19965120E-02 0.93222917E+02</pdfrwt>
<totfact> 0.27820629E+04</totfact>
</mgrwt>
</event>
<event>
 5    1  0.1197825E+001  0.9026199E+02  0.7546771E-02  0.1302218E+00
         -1   -1    0    0    0  501 -0.00000000000E+00  0.00000000000E+00  0.24493457753E+02  0.24493457753E+02  0.00000000000E+00 0.  1.
          1   -1    0    0  501    0  0.00000000000E+00 -0.00000000000E+00 -0.83157179733E+02  0.83157179733E+02  0.00000000000E+00 0. -1.
         23    2    1    2    0    0  0.00000000000E+00  0.00000000000E+00 -0.58663721979E+02  0.10765063749E+03  0.90261993522E+02 0.  0.
        -13    1    3    3    0    0 -0.34466342099E+02  0.78078916957E+00  0.54040229220E+01  0.34896157856E+02  0.00000000000E+00 0.  1.
         13    1    3    3    0    0  0.34466342099E+02 -0.78078916957E+00 -0.64067744901E+02  0.72754479629E+02  0.00000000000E+00 0. -1.
<mgrwt>
<rscale>  0 0.90261994E+02</rscale>
<asrwt>0</asrwt>
<pdfrwt beam="2">  1        1 0.12793412E-01 0.90261994E+02</pdfrwt>
<pdfrwt beam="1">  1       -1 0.37682243E-02 0.90261994E+02</pdfrwt>
<totfact> 0.10420135E+05</totfact>
</mgrwt>
</event>
<event>
 5    1  0.1197825E+001  0.1198877E+03  0.7546771E-02  0.1243282E+00
         -2   -1    0    0    0  501 -0.00000000000E+00  0.00000000000E+00  0.20379165295E+02  0.20379165295E+02  0.00000000000E+00 0. -1.
          2   -1    0    0  501    0  0.00000000000E+00 -0.00000000000E+00 -0.17632041625E+03  0.17632041625E+03  0.00000000000E+00 0.  1.
         23    2    1    2    0    0  0.00000000000E+00  0.00000000000E+00 -0.15594125096E+03  0.19669958155E+03  0.11988766254E+03 0.  0.
        -13    1    3    3    0    0  0.47359249969E+02 -0.32853854064E+02 -0.10497937469E+03  0.11976202819E+03  0.00000000000E+00 0. -1.
         13    1    3    3    0    0 -0.47359249969E+02  0.32853854064E+02 -0.50961876263E+02  0.76937553359E+02  0.00000000000E+00 0.  1.
<mgrwt>
<rscale>  0 0.11988766E+03</rscale>
<asrwt>0</asrwt>
<pdfrwt beam="2">  1        2 0.27126217E-01 0.11988766E+03</pdfrwt>
<pdfrwt beam="1">  1       -2 0.31352563E-02 0.11988766E+03</pdfrwt>
<totfact> 0.69627701E+04</totfact>
</mgrwt>
</event>
<event>
 5    1  0.1197825E+001  0.9219512E+02  0.7546771E-02  0.1297621E+00
         -2   -1    0    0    0  501 -0.00000000000E+00  0.00000000000E+00  0.71385915475E+02  0.71385915475E+02  0.00000000000E+00 0. -1.
          2   -1    0    0  501    0  0.00000000000E+00 -0.00000000000E+00 -0.29767569611E+02  0.29767569611E+02  0.00000000000E+00 0.  1.
         23    2    1    2    0    0  0.00000000000E+00  0.00000000000E+00  0.41618345864E+02  0.10115348509E+03  0.92195123692E+02 0.  0.
        -11    1    3    3    0    0  0.17209702278E+02  0.32661248592E+02  0.51096840393E+02  0.63038227372E+02  0.00000000000E+00 0.  1.
         11    1    3    3    0    0 -0.17209702278E+02 -0.32661248592E+02 -0.94784945293E+01  0.38115257714E+02  0.00000000000E+00 0. -1.
<mgrwt>
<rscale>  0 0.92195124E+02</rscale>
<asrwt>0</asrwt>
<pdfrwt beam="2">  1        2 0.45796261E-02 0.92195124E+02</pdfrwt>
<pdfrwt beam="1">  1       -2 0.10982448E-01 0.92195124E+02</pdfrwt>
<totfact> 0.85411397E+04</totfact>
</mgrwt>
</event>
<event>
 5    1  0.1197825E+001  0.8073436E+02  0.7546771E-02  0.1326980E+00
         -2   -1    0    0    0  501 -0.00000000000E+00  0.00000000000E+00  0.68929482437E+01  0.68929482437E+01  0.00000000000E+00 0.  1.
          2   -1    0    0  501    0  0.00000000000E+00 -0.00000000000E+00 -0.23640237154E+03  0.23640237154E+03  0.00000000000E+00 0. -1.
         23    2    1    2    0    0  0.00000000000E+00  0.00000000000E+00 -0.22950942329E+03  0.24329531978E+03  0.80734362243E+02 0.  0.
        -13    1    3    3    0    0 -0.32509788737E+02  0.19958904359E+02 -0.15453615412E+03  0.15917495769E+03  0.00000000000E+00 0. -1.
         13    1    3    3    0    0  0.32509788737E+02 -0.19958904359E+02 -0.74973269174E+02  0.84120362086E+02  0.00000000000E+00 0.  1.
<mgrwt>
<rscale>  0 0.80734362E+02</rscale>
<asrwt>0</asrwt>
<pdfrwt beam="2">  1        2 0.36369592E-01 0.80734362E+02</pdfrwt>
<pdfrwt beam="1">  1       -2 0.10604537E-02 0.80734362E+02</pdfrwt>
<totfact> 0.22728870E+05</totfact>
</mgrwt>
</event>
<event>
 5    1  0.1197825E+001  0.9141432E+02  0.7546771E-02  0.1299462E+00
         -2   -1    0    0    0  501 -0.00000000000E+00  0.00000000000E+00  0.21130074538E+02  0.21130074538E+02  0.00000000000E+00 0.  1.
          2   -1    0    0  501    0  0.00000000000E+00 -0.00000000000E+00 -0.98870654837E+02  0.98870654837E+02  0.00000000000E+00 0. -1.
         23    2    1    2    0    0  0.00000000000E+00  0.00000000000E+00 -0.77740580299E+02  0.12000072938E+03  0.91414316305E+02 0.  0.
        -13    1    3    3    0    0  0.28064843123E+02  0.71401892277E+01 -0.85291465750E+02  0.90073591310E+02  0.00000000000E+00 0. -1.
         13    1    3    3    0    0 -0.28064843123E+02 -0.71401892277E+01  0.75508854511E+01  0.29927138066E+02  0.00000000000E+00 0.  1.
<mgrwt>
<rscale>  0 0.91414316E+02</rscale>
<asrwt>0</asrwt>
<pdfrwt beam="2">  1        2 0.15210870E-01 0.91414316E+02</pdfrwt>
<pdfrwt beam="1">  1       -2 0.32507807E-02 0.91414316E+02</pdfrwt>
<totfact> 0.12137960E+05</totfact>
</mgrwt>
</event>
<event>
 5    1  0.1197825E+001  0.9181030E+02  0.7546771E-02  0.1298526E+00
         -3   -1    0    0    0  501 -0.00000000000E+00  0.00000000000E+00  0.11767574437E+02  0.11767574437E+02  0.00000000000E+00 0.  1.
          3   -1    0    0  501    0  0.00000000000E+00 -0.00000000000E+00 -0.17907538427E+03  0.17907538427E+03  0.00000000000E+00 0. -1.
         23    2    1    2    0    0  0.00000000000E+00  0.00000000000E+00 -0.16730780983E+03  0.19084295870E+03  0.91810302565E+02 0.  0.
        -11    1    3    3    0    0 -0.26533137316E+02 -0.10334942955E+02 -0.15849929147E+03  0.16103677785E+03  0.00000000000E+00 0. -1.
         11    1    3    3    0    0  0.26533137316E+02  0.10334942955E+02 -0.88085183576E+01  0.29806180859E+02  0.00000000000E+00 0.  1.
<mgrwt>
<rscale>  0 0.91810303E+02</rscale>
<asrwt>0</asrwt>
<pdfrwt beam="2">  1        3 0.27550057E-01 0.91810303E+02</pdfrwt>
<pdfrwt beam="1">  1       -3 0.18103962E-02 0.91810303E+02</pdfrwt>
<totfact> 0.28441427E+04</totfact>
</mgrwt>
</event>
<event>
 5    1  0.1197825E+001  0.9021314E+02  0.7546771E-02  0.1302336E+00
         -1   -1    0    0    0  501 -0.00000000000E+00  0.00000000000E+00  0.12313630507E+02  0.12313630507E+02  0.00000000000E+00 0.  1.
          1   -1    0    0  501    0  0.00000000000E+00 -0.00000000000E+00 -0.16523174258E+03  0.16523174258E+03  0.00000000000E+00 0. -1.
         23    2    1    2    0    0  0.00000000000E+00  0.00000000000E+00 -0.15291811207E+03  0.17754537309E+03  0.90213139313E+02 0.  0.
        -11    1    3    3    0    0 -0.36833546151E+02 -0.93553291251E+01 -0.28639909447E+02  0.47586518241E+02  0.00000000000E+00 0. -1.
         11    1    3    3    0    0  0.36833546151E+02  0.93553291251E+01 -0.12427820263E+03  0.12995885485E+03  0.00000000000E+00 0.  1.
<mgrwt>
<rscale>  0 0.90213139E+02</rscale>
<asrwt>0</asrwt>
<pdfrwt beam="2">  1        1 0.25420269E-01 0.90213139E+02</pdfrwt>
<pdfrwt beam="1">  1       -1 0.18944046E-02 0.90213139E+02</pdfrwt>
<totfact> 0.11747241E+05</totfact>
</mgrwt>
</event>
<event>
 5    1  0.1197825E+001  0.9229809E+02  0.7546771E-02  0.1297380E+00
          2   -1    0    0  501    0  0.00000000000E+00  0.00000000000E+00  0.28443745549E+02  0.28443745549E+02  0.00000000000E+00 0.  1.
         -2   -1    0    0    0  501 -0.00000000000E+00 -0.00000000000E+00 -0.74875306320E+02  0.74875306320E+02  0.00000000000E+00 0. -1.
         23    2    1    2    0    0  0.00000000000E+00  0.00000000000E+00 -0.46431560770E+02  0.10331905187E+03  0.92298085806E+02 0.  0.
        -13    1    3    3    0    0 -0.14469843833E+02 -0.18485521259E+02 -0.67692189981E+02  0.71647215307E+02  0.00000000000E+00 0. -1.
         13    1    3    3    0    0  0.14469843833E+02  0.18485521259E+02  0.21260629211E+02  0.31671836562E+02  0.00000000000E+00 0.  1.
<mgrwt>
<rscale>  0 0.92298086E+02</rscale>
<asrwt>0</asrwt>
<pdfrwt beam="1">  1        2 0.43759609E-02 0.92298086E+02</pdfrwt>
<pdfrwt beam="2">  1       -2 0.11519278E-01 0.92298086E+02</pdfrwt>
<totfact> 0.84080528E+04</totfact>
</mgrwt>
</event>
<event>
 5    1  0.1197825E+001  0.9040052E+02  0.7546771E-02  0.1301885E+00
         -1   -1    0    0    0  501 -0.00000000000E+00  0.00000000000E+00  0.10725766854E+03  0.10725766854E+03  0.00000000000E+00 0.  1.
          1   -1    0    0  501    0  0.00000000000E+00 -0.00000000000E+00 -0.19048182647E+02  0.19048182647E+02  0.00000000000E+00 0. -1.
         23    2    1    2    0    0  0.00000000000E+00  0.00000000000E+00  0.88209485897E+02  0.12630585119E+03  0.90400523466E+02 0.  0.
        -13    1    3    3    0    0 -0.41911538015E+01 -0.44884840132E+02  0.39502731266E+02  0.59938972475E+02  0.00000000000E+00 0.  1.
         13    1    3    3    0    0  0.41911538015E+01  0.44884840132E+02  0.48706754631E+02  0.66366878716E+02  0.00000000000E+00 0. -1.
<mgrwt>
<rscale>  0 0.90400523E+02</rscale>
<asrwt>0</asrwt>
<pdfrwt beam="2">  1        1 0.29304897E-02 0.90400523E+02</pdfrwt>
<pdfrwt beam="1">  1       -1 0.16501179E-01 0.90400523E+02</pdfrwt>
<totfact> 0.82088450E+04</totfact>
</mgrwt>
</event>
<event>
 5    1  0.1197825E+001  0.9185579E+02  0.7546771E-02  0.1298419E+00
          3   -1    0    0  501    0  0.00000000000E+00  0.00000000000E+00  0.24581248737E+02  0.24581248737E+02  0.00000000000E+00 0. -1.
         -3   -1    0    0    0  501 -0.00000000000E+00 -0.00000000000E+00 -0.85812217565E+02  0.85812217565E+02  0.00000000000E+00 0.  1.
         23    2    1    2    0    0  0.00000000000E+00  0.00000000000E+00 -0.61230968828E+02  0.11039346630E+03  0.91855788378E+02 0.  0.
        -13    1    3    3    0    0  0.40787843113E+02 -0.72230733093E+01 -0.54457177472E+02  0.68420794441E+02  0.00000000000E+00 0.  1.
         13    1    3    3    0    0 -0.40787843113E+02  0.72230733093E+01 -0.67737913564E+01  0.41972671861E+02  0.00000000000E+00 0. -1.
<mgrwt>
<rscale>  0 0.91855788E+02</rscale>
<asrwt>0</asrwt>
<pdfrwt beam="1">  1        3 0.37817305E-02 0.91855788E+02</pdfrwt>
<pdfrwt beam="2">  1       -3 0.13201880E-01 0.91855788E+02</pdfrwt>
<totfact> 0.33239806E+04</totfact>
</mgrwt>
</event>
<event>
 5    1  0.1197825E+001  0.9141152E+02  0.7546771E-02  0.1299469E+00
          2   -1    0    0  501    0  0.00000000000E+00  0.00000000000E+00  0.17897811305E+02  0.17897811305E+02  0.00000000000E+00 0. -1.
         -2   -1    0    0    0  501 -0.00000000000E+00 -0.00000000000E+00 -0.11671909281E+03  0.11671909281E+03  0.00000000000E+00 0.  1.
         23    2    1    2    0    0  0.00000000000E+00  0.00000000000E+00 -0.98821281508E+02  0.13461690412E+03  0.91411515661E+02 0.  0.
        -13    1    3    3    0    0 -0.93326078953E+01  0.18423096667E+02 -0.10945615819E+03  0.11138742580E+03  0.00000000000E+00 0.  1.
         13    1    3    3    0    0  0.93326078953E+01 -0.18423096667E+02  0.10634876680E+02  0.23229478318E+02  0.00000000000E+00 0. -1.
<mgrwt>
<rscale>  0 0.91411516E+02</rscale>
<asrwt>0</asrwt>
<pdfrwt beam="1">  1        2 0.27535095E-02 0.91411516E+02</pdfrwt>
<pdfrwt beam="2">  1       -2 0.17956783E-01 0.91411516E+02</pdfrwt>
<totfact> 0.75602117E+04</totfact>
</mgrwt>
</event>
<event>
 5    1  0.1197825E+001  0.8924380E+02  0.7546771E-02  0.1304693E+00
          4   -1    0    0  501    0  0.00000000000E+00  0.00000000000E+00  0.55970988552E+02  0.55970988552E+02  0.00000000000E+00 0. -1.
         -4   -1    0    0    0  501 -0.00000000000E+00 -0.00000000000E+00 -0.35574034986E+02  0.35574034986E+02  0.00000000000E+00 0.  1.
         23    2    1    2    0    0  0.00000000000E+00  0.00000000000E+00  0.20396953565E+02  0.91545023538E+02  0.89243798775E+02 0.  0.
        -13    1    3    3    0    0  0.18092910428E+02  0.39796752914E-01  0.52039460823E+02  0.55095013153E+02  0.00000000000E+00 0. -1.
         13    1    3    3    0    0 -0.18092910428E+02 -0.39796752914E-01 -0.31642507258E+02  0.36450010385E+02  0.00000000000E+00 0.  1.
<mgrwt>
<rscale>  0 0.89243799E+02</rscale>
<asrwt>0</asrwt>
<pdfrwt beam="1">  1        4 0.86109213E-02 0.89243799E+02</pdfrwt>
<pdfrwt beam="2">  1       -4 0.54729285E-02 0.89243799E+02</pdfrwt>
<totfact> 0.28603919E+04</totfact>
</mgrwt>
</event>
<event>
 5    1  0.1197825E+001  0.8992235E+02  0.7546771E-02  0.1303040E+00
          1   -1    0    0  501    0  0.00000000000E+00  0.00000000000E+00  0.12597349575E+02  0.12597349575E+02  0.00000000000E+00 0. -1.
         -1   -1    0    0    0  501 -0.00000000000E+00 -0.00000000000E+00 -0.16047084574E+03  0.16047084574E+03  0.00000000000E+00 0.  1.
         23    2    1    2    0    0  0.00000000000E+00  0.00000000000E+00 -0.14787349616E+03  0.17306819531E+03  0.89922351846E+02 0.  0.
        -13    1    3    3    0    0  0.34280060137E+02  0.22787145226E+02 -0.39126241315E+02  0.56791190074E+02  0.00000000000E+00 0.  1.
         13    1    3    3    0    0 -0.34280060137E+02 -0.22787145226E+02 -0.10874725485E+03  0.11627700524E+03  0.00000000000E+00 0. -1.
<mgrwt>
<rscale>  0 0.89922352E+02</rscale>
<asrwt>0</asrwt>
<pdfrwt beam="1">  1        1 0.19380538E-02 0.89922352E+02</pdfrwt>
<pdfrwt beam="2">  1       -1 0.24687822E-01 0.89922352E+02</pdfrwt>
<totfact> 0.76284298E+04</totfact>
</mgrwt>
</event>
<event>
 5    1  0.1197825E+001  0.9099742E+02  0.7546771E-02  0.1300454E+00
          1   -1    0    0  501    0  0.00000000000E+00  0.00000000000E+00  0.69873554819E+02  0.69873554819E+02  0.00000000000E+00 0. -1.
         -1   -1    0    0    0  501 -0.00000000000E+00 -0.00000000000E+00 -0.29626840559E+02  0.29626840559E+02  0.00000000000E+00 0.  1.
         23    2    1    2    0    0  0.00000000000E+00  0.00000000000E+00  0.40246714260E+02  0.99500395378E+02  0.90997421236E+02 0.  0.
        -11    1    3    3    0    0  0.61997938075E+01 -0.10011737112E+02 -0.27931647051E+02  0.30312525962E+02  0.00000000000E+00 0.  1.
         11    1    3    3    0    0 -0.61997938075E+01  0.10011737112E+02  0.68178361311E+02  0.69187869416E+02  0.00000000000E+00 0. -1.
<mgrwt>
<rscale>  0 0.90997421E+02</rscale>
<asrwt>0</asrwt>
<pdfrwt beam="1">  1        1 0.10749778E-01 0.90997421E+02</pdfrwt>
<pdfrwt beam="2">  1       -1 0.45579755E-02 0.90997421E+02</pdfrwt>
<totfact> 0.99177044E+04</totfact>
</mgrwt>
</event>
<event>
 5    1  0.1197825E+001  0.9288513E+02  0.7546771E-02  0.1296012E+00
         -1   -1    0    0    0  501 -0.00000000000E+00  0.00000000000E+00  0.34827100192E+02  0.34827100192E+02  0.00000000000E+00 0.  1.
          1   -1    0    0  501    0  0.00000000000E+00 -0.00000000000E+00 -0.61931991919E+02  0.61931991919E+02  0.00000000000E+00 0. -1.
         23    2    1    2    0    0  0.00000000000E+00  0.00000000000E+00 -0.27104891727E+02  0.96759092111E+02  0.92885126638E+02 0.  0.
        -11    1    3    3    0    0  0.42268313281E+02 -0.11060329570E+01  0.64602100441E+01  0.42773448895E+02  0.00000000000E+00 0.  1.
         11    1    3    3    0    0 -0.42268313281E+02  0.11060329570E+01 -0.33565101771E+02  0.53985643216E+02  0.00000000000E+00 0. -1.
<mgrwt>
<rscale>  0 0.92885127E+02</rscale>
<asrwt>0</asrwt>
<pdfrwt beam="2">  1        1 0.95279988E-02 0.92885127E+02</pdfrwt>
<pdfrwt beam="1">  1       -1 0.53580154E-02 0.92885127E+02</pdfrwt>
<totfact> 0.91970364E+04</totfact>
</mgrwt>
</event>
<event>
 5    1  0.1197825E+001  0.9114727E+02  0.7546771E-02  0.1300097E+00
          4   -1    0    0  501    0  0.00000000000E+00  0.00000000000E+00  0.18890531192E+03  0.18890531192E+03  0.00000000000E+00 0. -1.
         -4   -1    0    0    0  501 -0.00000000000E+00 -0.00000000000E+00 -0.10994695506E+02  0.10994695506E+02  0.00000000000E+00 0.  1.
         23    2    1    2    0    0  0.00000000000E+00  0.00000000000E+00  0.17791061642E+03  0.19990000743E+03  0.91147273883E+02 0.  0.
        -11    1    3    3    0    0 -0.39933832869E+02  0.15372230809E+02  0.12334938204E+03  0.13056066229E+03  0.00000000000E+00 0. -1.
         11    1    3    3    0    0  0.39933832869E+02 -0.15372230809E+02  0.54561234374E+02  0.69339345138E+02  0.00000000000E+00 0.  1.
<mgrwt>
<rscale>  0 0.91147274E+02</rscale>
<asrwt>0</asrwt>
<pdfrwt beam="1">  1        4 0.29062353E-01 0.91147274E+02</pdfrwt>
<pdfrwt beam="2">  1       -4 0.16914918E-02 0.91147274E+02</pdfrwt>
<totfact> 0.21408980E+04</totfact>
</mgrwt>
</event>
<event>
 5    1  0.1197825E+001  0.8976519E+02  0.7546771E-02  0.1303421E+00
         -1   -1    0    0    0  501 -0.00000000000E+00  0.00000000000E+00  0.49267387448E+02  0.49267387448E+02  0.00000000000E+00 0.  1.
          1   -1    0    0  501    0  0.00000000000E+00 -0.00000000000E+00 -0.40888053092E+02  0.40888053092E+02  0.00000000000E+00 0. -1.
         23    2    1    2    0    0  0.00000000000E+00  0.00000000000E+00  0.83793343561E+01  0.90155440541E+02  0.89765194896E+02 0.  0.
        -13    1    3    3    0    0 -0.13964818639E+02  0.92846175358E+01  0.46002704744E+02  0.48963957419E+02  0.00000000000E+00 0.  1.
         13    1    3    3    0    0  0.13964818639E+02 -0.92846175358E+01 -0.37623370388E+02  0.41191483121E+02  0.00000000000E+00 0. -1.
<mgrwt>
<rscale>  0 0.89765195E+02</rscale>
<asrwt>0</asrwt>
<pdfrwt beam="2">  1        1 0.62904697E-02 0.89765195E+02</pdfrwt>
<pdfrwt beam="1">  1       -1 0.75795981E-02 0.89765195E+02</pdfrwt>
<totfact> 0.95052033E+04</totfact>
</mgrwt>
</event>
<event>
 5    1  0.1197825E+001  0.9099006E+02  0.7546771E-02  0.1300472E+00
          1   -1    0    0  501    0  0.00000000000E+00  0.00000000000E+00  0.33776604596E+02  0.33776604596E+02  0.00000000000E+00 0. -1.
         -1   -1    0    0    0  501 -0.00000000000E+00 -0.00000000000E+00 -0.61279033045E+02  0.61279033045E+02  0.00000000000E+00 0.  1.
         23    2    1    2    0    0  0.00000000000E+00  0.00000000000E+00 -0.27502428449E+02  0.95055637641E+02  0.90990058120E+02 0.  0.
        -13    1    3    3    0    0 -0.22310476903E+02  0.58213308120E+01  0.27220451460E+02  0.35673495060E+02  0.00000000000E+00 0. -1.
         13    1    3    3    0    0  0.22310476903E+02 -0.58213308120E+01 -0.54722879909E+02  0.59382142582E+02  0.00000000000E+00 0.  1.
<mgrwt>
<rscale>  0 0.90990058E+02</rscale>
<asrwt>0</asrwt>
<pdfrwt beam="1">  1        1 0.51964007E-02 0.90990058E+02</pdfrwt>
<pdfrwt beam="2">  1       -1 0.94275436E-02 0.90990058E+02</pdfrwt>
<totfact> 0.88850462E+04</totfact>
</mgrwt>
</event>
<event>
 5    1  0.1197825E+001  0.9037210E+02  0.7546771E-02  0.1301953E+00
          2   -1    0    0  501    0  0.00000000000E+00  0.00000000000E+00  0.10215741563E+03  0.10215741563E+03  0.00000000000E+00 0. -1.
         -2   -1    0    0    0  501 -0.00000000000E+00 -0.00000000000E+00 -0.19986597524E+02  0.19986597524E+02  0.00000000000E+00 0.  1.
         23    2    1    2    0    0  0.00000000000E+00  0.00000000000E+00  0.82170818103E+02  0.12214401315E+03  0.90372100787E+02 0.  0.
        -11    1    3    3    0    0  0.14446830740E+02  0.19420093746E+02  0.92656674078E+02  0.95765913616E+02  0.00000000000E+00 0. -1.
         11    1    3    3    0    0 -0.14446830740E+02 -0.19420093746E+02 -0.10485855975E+02  0.26378099534E+02  0.00000000000E+00 0.  1.
<mgrwt>
<rscale>  0 0.90372101E+02</rscale>
<asrwt>0</asrwt>
<pdfrwt beam="1">  1        2 0.15716525E-01 0.90372101E+02</pdfrwt>
<pdfrwt beam="2">  1       -2 0.30748612E-02 0.90372101E+02</pdfrwt>
<totfact> 0.12652279E+05</totfact>
</mgrwt>
</event>
<event>
 5    1  0.1197825E+001  0.9712382E+02  0.7546771E-02  0.1286463E+00
         -1   -1    0    0    0  501 -0.00000000000E+00  0.00000000000E+00  0.30759356905E+03  0.30759356905E+03  0.00000000000E+00 0.  1.
          1   -1    0    0  501    0  0.00000000000E+00 -0.00000000000E+00 -0.76668021009E+01  0.76668021009E+01  0.00000000000E+00 0. -1.
         23    2    1    2    0    0  0.00000000000E+00  0.00000000000E+00  0.29992676695E+03  0.31526037115E+03  0.97123818323E+02 0.  0.
        -11    1    3    3    0    0 -0.25108229231E+02  0.39957471523E+02  0.11277813828E+03  0.12225355283E+03  0.00000000000E+00 0. -1.
         11    1    3    3    0    0  0.25108229231E+02 -0.39957471523E+02  0.18714862867E+03  0.19300681832E+03  0.00000000000E+00 0.  1.
<mgrwt>
<rscale>  0 0.97123818E+02</rscale>
<asrwt>0</asrwt>
<pdfrwt beam="2">  1        1 0.11795082E-02 0.97123818E+02</pdfrwt>
<pdfrwt beam="1">  1       -1 0.47322078E-01 0.97123818E+02</pdfrwt>
<totfact> 0.50826200E+04</totfact>
</mgrwt>
</event>
<event>
 5    1  0.1197825E+001  0.8930219E+02  0.7546771E-02  0.1304550E+00
          2   -1    0    0  501    0  0.00000000000E+00  0.00000000000E+00  0.16968894521E+03  0.16968894521E+03  0.00000000000E+00 0. -1.
         -2   -1    0    0    0  501 -0.00000000000E+00 -0.00000000000E+00 -0.11749265530E+02  0.11749265530E+02  0.00000000000E+00 0.  1.
         23    2    1    2    0    0  0.00000000000E+00  0.00000000000E+00  0.15793967968E+03  0.18143821075E+03  0.89302194259E+02 0.  0.
        -11    1    3    3    0    0 -0.29918132660E+02 -0.26102328212E+02  0.37466042145E+02  0.54590571658E+02  0.00000000000E+00 0.  1.
         11    1    3    3    0    0  0.29918132660E+02  0.26102328212E+02  0.12047363754E+03  0.12684763909E+03  0.00000000000E+00 0. -1.
<mgrwt>
<rscale>  0 0.89302194E+02</rscale>
<asrwt>0</asrwt>
<pdfrwt beam="1">  1        2 0.26105990E-01 0.89302194E+02</pdfrwt>
<pdfrwt beam="2">  1       -2 0.18075794E-02 0.89302194E+02</pdfrwt>
<totfact> 0.15429785E+05</totfact>
</mgrwt>
</event>
<event>
 5    1  0.1197825E+001  0.9176648E+02  0.7546771E-02  0.1298629E+00
         -3   -1    0    0    0  501 -0.00000000000E+00  0.00000000000E+00  0.35937868715E+02  0.35937868715E+02  0.00000000000E+00 0.  1.
          3   -1    0    0  501    0  0.00000000000E+00 -0.00000000000E+00 -0.58580869975E+02  0.58580869975E+02  0.00000000000E+00 0. -1.
         23    2    1    2    0    0  0.00000000000E+00  0.00000000000E+00 -0.22643001260E+02  0.94518738689E+02  0.91766477852E+02 0.  0.
        -13    1    3    3    0    0  0.10559305830E+02 -0.20174721196E+02  0.29707275227E+02  0.37430475770E+02  0.00000000000E+00 0.  1.
         13    1    3    3    0    0 -0.10559305830E+02  0.20174721196E+02 -0.52350276487E+02  0.57088262920E+02  0.00000000000E+00 0. -1.
<mgrwt>
<rscale>  0 0.91766478E+02</rscale>
<asrwt>0</asrwt>
<pdfrwt beam="2">  1        3 0.90124416E-02 0.91766478E+02</pdfrwt>
<pdfrwt beam="1">  1       -3 0.55289029E-02 0.91766478E+02</pdfrwt>
<totfact> 0.34471533E+04</totfact>
</mgrwt>
</event>
<event>
 5    1  0.1197825E+001  0.9124527E+02  0.7546771E-02  0.1299864E+00
         -1   -1    0    0    0  501 -0.00000000000E+00  0.00000000000E+00  0.27981343594E+02  0.27981343594E+02  0.00000000000E+00 0.  1.
          1   -1    0    0  501    0  0.00000000000E+00 -0.00000000000E+00 -0.74386169540E+02  0.74386169540E+02  0.00000000000E+00 0. -1.
         23    2    1    2    0    0  0.00000000000E+00  0.00000000000E+00 -0.46404825946E+02  0.10236751313E+03  0.91245273161E+02 0.  0.
        -13    1    3    3    0    0  0.17251992447E+02  0.28430766773E+01 -0.70478102921E+02  0.72614580628E+02  0.00000000000E+00 0. -1.
         13    1    3    3    0    0 -0.17251992447E+02 -0.28430766773E+01  0.24073276975E+02  0.29752932506E+02  0.00000000000E+00 0.  1.
<mgrwt>
<rscale>  0 0.91245273E+02</rscale>
<asrwt>0</asrwt>
<pdfrwt beam="2">  1        1 0.11444026E-01 0.91245273E+02</pdfrwt>
<pdfrwt beam="1">  1       -1 0.43048221E-02 0.91245273E+02</pdfrwt>
<totfact> 0.99395834E+04</totfact>
</mgrwt>
</event>
<event>
 5    1  0.1197825E+001  0.1024673E+03  0.7546771E-02  0.1275192E+00
         -2   -1    0    0    0  501 -0.00000000000E+00  0.00000000000E+00  0.21027068709E+02  0.21027068709E+02  0.00000000000E+00 0. -1.
          2   -1    0    0  501    0  0.00000000000E+00 -0.00000000000E+00 -0.12483364418E+03  0.12483364418E+03  0.00000000000E+00 0.  1.
         23    2    1    2    0    0  0.00000000000E+00  0.00000000000E+00 -0.10380657547E+03  0.14586071289E+03  0.10246727504E+03 0.  0.
        -13    1    3    3    0    0 -0.19890118045E+02  0.15047231800E+02  0.11802269293E+02  0.27592200730E+02  0.00000000000E+00 0. -1.
         13    1    3    3    0    0  0.19890118045E+02 -0.15047231800E+02 -0.11560884477E+03  0.11826851216E+03  0.00000000000E+00 0.  1.
<mgrwt>
<rscale>  0 0.10246728E+03</rscale>
<asrwt>0</asrwt>
<pdfrwt beam="2">  1        2 0.19205176E-01 0.10246728E+03</pdfrwt>
<pdfrwt beam="1">  1       -2 0.32349336E-02 0.10246728E+03</pdfrwt>
<totfact> 0.95362702E+04</totfact>
</mgrwt>
</event>
<event>
 5    1  0.1197825E+001  0.8941365E+02  0.7546771E-02  0.1304278E+00
          2   -1    0    0  501    0  0.00000000000E+00  0.00000000000E+00  0.34521096814E+02  0.34521096814E+02  0.00000000000E+00 0. -1.
         -2   -1    0    0    0  501 -0.00000000000E+00 -0.00000000000E+00 -0.57897932603E+02  0.57897932603E+02  0.00000000000E+00 0.  1.
         23    2    1    2    0    0  0.00000000000E+00  0.00000000000E+00 -0.23376835789E+02  0.92419029416E+02  0.89413648549E+02 0.  0.
        -11    1    3    3    0    0  0.16315964178E+02  0.29993884325E+02  0.18140852978E+02  0.38664380646E+02  0.00000000000E+00 0. -1.
         11    1    3    3    0    0 -0.16315964178E+02 -0.29993884325E+02 -0.41517688767E+02  0.53754648771E+02  0.00000000000E+00 0.  1.
<mgrwt>
<rscale>  0 0.89413649E+02</rscale>
<asrwt>0</asrwt>
<pdfrwt beam="1">  1        2 0.53109380E-02 0.89413649E+02</pdfrwt>
<pdfrwt beam="2">  1       -2 0.89073743E-02 0.89413649E+02</pdfrwt>
<totfact> 0.97198262E+04</totfact>
</mgrwt>
</event>
<event>
 5    1  0.1197825E+001  0.9173879E+02  0.7546771E-02  0.1298695E+00
          3   -1    0    0  501    0  0.00000000000E+00  0.00000000000E+00  0.82609651906E+01  0.82609651906E+01  0.00000000000E+00 0. -1.
         -3   -1    0    0    0  501 -0.00000000000E+00 -0.00000000000E+00 -0.25469195968E+03  0.25469195968E+03  0.00000000000E+00 0.  1.
         23    2    1    2    0    0  0.00000000000E+00  0.00000000000E+00 -0.24643099449E+03  0.26295292487E+03  0.91738790339E+02 0.  0.
        -11    1    3    3    0    0  0.26562910234E+02 -0.26494770996E+02 -0.19885818480E+03  0.20236634788E+03  0.00000000000E+00 0.  1.
         11    1    3    3    0    0 -0.26562910234E+02  0.26494770996E+02 -0.47572809684E+02  0.60586576991E+02  0.00000000000E+00 0. -1.
<mgrwt>
<rscale>  0 0.91738790E+02</rscale>
<asrwt>0</asrwt>
<pdfrwt beam="1">  1        3 0.12709178E-02 0.91738790E+02</pdfrwt>
<pdfrwt beam="2">  1       -3 0.39183375E-01 0.91738790E+02</pdfrwt>
<totfact> 0.25114885E+04</totfact>
</mgrwt>
</event>
<event>
 5    1  0.1197825E+001  0.9231017E+02  0.7546771E-02  0.1297352E+00
         -1   -1    0    0    0  501 -0.00000000000E+00  0.00000000000E+00  0.10734352986E+02  0.10734352986E+02  0.00000000000E+00 0.  1.
          1   -1    0    0  501    0  0.00000000000E+00 -0.00000000000E+00 -0.19845554475E+03  0.19845554475E+03  0.00000000000E+00 0. -1.
         23    2    1    2    0    0  0.00000000000E+00  0.00000000000E+00 -0.18772119177E+03  0.20918989774E+03  0.92310169959E+02 0.  0.
        -13    1    3    3    0    0  0.28033160304E+02 -0.36570527517E+02 -0.87851925308E+02  0.99202935137E+02  0.00000000000E+00 0.  1.
         13    1    3    3    0    0 -0.28033160304E+02  0.36570527517E+02 -0.99869266459E+02  0.10998696260E+03  0.00000000000E+00 0. -1.
<mgrwt>
<rscale>  0 0.92310170E+02</rscale>
<asrwt>0</asrwt>
<pdfrwt beam="2">  1        1 0.30531623E-01 0.92310170E+02</pdfrwt>
<pdfrwt beam="1">  1       -1 0.16514389E-02 0.92310170E+02</pdfrwt>
<totfact> 0.11436944E+05</totfact>
</mgrwt>
</event>
<event>
 5    1  0.1197825E+001  0.9220249E+02  0.7546771E-02  0.1297604E+00
          2   -1    0    0  501    0  0.00000000000E+00  0.00000000000E+00  0.13052122099E+03  0.13052122099E+03  0.00000000000E+00 0. -1.
         -2   -1    0    0    0  501 -0.00000000000E+00 -0.00000000000E+00 -0.16283367088E+02  0.16283367088E+02  0.00000000000E+00 0.  1.
         23    2    1    2    0    0  0.00000000000E+00  0.00000000000E+00  0.11423785391E+03  0.14680458808E+03  0.92202493550E+02 0.  0.
        -13    1    3    3    0    0 -0.30847780196E+02  0.74386423870E+01  0.11036611877E+03  0.11483727233E+03  0.00000000000E+00 0. -1.
         13    1    3    3    0    0  0.30847780196E+02 -0.74386423870E+01  0.38717351378E+01  0.31967315755E+02  0.00000000000E+00 0.  1.
<mgrwt>
<rscale>  0 0.92202494E+02</rscale>
<asrwt>0</asrwt>
<pdfrwt beam="1">  1        2 0.20080187E-01 0.92202494E+02</pdfrwt>
<pdfrwt beam="2">  1       -2 0.25051335E-02 0.92202494E+02</pdfrwt>
<totfact> 0.12944101E+05</totfact>
</mgrwt>
</event>
<event>
 5    1  0.1197825E+001  0.9018398E+02  0.7546771E-02  0.1302407E+00
         -1   -1    0    0    0  501 -0.00000000000E+00  0.00000000000E+00  0.11606004898E+02  0.11606004898E+02  0.00000000000E+00 0.  1.
          1   -1    0    0  501    0  0.00000000000E+00 -0.00000000000E+00 -0.17519270514E+03  0.17519270514E+03  0.00000000000E+00 0. -1.
         23    2    1    2    0    0  0.00000000000E+00  0.00000000000E+00 -0.16358670024E+03  0.18679871004E+03  0.90183976271E+02 0.  0.
        -11    1    3    3    0    0 -0.15925454457E+02  0.41573720431E+02 -0.66958819343E+02  0.80408194967E+02  0.00000000000E+00 0.  1.
         11    1    3    3    0    0  0.15925454457E+02 -0.41573720431E+02 -0.96627880899E+02  0.10639051507E+03  0.00000000000E+00 0. -1.
<mgrwt>
<rscale>  0 0.90183976E+02</rscale>
<asrwt>0</asrwt>
<pdfrwt beam="2">  1        1 0.26952725E-01 0.90183976E+02</pdfrwt>
<pdfrwt beam="1">  1       -1 0.17855391E-02 0.90183976E+02</pdfrwt>
<totfact> 0.11887365E+05</totfact>
</mgrwt>
</event>
<event>
 5    1  0.1197825E+001  0.9151869E+02  0.7546771E-02  0.1299215E+00
         -3   -1    0    0    0  501 -0.00000000000E+00  0.00000000000E+00  0.89614994418E+02  0.89614994418E+02  0.00000000000E+00 0.  1.
          3   -1    0    0  501    0  0.00000000000E+00 -0.00000000000E+00 -0.23365706577E+02  0.23365706577E+02  0.00000000000E+00 0. -1.
         23    2    1    2    0    0  0.00000000000E+00  0.00000000000E+00  0.66249287841E+02  0.11298070100E+03  0.91518690211E+02 0.  0.
        -13    1    3    3    0    0  0.14449515863E+02  0.41158159106E+02  0.50191938607E+02  0.66498220058E+02  0.00000000000E+00 0.  1.
         13    1    3    3    0    0 -0.14449515863E+02 -0.41158159106E+02  0.16057349234E+02  0.46482480938E+02  0.00000000000E+00 0. -1.
<mgrwt>
<rscale>  0 0.91518690E+02</rscale>
<asrwt>0</asrwt>
<pdfrwt beam="2">  1        3 0.35947241E-02 0.91518690E+02</pdfrwt>
<pdfrwt beam="1">  1       -3 0.13786922E-01 0.91518690E+02</pdfrwt>
<totfact> 0.33393146E+04</totfact>
</mgrwt>
</event>
<event>
 5    1  0.1197825E+001  0.9219685E+02  0.7546771E-02  0.1297617E+00
         -2   -1    0    0    0  501 -0.00000000000E+00  0.00000000000E+00  0.28439604083E+02  0.28439604083E+02  0.00000000000E+00 0.  1.
          2   -1    0    0  501    0  0.00000000000E+00 -0.00000000000E+00 -0.74722023924E+02  0.74722023924E+02  0.00000000000E+00 0. -1.
         23    2    1    2    0    0  0.00000000000E+00  0.00000000000E+00 -0.46282419841E+02  0.10316162801E+03  0.92196849766E+02 0.  0.
        -11    1    3    3    0    0 -0.25678986779E+02  0.28060277557E+02  0.59998327183E+01  0.38506980292E+02  0.00000000000E+00 0.  1.
         11    1    3    3    0    0  0.25678986779E+02 -0.28060277557E+02 -0.52282252560E+02  0.64654647716E+02  0.00000000000E+00 0. -1.
<mgrwt>
<rscale>  0 0.92196850E+02</rscale>
<asrwt>0</asrwt>
<pdfrwt beam="2">  1        2 0.11495696E-01 0.92196850E+02</pdfrwt>
<pdfrwt beam="1">  1       -2 0.43753237E-02 0.92196850E+02</pdfrwt>
<totfact> 0.10920632E+05</totfact>
</mgrwt>
</event>
<event>
 5    1  0.1197825E+001  0.9175071E+02  0.7546771E-02  0.1298667E+00
          1   -1    0    0  501    0  0.00000000000E+00  0.00000000000E+00  0.52698843553E+02  0.52698843553E+02  0.00000000000E+00 0. -1.
         -1   -1    0    0    0  501 -0.00000000000E+00 -0.00000000000E+00 -0.39935380163E+02  0.39935380163E+02  0.00000000000E+00 0.  1.
         23    2    1    2    0    0  0.00000000000E+00  0.00000000000E+00  0.12763463389E+02  0.92634223716E+02  0.91750713380E+02 0.  0.
        -13    1    3    3    0    0  0.51232737332E+01  0.15702414682E+02 -0.36829166141E+02  0.40363365063E+02  0.00000000000E+00 0.  1.
         13    1    3    3    0    0 -0.51232737332E+01 -0.15702414682E+02  0.49592629530E+02  0.52270858653E+02  0.00000000000E+00 0. -1.
<mgrwt>
<rscale>  0 0.91750713E+02</rscale>
<asrwt>0</asrwt>
<pdfrwt beam="1">  1        1 0.81075144E-02 0.91750713E+02</pdfrwt>
<pdfrwt beam="2">  1       -1 0.61439046E-02 0.91750713E+02</pdfrwt>
<totfact> 0.92865138E+04</totfact>
</mgrwt>
</event>
<event>
 5    1  0.1197825E+001  0.9183799E+02  0.7546771E-02  0.1298461E+00
          1   -1    0    0  501    0  0.00000000000E+00  0.00000000000E+00  0.96090365748E+02  0.96090365748E+02  0.00000000000E+00 0. -1.
         -1   -1    0    0    0  501 -0.00000000000E+00 -0.00000000000E+00 -0.21943451615E+02  0.21943451615E+02  0.00000000000E+00 0.  1.
         23    2    1    2    0    0  0.00000000000E+00  0.00000000000E+00  0.74146914133E+02  0.11803381736E+03  0.91837994130E+02 0.  0.
        -13    1    3    3    0    0  0.11357905712E+02  0.42737636700E+02  0.52973416560E+02  0.69005003260E+02  0.00000000000E+00 0. -1.
         13    1    3    3    0    0 -0.11357905712E+02 -0.42737636700E+02  0.21173497572E+02  0.49028814103E+02  0.00000000000E+00 0.  1.
<mgrwt>
<rscale>  0 0.91837994E+02</rscale>
<asrwt>0</asrwt>
<pdfrwt beam="1">  1        1 0.14783133E-01 0.91837994E+02</pdfrwt>
<pdfrwt beam="2">  1       -1 0.33759157E-02 0.91837994E+02</pdfrwt>
<totfact> 0.10173578E+05</totfact>
</mgrwt>
</event>
<event>
 5    1  0.1197825E+001  0.8955858E+02  0.7546771E-02  0.1303924E+00
         -2   -1    0    0    0  501 -0.00000000000E+00  0.00000000000E+00  0.13334668031E+02  0.13334668031E+02  0.00000000000E+00 0.  1.
          2   -1    0    0  501    0  0.00000000000E+00 -0.00000000000E+00 -0.15037380429E+03  0.15037380429E+03  0.00000000000E+00 0. -1.
         23    2    1    2    0    0  0.00000000000E+00  0.00000000000E+00 -0.13703913626E+03  0.16370847232E+03  0.89558578837E+02 0.  0.
        -13    1    3    3    0    0 -0.81996285330E+00 -0.44681127807E+02 -0.63314169075E+02  0.77496835592E+02  0.00000000000E+00 0.  1.
         13    1    3    3    0    0  0.81996285330E+00  0.44681127807E+02 -0.73724967183E+02  0.86211636728E+02  0.00000000000E+00 0. -1.
<mgrwt>
<rscale>  0 0.89558579E+02</rscale>
<asrwt>0</asrwt>
<pdfrwt beam="2">  1        2 0.23134433E-01 0.89558579E+02</pdfrwt>
<pdfrwt beam="1">  1       -2 0.20514872E-02 0.89558579E+02</pdfrwt>
<totfact> 0.14688364E+05</totfact>
</mgrwt>
</event>
<event>
 5    1  0.1197825E+001  0.9238692E+02  0.7546771E-02  0.1297172E+00
         -1   -1    0    0    0  501 -0.00000000000E+00  0.00000000000E+00  0.47253510800E+02  0.47253510800E+02  0.00000000000E+00 0.  1.
          1   -1    0    0  501    0  0.00000000000E+00 -0.00000000000E+00 -0.45157185304E+02  0.45157185304E+02  0.00000000000E+00 0. -1.
         23    2    1    2    0    0  0.00000000000E+00  0.00000000000E+00  0.20963254959E+01  0.92410696105E+02  0.92386915599E+02 0.  0.
        -11    1    3    3    0    0  0.25271234186E+02 -0.10211666440E+01  0.39712445747E+02  0.47082442649E+02  0.00000000000E+00 0.  1.
         11    1    3    3    0    0 -0.25271234186E+02  0.10211666440E+01 -0.37616120251E+02  0.45328253456E+02  0.00000000000E+00 0. -1.
<mgrwt>
<rscale>  0 0.92386916E+02</rscale>
<asrwt>0</asrwt>
<pdfrwt beam="2">  1        1 0.69472593E-02 0.92386916E+02</pdfrwt>
<pdfrwt beam="1">  1       -1 0.72697709E-02 0.92386916E+02</pdfrwt>
<totfact> 0.88977111E+04</totfact>
</mgrwt>
</event>
<event>
 5    1  0.1197825E+001  0.9454966E+02  0.7546771E-02  0.1292194E+00
         -2   -1    0    0    0  501 -0.00000000000E+00  0.00000000000E+00  0.65503700098E+02  0.65503700098E+02  0.00000000000E+00 0.  1.
          2   -1    0    0  501    0  0.00000000000E+00 -0.00000000000E+00 -0.34118829176E+02  0.34118829176E+02  0.00000000000E+00 0. -1.
         23    2    1    2    0    0  0.00000000000E+00  0.00000000000E+00  0.31384870922E+02  0.99622529273E+02  0.94549660052E+02 0.  0.
        -11    1    3    3    0    0 -0.31943389161E+02 -0.15697067024E+02  0.48476649321E+02  0.60139534033E+02  0.00000000000E+00 0.  1.
         11    1    3    3    0    0  0.31943389161E+02  0.15697067024E+02 -0.17091778399E+02  0.39482995240E+02  0.00000000000E+00 0. -1.
<mgrwt>
<rscale>  0 0.94549660E+02</rscale>
<asrwt>0</asrwt>
<pdfrwt beam="2">  1        2 0.52490507E-02 0.94549660E+02</pdfrwt>
<pdfrwt beam="1">  1       -2 0.10077492E-01 0.94549660E+02</pdfrwt>
<totfact> 0.82226066E+04</totfact>
</mgrwt>
</event>
<event>
 5    1  0.1197825E+001  0.8895855E+02  0.7546771E-02  0.1305393E+00
          2   -1    0    0  501    0  0.00000000000E+00  0.00000000000E+00  0.34187555526E+03  0.34187555526E+03  0.00000000000E+00 0. -1.
         -2   -1    0    0    0  501 -0.00000000000E+00 -0.00000000000E+00 -0.57869180521E+01  0.57869180521E+01  0.00000000000E+00 0.  1.
         23    2    1    2    0    0  0.00000000000E+00  0.00000000000E+00  0.33608863721E+03  0.34766247331E+03  0.88958548151E+02 0.  0.
        -13    1    3    3    0    0  0.26236444938E+02 -0.32244893457E+02  0.22987717566E+03  0.23360565080E+03  0.00000000000E+00 0. -1.
         13    1    3    3    0    0 -0.26236444938E+02  0.32244893457E+02  0.10621146155E+03  0.11405682252E+03  0.00000000000E+00 0.  1.
<mgrwt>
<rscale>  0 0.88958548E+02</rscale>
<asrwt>0</asrwt>
<pdfrwt beam="1">  1        2 0.52596224E-01 0.88958548E+02</pdfrwt>
<pdfrwt beam="2">  1       -2 0.89029535E-03 0.88958548E+02</pdfrwt>
<totfact> 0.20131751E+05</totfact>
</mgrwt>
</event>
<event>
 5    1  0.1197825E+001  0.9145489E+02  0.7546771E-02  0.1299366E+00
         -2   -1    0    0    0  501 -0.00000000000E+00  0.00000000000E+00  0.62255251103E+02  0.62255251103E+02  0.00000000000E+00 0.  1.
          2   -1    0    0  501    0  0.00000000000E+00 -0.00000000000E+00 -0.33587515449E+02  0.33587515449E+02  0.00000000000E+00 0. -1.
         23    2    1    2    0    0  0.00000000000E+00  0.00000000000E+00  0.28667735653E+02  0.95842766552E+02  0.91454889606E+02 0.  0.
        -11    1    3    3    0    0  0.38754931921E+02 -0.22901086525E+02  0.59111773586E+01  0.45402054249E+02  0.00000000000E+00 0. -1.
         11    1    3    3    0    0 -0.38754931921E+02  0.22901086525E+02  0.22756558295E+02  0.50440712303E+02  0.00000000000E+00 0.  1.
<mgrwt>
<rscale>  0 0.91454890E+02</rscale>
<asrwt>0</asrwt>
<pdfrwt beam="2">  1        2 0.51673101E-02 0.91454890E+02</pdfrwt>
<pdfrwt beam="1">  1       -2 0.95777310E-02 0.91454890E+02</pdfrwt>
<totfact> 0.90336448E+04</totfact>
</mgrwt>
</event>
<event>
 5    1  0.1197825E+001  0.9113368E+02  0.7546771E-02  0.1300129E+00
          2   -1    0    0  501    0  0.00000000000E+00  0.00000000000E+00  0.37892434784E+02  0.37892434784E+02  0.00000000000E+00 0. -1.
         -2   -1    0    0    0  501 -0.00000000000E+00 -0.00000000000E+00 -0.54795554022E+02  0.54795554022E+02  0.00000000000E+00 0.  1.
         23    2    1    2    0    0  0.00000000000E+00  0.00000000000E+00 -0.16903119238E+02  0.92687988806E+02  0.91133681090E+02 0.  0.
        -11    1    3    3    0    0  0.26158162034E+02  0.30857922099E+02 -0.29782488047E+02  0.50234026233E+02  0.00000000000E+00 0.  1.
         11    1    3    3    0    0 -0.26158162034E+02 -0.30857922099E+02  0.12879368809E+02  0.42453962573E+02  0.00000000000E+00 0. -1.
<mgrwt>
<rscale>  0 0.91133681E+02</rscale>
<asrwt>0</asrwt>
<pdfrwt beam="1">  1        2 0.58296054E-02 0.91133681E+02</pdfrwt>
<pdfrwt beam="2">  1       -2 0.84300852E-02 0.91133681E+02</pdfrwt>
<totfact> 0.94190079E+04</totfact>
</mgrwt>
</event>
<event>
 5    1  0.1197825E+001  0.9370853E+02  0.7546771E-02  0.1294112E+00
         -4   -1    0    0    0  501 -0.00000000000E+00  0.00000000000E+00  0.23055836227E+02  0.23055836227E+02  0.00000000000E+00 0.  1.
          4   -1    0    0  501    0  0.00000000000E+00 -0.00000000000E+00 -0.95217628625E+02  0.95217628625E+02  0.00000000000E+00 0. -1.
         23    2    1    2    0    0  0.00000000000E+00  0.00000000000E+00 -0.72161792398E+02  0.11827346485E+03  0.93708527926E+02 0.  0.
        -13    1    3    3    0    0 -0.27328501666E+00 -0.26275046154E+02  0.12880928858E+02  0.29263818332E+02  0.00000000000E+00 0.  1.
         13    1    3    3    0    0  0.27328501666E+00  0.26275046154E+02 -0.85042721256E+02  0.89009646521E+02  0.00000000000E+00 0. -1.
<mgrwt>
<rscale>  0 0.93708528E+02</rscale>
<asrwt>0</asrwt>
<pdfrwt beam="2">  1        4 0.14648866E-01 0.93708528E+02</pdfrwt>
<pdfrwt beam="1">  1       -4 0.35470517E-02 0.93708528E+02</pdfrwt>
<totfact> 0.23554583E+04</totfact>
</mgrwt>
</event>
<event>
 5    1  0.1197825E+001  0.8658372E+02  0.7546771E-02  0.1311342E+00
          2   -1    0    0  501    0  0.00000000000E+00  0.00000000000E+00  0.12173902090E+03  0.12173902090E+03  0.00000000000E+00 0. -1.
         -2   -1    0    0    0  501 -0.00000000000E+00 -0.00000000000E+00 -0.15395106446E+02  0.15395106446E+02  0.00000000000E+00 0.  1.
         23    2    1    2    0    0  0.00000000000E+00  0.00000000000E+00  0.10634391445E+03  0.13713412734E+03  0.86583720996E+02 0.  0.
        -11    1    3    3    0    0 -0.20930347343E+02  0.30004264406E+02  0.16508715415E+02  0.40135682468E+02  0.00000000000E+00 0.  1.
         11    1    3    3    0    0  0.20930347343E+02 -0.30004264406E+02  0.89835199036E+02  0.96998444876E+02  0.00000000000E+00 0. -1.
<mgrwt>
<rscale>  0 0.86583721E+02</rscale>
<asrwt>0</asrwt>
<pdfrwt beam="1">  1        2 0.18729080E-01 0.86583721E+02</pdfrwt>
<pdfrwt beam="2">  1       -2 0.23684780E-02 0.86583721E+02</pdfrwt>
<totfact> 0.15016712E+05</totfact>
</mgrwt>
</event>
<event>
 5    1  0.1197825E+001  0.9073200E+02  0.7546771E-02  0.1301089E+00
         -1   -1    0    0    0  501 -0.00000000000E+00  0.00000000000E+00  0.52152085410E+02  0.52152085410E+02  0.00000000000E+00 0.  1.
          1   -1    0    0  501    0  0.00000000000E+00 -0.00000000000E+00 -0.39462924573E+02  0.39462924573E+02  0.00000000000E+00 0. -1.
         23    2    1    2    0    0  0.00000000000E+00  0.00000000000E+00  0.12689160837E+02  0.91615009983E+02  0.90731996845E+02 0.  0.
        -13    1    3    3    0    0  0.34965576119E+02 -0.13316737614E+02 -0.19559462497E+02  0.42219658776E+02  0.00000000000E+00 0. -1.
         13    1    3    3    0    0 -0.34965576119E+02  0.13316737614E+02  0.32248623334E+02  0.49395351208E+02  0.00000000000E+00 0.  1.
<mgrwt>
<rscale>  0 0.90731997E+02</rscale>
<asrwt>0</asrwt>
<pdfrwt beam="2">  1        1 0.60712192E-02 0.90731997E+02</pdfrwt>
<pdfrwt beam="1">  1       -1 0.80233977E-02 0.90731997E+02</pdfrwt>
<totfact> 0.91736017E+04</totfact>
</mgrwt>
</event>
<event>
 5    1  0.1197825E+001  0.8698796E+02  0.7546771E-02  0.1310314E+00
          1   -1    0    0  501    0  0.00000000000E+00  0.00000000000E+00  0.44047553650E+02  0.44047553650E+02  0.00000000000E+00 0. -1.
         -1   -1    0    0    0  501 -0.00000000000E+00 -0.00000000000E+00 -0.42947365056E+02  0.42947365056E+02  0.00000000000E+00 0.  1.
         23    2    1    2    0    0  0.00000000000E+00  0.00000000000E+00  0.11001885940E+01  0.86994918707E+02  0.86987961614E+02 0.  0.
        -13    1    3    3    0    0  0.97865878120E+00  0.43089866015E+02 -0.52840709423E+01  0.43423677089E+02  0.00000000000E+00 0.  1.
         13    1    3    3    0    0 -0.97865878120E+00 -0.43089866015E+02  0.63842595363E+01  0.43571241617E+02  0.00000000000E+00 0. -1.
<mgrwt>
<rscale>  0 0.86987962E+02</rscale>
<asrwt>0</asrwt>
<pdfrwt beam="1">  1        1 0.67765467E-02 0.86987962E+02</pdfrwt>
<pdfrwt beam="2">  1       -1 0.66072869E-02 0.86987962E+02</pdfrwt>
<totfact> 0.10493473E+05</totfact>
</mgrwt>
</event>
<event>
 5    1  0.1197825E+001  0.8922471E+02  0.7546771E-02  0.1304740E+00
          2   -1    0    0  501    0  0.00000000000E+00  0.00000000000E+00  0.78664331216E+02  0.78664331216E+02  0.00000000000E+00 0. -1.
         -2   -1    0    0    0  501 -0.00000000000E+00 -0.00000000000E+00 -0.25300693219E+02  0.25300693219E+02  0.00000000000E+00 0.  1.
         23    2    1    2    0    0  0.00000000000E+00  0.00000000000E+00  0.53363637996E+02  0.10396502444E+03  0.89224707596E+02 0.  0.
        -11    1    3    3    0    0  0.22300488244E+02  0.38263617164E+02  0.32939947146E+02  0.55194712540E+02  0.00000000000E+00 0. -1.
         11    1    3    3    0    0 -0.22300488244E+02 -0.38263617164E+02  0.20423690850E+02  0.48770311895E+02  0.00000000000E+00 0.  1.
<mgrwt>
<rscale>  0 0.89224708E+02</rscale>
<asrwt>0</asrwt>
<pdfrwt beam="1">  1        2 0.12102205E-01 0.89224708E+02</pdfrwt>
<pdfrwt beam="2">  1       -2 0.38924144E-02 0.89224708E+02</pdfrwt>
<totfact> 0.12137881E+05</totfact>
</mgrwt>
</event>
<event>
 5    1  0.1197825E+001  0.9017852E+02  0.7546771E-02  0.1302420E+00
          1   -1    0    0  501    0  0.00000000000E+00  0.00000000000E+00  0.58111549255E+02  0.58111549255E+02  0.00000000000E+00 0. -1.
         -1   -1    0    0    0  501 -0.00000000000E+00 -0.00000000000E+00 -0.34985148043E+02  0.34985148043E+02  0.00000000000E+00 0.  1.
         23    2    1    2    0    0  0.00000000000E+00  0.00000000000E+00  0.23126401212E+02  0.93096697298E+02  0.90178515262E+02 0.  0.
        -13    1    3    3    0    0  0.27978437535E+02  0.34677961128E+02  0.18692257813E+02  0.48319296943E+02  0.00000000000E+00 0.  1.
         13    1    3    3    0    0 -0.27978437535E+02 -0.34677961128E+02  0.44341433996E+01  0.44777400356E+02  0.00000000000E+00 0. -1.
<mgrwt>
<rscale>  0 0.90178515E+02</rscale>
<asrwt>0</asrwt>
<pdfrwt beam="1">  1        1 0.89402383E-02 0.90178515E+02</pdfrwt>
<pdfrwt beam="2">  1       -1 0.53823305E-02 0.90178515E+02</pdfrwt>
<totfact> 0.98879775E+04</totfact>
</mgrwt>
</event>
<event>
 5    1  0.1197825E+001  0.9261381E+02  0.7546771E-02  0.1296643E+00
         -2   -1    0    0    0  501 -0.00000000000E+00  0.00000000000E+00  0.17382752511E+02  0.17382752511E+02  0.00000000000E+00 0. -1.
          2   -1    0    0  501    0  0.00000000000E+00 -0.00000000000E+00 -0.12335961251E+03  0.12335961251E+03  0.00000000000E+00 0.  1.
         23    2    1    2    0    0  0.00000000000E+00  0.00000000000E+00 -0.10597686000E+03  0.14074236502E+03  0.92613813527E+02 0.  0.
        -13    1    3    3    0    0 -0.34421683455E+02 -0.22995300913E+02 -0.21450497825E+02  0.46623599312E+02  0.00000000000E+00 0. -1.
         13    1    3    3    0    0  0.34421683455E+02  0.22995300913E+02 -0.84526362170E+02  0.94118765704E+02  0.00000000000E+00 0.  1.
<mgrwt>
<rscale>  0 0.92613814E+02</rscale>
<asrwt>0</asrwt>
<pdfrwt beam="2">  1        2 0.18978403E-01 0.92613814E+02</pdfrwt>
<pdfrwt beam="1">  1       -2 0.26742695E-02 0.92613814E+02</pdfrwt>
<totfact> 0.12553454E+05</totfact>
</mgrwt>
</event>
<event>
 5    1  0.1197825E+001  0.9169341E+02  0.7546771E-02  0.1298802E+00
          1   -1    0    0  501    0  0.00000000000E+00  0.00000000000E+00  0.24990014563E+02  0.24990014563E+02  0.00000000000E+00 0. -1.
         -1   -1    0    0    0  501 -0.00000000000E+00 -0.00000000000E+00 -0.84110401504E+02  0.84110401504E+02  0.00000000000E+00 0.  1.
         23    2    1    2    0    0  0.00000000000E+00  0.00000000000E+00 -0.59120386941E+02  0.10910041607E+03  0.91693405619E+02 0.  0.
        -11    1    3    3    0    0  0.36600221495E+02 -0.26886537700E+02 -0.22086142875E+02  0.50500097327E+02  0.00000000000E+00 0.  1.
         11    1    3    3    0    0 -0.36600221495E+02  0.26886537700E+02 -0.37034244065E+02  0.58600318740E+02  0.00000000000E+00 0. -1.
<mgrwt>
<rscale>  0 0.91693406E+02</rscale>
<asrwt>0</asrwt>
<pdfrwt beam="1">  1        1 0.38446176E-02 0.91693406E+02</pdfrwt>
<pdfrwt beam="2">  1       -1 0.12940062E-01 0.91693406E+02</pdfrwt>
<totfact> 0.82721666E+04</totfact>
</mgrwt>
</event>
<event>
 5    1  0.1197825E+001  0.9087307E+02  0.7546771E-02  0.1300751E+00
          1   -1    0    0  501    0  0.00000000000E+00  0.00000000000E+00  0.33684784299E+02  0.33684784299E+02  0.00000000000E+00 0. -1.
         -1   -1    0    0    0  501 -0.00000000000E+00 -0.00000000000E+00 -0.61288172980E+02  0.61288172980E+02  0.00000000000E+00 0.  1.
         23    2    1    2    0    0  0.00000000000E+00  0.00000000000E+00 -0.27603388681E+02  0.94972957279E+02  0.90873073832E+02 0.  0.
        -13    1    3    3    0    0  0.79511011123E+01 -0.31668071347E+02 -0.46824602626E+02  0.57084412608E+02  0.00000000000E+00 0.  1.
         13    1    3    3    0    0 -0.79511011123E+01  0.31668071347E+02  0.19221213945E+02  0.37888544671E+02  0.00000000000E+00 0. -1.
<mgrwt>
<rscale>  0 0.90873074E+02</rscale>
<asrwt>0</asrwt>
<pdfrwt beam="1">  1        1 0.51822745E-02 0.90873074E+02</pdfrwt>
<pdfrwt beam="2">  1       -1 0.94289497E-02 0.90873074E+02</pdfrwt>
<totfact> 0.89138559E+04</totfact>
</mgrwt>
</event>
<event>
 5    1  0.1197825E+001  0.9721885E+02  0.7546771E-02  0.1286255E+00
          1   -1    0    0  501    0  0.00000000000E+00  0.00000000000E+00  0.63086978078E+02  0.63086978078E+02  0.00000000000E+00 0. -1.
         -1   -1    0    0    0  501 -0.00000000000E+00 -0.00000000000E+00 -0.37454260128E+02  0.37454260128E+02  0.00000000000E+00 0.  1.
         23    2    1    2    0    0  0.00000000000E+00  0.00000000000E+00  0.25632717950E+02  0.10054123821E+03  0.97218847713E+02 0.  0.
        -13    1    3    3    0    0 -0.46318003472E+02  0.53559864847E+01 -0.13948692816E+01  0.46647504726E+02  0.00000000000E+00 0.  1.
         13    1    3    3    0    0  0.46318003472E+02 -0.53559864847E+01  0.27027587232E+02  0.53893733480E+02  0.00000000000E+00 0. -1.
<mgrwt>
<rscale>  0 0.97218848E+02</rscale>
<asrwt>0</asrwt>
<pdfrwt beam="1">  1        1 0.97056889E-02 0.97218848E+02</pdfrwt>
<pdfrwt beam="2">  1       -1 0.57621939E-02 0.97218848E+02</pdfrwt>
<totfact> 0.81222801E+04</totfact>
</mgrwt>
</event>
<event>
 5    1  0.1197825E+001  0.1015692E+03  0.7546771E-02  0.1277030E+00
         -2   -1    0    0    0  501 -0.00000000000E+00  0.00000000000E+00  0.26315639023E+03  0.26315639023E+03  0.00000000000E+00 0.  1.
          2   -1    0    0  501    0  0.00000000000E+00 -0.00000000000E+00 -0.98005342640E+01  0.98005342640E+01  0.00000000000E+00 0. -1.
         23    2    1    2    0    0  0.00000000000E+00  0.00000000000E+00  0.25335585597E+03  0.27295692450E+03  0.10156915318E+03 0.  0.
        -11    1    3    3    0    0  0.40564120610E+02  0.60224154989E+01  0.46174451812E+02  0.61755950073E+02  0.00000000000E+00 0. -1.
         11    1    3    3    0    0 -0.40564120610E+02 -0.60224154989E+01  0.20718140416E+03  0.21120097442E+03  0.00000000000E+00 0.  1.
<mgrwt>
<rscale>  0 0.10156915E+03</rscale>
<asrwt>0</asrwt>
<pdfrwt beam="2">  1        2 0.15077747E-02 0.10156915E+03</pdfrwt>
<pdfrwt beam="1">  1       -2 0.40485593E-01 0.10156915E+03</pdfrwt>
<totfact> 0.41448896E+04</totfact>
</mgrwt>
</event>
<event>
 5    1  0.1197825E+001  0.9049705E+02  0.7546771E-02  0.1301652E+00
          1   -1    0    0  501    0  0.00000000000E+00  0.00000000000E+00  0.16332650910E+02  0.16332650910E+02  0.00000000000E+00 0. -1.
         -1   -1    0    0    0  501 -0.00000000000E+00 -0.00000000000E+00 -0.12535803126E+03  0.12535803126E+03  0.00000000000E+00 0.  1.
         23    2    1    2    0    0  0.00000000000E+00  0.00000000000E+00 -0.10902538035E+03  0.14169068217E+03  0.90497048866E+02 0.  0.
        -11    1    3    3    0    0  0.26972443186E+02 -0.29365273931E+02 -0.88005257500E+02  0.96616548024E+02  0.00000000000E+00 0.  1.
         11    1    3    3    0    0 -0.26972443186E+02  0.29365273931E+02 -0.21020122851E+02  0.45074134147E+02  0.00000000000E+00 0. -1.
<mgrwt>
<rscale>  0 0.90497049E+02</rscale>
<asrwt>0</asrwt>
<pdfrwt beam="1">  1        1 0.25127154E-02 0.90497049E+02</pdfrwt>
<pdfrwt beam="2">  1       -1 0.19285852E-01 0.90497049E+02</pdfrwt>
<totfact> 0.79343365E+04</totfact>
</mgrwt>
</event>
<event>
 5    1  0.1197825E+001  0.9280892E+02  0.7546771E-02  0.1296189E+00
          1   -1    0    0  501    0  0.00000000000E+00  0.00000000000E+00  0.16909335526E+03  0.16909335526E+03  0.00000000000E+00 0. -1.
         -1   -1    0    0    0  501 -0.00000000000E+00 -0.00000000000E+00 -0.12734822871E+02  0.12734822871E+02  0.00000000000E+00 0.  1.
         23    2    1    2    0    0  0.00000000000E+00  0.00000000000E+00  0.15635853239E+03  0.18182817813E+03  0.92808920430E+02 0.  0.
        -13    1    3    3    0    0 -0.62825453684E+01  0.35849764173E+02  0.13457803213E+03  0.13941277811E+03  0.00000000000E+00 0. -1.
         13    1    3    3    0    0  0.62825453684E+01 -0.35849764173E+02  0.21780500258E+02  0.42415400022E+02  0.00000000000E+00 0.  1.
<mgrwt>
<rscale>  0 0.92808920E+02</rscale>
<asrwt>0</asrwt>
<pdfrwt beam="1">  1        1 0.26014361E-01 0.92808920E+02</pdfrwt>
<pdfrwt beam="2">  1       -1 0.19592036E-02 0.92808920E+02</pdfrwt>
<totfact> 0.10930590E+05</totfact>
</mgrwt>
</event>
<event>
 5    1  0.1197825E+001  0.9084158E+02  0.7546771E-02  0.1300826E+00
          1   -1    0    0  501    0  0.00000000000E+00  0.00000000000E+00  0.39602038165E+03  0.39602038165E+03  0.00000000000E+00 0. -1.
         -1   -1    0    0    0  501 -0.00000000000E+00 -0.00000000000E+00 -0.52094496054E+01  0.52094496054E+01  0.00000000000E+00 0.  1.
         23    2    1    2    0    0  0.00000000000E+00  0.00000000000E+00  0.39081093204E+03  0.40122983125E+03  0.90841581248E+02 0.  0.
        -13    1    3    3    0    0  0.36128141794E+02 -0.25927375244E+02  0.23626435586E+03  0.24041280595E+03  0.00000000000E+00 0. -1.
         13    1    3    3    0    0 -0.36128141794E+02  0.25927375244E+02  0.15454657618E+03  0.16081702530E+03  0.00000000000E+00 0.  1.
<mgrwt>
<rscale>  0 0.90841581E+02</rscale>
<asrwt>0</asrwt>
<pdfrwt beam="1">  1        1 0.60926189E-01 0.90841581E+02</pdfrwt>
<pdfrwt beam="2">  1       -1 0.80145410E-03 0.90841581E+02</pdfrwt>
<totfact> 0.13599340E+05</totfact>
</mgrwt>
</event>
<event>
 5    1  0.1197825E+001  0.9181530E+02  0.7546771E-02  0.1298514E+00
          1   -1    0    0  501    0  0.00000000000E+00  0.00000000000E+00  0.12370428959E+03  0.12370428959E+03  0.00000000000E+00 0. -1.
         -1   -1    0    0    0  501 -0.00000000000E+00 -0.00000000000E+00 -0.17036696168E+02  0.17036696168E+02  0.00000000000E+00 0.  1.
         23    2    1    2    0    0  0.00000000000E+00  0.00000000000E+00  0.10666759342E+03  0.14074098576E+03  0.91815301479E+02 0.  0.
        -13    1    3    3    0    0 -0.36934049942E+02 -0.23789344352E+01  0.11699238717E+02  0.38815661282E+02  0.00000000000E+00 0.  1.
         13    1    3    3    0    0  0.36934049942E+02  0.23789344352E+01  0.94968354706E+02  0.10192532448E+03  0.00000000000E+00 0. -1.
<mgrwt>
<rscale>  0 0.91815301E+02</rscale>
<asrwt>0</asrwt>
<pdfrwt beam="1">  1        1 0.19031429E-01 0.91815301E+02</pdfrwt>
<pdfrwt beam="2">  1       -1 0.26210303E-02 0.91815301E+02</pdfrwt>
<totfact> 0.10628084E+05</totfact>
</mgrwt>
</event>
<event>
 5    1  0.1197825E+001  0.9183783E+02  0.7546771E-02  0.1298461E+00
          3   -1    0    0  501    0  0.00000000000E+00  0.00000000000E+00  0.47479461612E+02  0.47479461612E+02  0.00000000000E+00 0. -1.
         -3   -1    0    0    0  501 -0.00000000000E+00 -0.00000000000E+00 -0.44409664848E+02  0.44409664848E+02  0.00000000000E+00 0.  1.
         23    2    1    2    0    0  0.00000000000E+00  0.00000000000E+00  0.30697967640E+01  0.91889126460E+02  0.91837834847E+02 0.  0.
        -11    1    3    3    0    0 -0.14925331409E+02 -0.15482516757E+01 -0.41887316114E+02  0.44493930509E+02  0.00000000000E+00 0.  1.
         11    1    3    3    0    0  0.14925331409E+02  0.15482516757E+01  0.44957112878E+02  0.47395195951E+02  0.00000000000E+00 0. -1.
<mgrwt>
<rscale>  0 0.91837835E+02</rscale>
<asrwt>0</asrwt>
<pdfrwt beam="1">  1        3 0.73045326E-02 0.91837835E+02</pdfrwt>
<pdfrwt beam="2">  1       -3 0.68322561E-02 0.91837835E+02</pdfrwt>
<totfact> 0.34594717E+04</totfact>
</mgrwt>
</event>
<event>
 5    1  0.1197825E+001  0.8883933E+02  0.7546771E-02  0.1305687E+00
         -3   -1    0    0    0  501 -0.00000000000E+00  0.00000000000E+00  0.40452484943E+03  0.40452484943E+03  0.00000000000E+00 0.  1.
          3   -1    0    0  501    0  0.00000000000E+00 -0.00000000000E+00 -0.48775911376E+01  0.48775911376E+01  0.00000000000E+00 0. -1.
         23    2    1    2    0    0  0.00000000000E+00  0.00000000000E+00  0.39964725829E+03  0.40940244057E+03  0.88839334093E+02 0.  0.
        -13    1    3    3    0    0 -0.21568217793E+02  0.38249510067E+02  0.23070085159E+03  0.23484270473E+03  0.00000000000E+00 0. -1.
         13    1    3    3    0    0  0.21568217793E+02 -0.38249510067E+02  0.16894640670E+03  0.17455973584E+03  0.00000000000E+00 0.  1.
<mgrwt>
<rscale>  0 0.88839334E+02</rscale>
<asrwt>0</asrwt>
<pdfrwt beam="2">  1        3 0.75039896E-03 0.88839334E+02</pdfrwt>
<pdfrwt beam="1">  1       -3 0.62234565E-01 0.88839334E+02</pdfrwt>
<totfact> 0.21776091E+04</totfact>
</mgrwt>
</event>
<event>
 5    1  0.1197825E+001  0.9220535E+02  0.7546771E-02  0.1297597E+00
          4   -1    0    0  501    0  0.00000000000E+00  0.00000000000E+00  0.79305045526E+01  0.79305045526E+01  0.00000000000E+00 0. -1.
         -4   -1    0    0    0  501 -0.00000000000E+00 -0.00000000000E+00 -0.26801023795E+03  0.26801023795E+03  0.00000000000E+00 0.  1.
         23    2    1    2    0    0  0.00000000000E+00  0.00000000000E+00 -0.26007973340E+03  0.27594074251E+03  0.92205345013E+02 0.  0.
        -13    1    3    3    0    0 -0.38792147813E+02  0.12718881948E+02 -0.19414573801E+03  0.19839145213E+03  0.00000000000E+00 0.  1.
         13    1    3    3    0    0  0.38792147813E+02 -0.12718881948E+02 -0.65933995393E+02  0.77549290380E+02  0.00000000000E+00 0. -1.
<mgrwt>
<rscale>  0 0.92205345E+02</rscale>
<asrwt>0</asrwt>
<pdfrwt beam="1">  1        4 0.12200778E-02 0.92205345E+02</pdfrwt>
<pdfrwt beam="2">  1       -4 0.41232340E-01 0.92205345E+02</pdfrwt>
<totfact> 0.18032489E+04</totfact>
</mgrwt>
</event>
<event>
 5    1  0.1197825E+001  0.9115763E+02  0.7546771E-02  0.1300072E+00
         -1   -1    0    0    0  501 -0.00000000000E+00  0.00000000000E+00  0.94792678136E+02  0.94792678136E+02  0.00000000000E+00 0.  1.
          1   -1    0    0  501    0  0.00000000000E+00 -0.00000000000E+00 -0.21915494393E+02  0.21915494393E+02  0.00000000000E+00 0. -1.
         23    2    1    2    0    0  0.00000000000E+00  0.00000000000E+00  0.72877183743E+02  0.11670817253E+03  0.91157630644E+02 0.  0.
        -11    1    3    3    0    0  0.29319955155E+02  0.34780011896E+02  0.32790460798E+02  0.56076049407E+02  0.00000000000E+00 0. -1.
         11    1    3    3    0    0 -0.29319955155E+02 -0.34780011896E+02  0.40086722946E+02  0.60632123122E+02  0.00000000000E+00 0.  1.
<mgrwt>
<rscale>  0 0.91157631E+02</rscale>
<asrwt>0</asrwt>
<pdfrwt beam="2">  1        1 0.33716146E-02 0.91157631E+02</pdfrwt>
<pdfrwt beam="1">  1       -1 0.14583489E-01 0.91157631E+02</pdfrwt>
<totfact> 0.82218368E+04</totfact>
</mgrwt>
</event>
<event>
 5    1  0.1197825E+001  0.9447195E+02  0.7546771E-02  0.1292370E+00
         -1   -1    0    0    0  501 -0.00000000000E+00  0.00000000000E+00  0.12924433231E+03  0.12924433231E+03  0.00000000000E+00 0.  1.
          1   -1    0    0  501    0  0.00000000000E+00 -0.00000000000E+00 -0.17263716898E+02  0.17263716898E+02  0.00000000000E+00 0. -1.
         23    2    1    2    0    0  0.00000000000E+00  0.00000000000E+00  0.11198061541E+03  0.14650804920E+03  0.94471954856E+02 0.  0.
        -13    1    3    3    0    0  0.40385667630E+02 -0.23977721774E+02  0.48189213750E+02  0.67291408168E+02  0.00000000000E+00 0.  1.
         13    1    3    3    0    0 -0.40385667630E+02  0.23977721774E+02  0.63791401659E+02  0.79216641036E+02  0.00000000000E+00 0. -1.
<mgrwt>
<rscale>  0 0.94471955E+02</rscale>
<asrwt>0</asrwt>
<pdfrwt beam="2">  1        1 0.26559565E-02 0.94471955E+02</pdfrwt>
<pdfrwt beam="1">  1       -1 0.19883743E-01 0.94471955E+02</pdfrwt>
<totfact> 0.70520960E+04</totfact>
</mgrwt>
</event>
<event>
 5    1  0.1197825E+001  0.9090233E+02  0.7546771E-02  0.1300681E+00
          3   -1    0    0  501    0  0.00000000000E+00  0.00000000000E+00  0.45653864598E+02  0.45653864598E+02  0.00000000000E+00 0. -1.
         -3   -1    0    0    0  501 -0.00000000000E+00 -0.00000000000E+00 -0.45249368805E+02  0.45249368805E+02  0.00000000000E+00 0.  1.
         23    2    1    2    0    0  0.00000000000E+00  0.00000000000E+00  0.40449579343E+00  0.90903233403E+02  0.90902333448E+02 0.  0.
        -13    1    3    3    0    0  0.13488040877E+02 -0.31385630453E+02 -0.29778434353E+02  0.45318210448E+02  0.00000000000E+00 0.  1.
         13    1    3    3    0    0 -0.13488040877E+02  0.31385630453E+02  0.30182930146E+02  0.45585022956E+02  0.00000000000E+00 0. -1.
<mgrwt>
<rscale>  0 0.90902333E+02</rscale>
<asrwt>0</asrwt>
<pdfrwt beam="1">  1        3 0.70236715E-02 0.90902333E+02</pdfrwt>
<pdfrwt beam="2">  1       -3 0.69614414E-02 0.90902333E+02</pdfrwt>
<totfact> 0.35651315E+04</totfact>
</mgrwt>
</event>
<event>
 5    1  0.1197825E+001  0.9249816E+02  0.7546771E-02  0.1296912E+00
          1   -1    0    0  501    0  0.00000000000E+00  0.00000000000E+00  0.30795873642E+02  0.30795873642E+02  0.00000000000E+00 0. -1.
         -1   -1    0    0    0  501 -0.00000000000E+00 -0.00000000000E+00 -0.69456623792E+02  0.69456623792E+02  0.00000000000E+00 0.  1.
         23    2    1    2    0    0  0.00000000000E+00  0.00000000000E+00 -0.38660750150E+02  0.10025249743E+03  0.92498160196E+02 0.  0.
        -11    1    3    3    0    0 -0.73666228445E+01  0.42735572513E+02 -0.19085963383E+01  0.43407822223E+02  0.00000000000E+00 0. -1.
         11    1    3    3    0    0  0.73666228445E+01 -0.42735572513E+02 -0.36752153812E+02  0.56844675212E+02  0.00000000000E+00 0.  1.
<mgrwt>
<rscale>  0 0.92498160E+02</rscale>
<asrwt>0</asrwt>
<pdfrwt beam="1">  1        1 0.47378268E-02 0.92498160E+02</pdfrwt>
<pdfrwt beam="2">  1       -1 0.10685634E-01 0.92498160E+02</pdfrwt>
<totfact> 0.83524993E+04</totfact>
</mgrwt>
</event>
<event>
 5    1  0.1197825E+001  0.8992214E+02  0.7546771E-02  0.1303040E+00
          1   -1    0    0  501    0  0.00000000000E+00  0.00000000000E+00  0.60531841782E+02  0.60531841782E+02  0.00000000000E+00 0. -1.
         -1   -1    0    0    0  501 -0.00000000000E+00 -0.00000000000E+00 -0.33395608800E+02  0.33395608800E+02  0.00000000000E+00 0.  1.
         23    2    1    2    0    0  0.00000000000E+00  0.00000000000E+00  0.27136232982E+02  0.93927450582E+02  0.89922137610E+02 0.  0.
        -11    1    3    3    0    0 -0.14091838645E+02  0.19583266271E+02  0.53197625733E+02  0.58412940500E+02  0.00000000000E+00 0. -1.
         11    1    3    3    0    0  0.14091838645E+02 -0.19583266271E+02 -0.26061392751E+02  0.35514510082E+02  0.00000000000E+00 0.  1.
<mgrwt>
<rscale>  0 0.89922138E+02</rscale>
<asrwt>0</asrwt>
<pdfrwt beam="1">  1        1 0.93125910E-02 0.89922138E+02</pdfrwt>
<pdfrwt beam="2">  1       -1 0.51377860E-02 0.89922138E+02</pdfrwt>
<totfact> 0.10027309E+05</totfact>
</mgrwt>
</event>
<event>
 5    1  0.1197825E+001  0.7767775E+02  0.7546771E-02  0.1335774E+00
          1   -1    0    0  501    0  0.00000000000E+00  0.00000000000E+00  0.30792915635E+02  0.30792915635E+02  0.00000000000E+00 0.  1.
         -1   -1    0    0    0  501 -0.00000000000E+00 -0.00000000000E+00 -0.48987184696E+02  0.48987184696E+02  0.00000000000E+00 0. -1.
         23    2    1    2    0    0  0.00000000000E+00  0.00000000000E+00 -0.18194269061E+02  0.79780100331E+02  0.77677750883E+02 0.  0.
        -11    1    3    3    0    0 -0.66206180005E+00  0.31277988051E+02 -0.32735418685E+02  0.45280884475E+02  0.00000000000E+00 0.  1.
         11    1    3    3    0    0  0.66206180005E+00 -0.31277988051E+02  0.14541149624E+02  0.34499215856E+02  0.00000000000E+00 0. -1.
<mgrwt>
<rscale>  0 0.77677751E+02</rscale>
<asrwt>0</asrwt>
<pdfrwt beam="1">  1        1 0.47373717E-02 0.77677751E+02</pdfrwt>
<pdfrwt beam="2">  1       -1 0.75364898E-02 0.77677751E+02</pdfrwt>
<totfact> 0.13683308E+05</totfact>
</mgrwt>
</event>
<event>
 5    1  0.1197825E+001  0.9081772E+02  0.7546771E-02  0.1300883E+00
         -1   -1    0    0    0  501 -0.00000000000E+00  0.00000000000E+00  0.21745640120E+02  0.21745640120E+02  0.00000000000E+00 0.  1.
          1   -1    0    0  501    0  0.00000000000E+00 -0.00000000000E+00 -0.94821980722E+02  0.94821980722E+02  0.00000000000E+00 0. -1.
         23    2    1    2    0    0  0.00000000000E+00  0.00000000000E+00 -0.73076340602E+02  0.11656762084E+03  0.90817722242E+02 0.  0.
        -13    1    3    3    0    0  0.37397207285E+02  0.20589858366E+02 -0.16675663804E+02  0.45831988213E+02  0.00000000000E+00 0.  1.
         13    1    3    3    0    0 -0.37397207285E+02 -0.20589858366E+02 -0.56400676798E+02  0.70735632630E+02  0.00000000000E+00 0. -1.
<mgrwt>
<rscale>  0 0.90817722E+02</rscale>
<asrwt>0</asrwt>
<pdfrwt beam="2">  1        1 0.14587997E-01 0.90817722E+02</pdfrwt>
<pdfrwt beam="1">  1       -1 0.33454831E-02 0.90817722E+02</pdfrwt>
<totfact> 0.10465944E+05</totfact>
</mgrwt>
</event>
<event>
 5    1  0.1197825E+001  0.9021336E+02  0.7546771E-02  0.1302336E+00
         -2   -1    0    0    0  501 -0.00000000000E+00  0.00000000000E+00  0.30945915242E+02  0.30945915242E+02  0.00000000000E+00 0.  1.
          2   -1    0    0  501    0  0.00000000000E+00 -0.00000000000E+00 -0.65747366830E+02  0.65747366830E+02  0.00000000000E+00 0. -1.
         23    2    1    2    0    0  0.00000000000E+00  0.00000000000E+00 -0.34801451587E+02  0.96693282072E+02  0.90213356912E+02 0.  0.
        -13    1    3    3    0    0 -0.13411532544E+02  0.42862448960E+02 -0.12910069048E+02  0.46730382182E+02  0.00000000000E+00 0.  1.
         13    1    3    3    0    0  0.13411532544E+02 -0.42862448960E+02 -0.21891382539E+02  0.49962899891E+02  0.00000000000E+00 0. -1.
<mgrwt>
<rscale>  0 0.90213357E+02</rscale>
<asrwt>0</asrwt>
<pdfrwt beam="2">  1        2 0.10114979E-01 0.90213357E+02</pdfrwt>
<pdfrwt beam="1">  1       -2 0.47609100E-02 0.90213357E+02</pdfrwt>
<totfact> 0.11201394E+05</totfact>
</mgrwt>
</event>
<event>
 5    1  0.1197825E+001  0.9216104E+02  0.7546771E-02  0.1297701E+00
         -3   -1    0    0    0  501 -0.00000000000E+00  0.00000000000E+00  0.10660181626E+03  0.10660181626E+03  0.00000000000E+00 0.  1.
          3   -1    0    0  501    0  0.00000000000E+00 -0.00000000000E+00 -0.19919119066E+02  0.19919119066E+02  0.00000000000E+00 0. -1.
         23    2    1    2    0    0  0.00000000000E+00  0.00000000000E+00  0.86682697198E+02  0.12652093533E+03  0.92161038857E+02 0.  0.
        -13    1    3    3    0    0 -0.31523701451E+02 -0.33396247160E+02  0.48543827121E+02  0.66824817464E+02  0.00000000000E+00 0.  1.
         13    1    3    3    0    0  0.31523701451E+02  0.33396247160E+02  0.38138870077E+02  0.59696117866E+02  0.00000000000E+00 0. -1.
<mgrwt>
<rscale>  0 0.92161039E+02</rscale>
<asrwt>0</asrwt>
<pdfrwt beam="2">  1        3 0.30644799E-02 0.92161039E+02</pdfrwt>
<pdfrwt beam="1">  1       -3 0.16400279E-01 0.92161039E+02</pdfrwt>
<totfact> 0.31863441E+04</totfact>
</mgrwt>
</event>
<event>
 5    1  0.1197825E+001  0.9096969E+02  0.7546771E-02  0.1300520E+00
         -1   -1    0    0    0  501 -0.00000000000E+00  0.00000000000E+00  0.63295083493E+02  0.63295083493E+02  0.00000000000E+00 0.  1.
          1   -1    0    0  501    0  0.00000000000E+00 -0.00000000000E+00 -0.32686126052E+02  0.32686126052E+02  0.00000000000E+00 0. -1.
         23    2    1    2    0    0  0.00000000000E+00  0.00000000000E+00  0.30608957441E+02  0.95981209545E+02  0.90969688964E+02 0.  0.
        -13    1    3    3    0    0  0.10794979435E+02 -0.19287922644E+02  0.57247664462E+02  0.61366526928E+02  0.00000000000E+00 0. -1.
         13    1    3    3    0    0 -0.10794979435E+02  0.19287922644E+02 -0.26638707021E+02  0.34614682617E+02  0.00000000000E+00 0.  1.
<mgrwt>
<rscale>  0 0.90969689E+02</rscale>
<asrwt>0</asrwt>
<pdfrwt beam="2">  1        1 0.50286348E-02 0.90969689E+02</pdfrwt>
<pdfrwt beam="1">  1       -1 0.97377051E-02 0.90969689E+02</pdfrwt>
<totfact> 0.88450855E+04</totfact>
</mgrwt>
</event>
<event>
 5    1  0.1197825E+001  0.8692188E+02  0.7546771E-02  0.1310482E+00
          1   -1    0    0  501    0  0.00000000000E+00  0.00000000000E+00  0.18180785075E+02  0.18180785075E+02  0.00000000000E+00 0. -1.
         -1   -1    0    0    0  501 -0.00000000000E+00 -0.00000000000E+00 -0.10389282648E+03  0.10389282648E+03  0.00000000000E+00 0.  1.
         23    2    1    2    0    0  0.00000000000E+00  0.00000000000E+00 -0.85712041407E+02  0.12207361156E+03  0.86921876397E+02 0.  0.
        -13    1    3    3    0    0 -0.18986301464E+02 -0.77802965991E+01  0.10950155841E+02  0.23257656189E+02  0.00000000000E+00 0. -1.
         13    1    3    3    0    0  0.18986301464E+02  0.77802965991E+01 -0.96662197248E+02  0.98815955368E+02  0.00000000000E+00 0.  1.
<mgrwt>
<rscale>  0 0.86921876E+02</rscale>
<asrwt>0</asrwt>
<pdfrwt beam="1">  1        1 0.27970439E-02 0.86921876E+02</pdfrwt>
<pdfrwt beam="2">  1       -1 0.15983512E-01 0.86921876E+02</pdfrwt>
<totfact> 0.91360313E+04</totfact>
</mgrwt>
</event>
<event>
 5    1  0.1197825E+001  0.9710849E+02  0.7546771E-02  0.1286497E+00
          4   -1    0    0  501    0  0.00000000000E+00  0.00000000000E+00  0.76474573143E+01  0.76474573143E+01  0.00000000000E+00 0. -1.
         -4   -1    0    0    0  501 -0.00000000000E+00 -0.00000000000E+00 -0.30827433203E+03  0.30827433203E+03  0.00000000000E+00 0.  1.
         23    2    1    2    0    0  0.00000000000E+00  0.00000000000E+00 -0.30062687472E+03  0.31592178935E+03  0.97108491808E+02 0.  0.
        -13    1    3    3    0    0  0.30982318537E+02  0.33960985315E+02 -0.99468172701E+02  0.10957723288E+03  0.00000000000E+00 0.  1.
         13    1    3    3    0    0 -0.30982318537E+02 -0.33960985315E+02 -0.20115870202E+03  0.20634455646E+03  0.00000000000E+00 0. -1.
<mgrwt>
<rscale>  0 0.97108492E+02</rscale>
<asrwt>0</asrwt>
<pdfrwt beam="1">  1        4 0.11765322E-02 0.97108492E+02</pdfrwt>
<pdfrwt beam="2">  1       -4 0.47426807E-01 0.97108492E+02</pdfrwt>
<totfact> 0.14658124E+04</totfact>
</mgrwt>
</event>
<event>
 5    1  0.1197825E+001  0.9287453E+02  0.7546771E-02  0.1296036E+00
         -1   -1    0    0    0  501 -0.00000000000E+00  0.00000000000E+00  0.20379609233E+02  0.20379609233E+02  0.00000000000E+00 0.  1.
          1   -1    0    0  501    0  0.00000000000E+00 -0.00000000000E+00 -0.10581261371E+03  0.10581261371E+03  0.00000000000E+00 0. -1.
         23    2    1    2    0    0  0.00000000000E+00  0.00000000000E+00 -0.85433004479E+02  0.12619222294E+03  0.92874532985E+02 0.  0.
        -13    1    3    3    0    0 -0.35361147900E+02  0.19172282164E+02 -0.11188126684E+02  0.41751183970E+02  0.00000000000E+00 0.  1.
         13    1    3    3    0    0  0.35361147900E+02 -0.19172282164E+02 -0.74244877795E+02  0.84441038974E+02  0.00000000000E+00 0. -1.
<mgrwt>
<rscale>  0 0.92874533E+02</rscale>
<asrwt>0</asrwt>
<pdfrwt beam="2">  1        1 0.16278864E-01 0.92874533E+02</pdfrwt>
<pdfrwt beam="1">  1       -1 0.31353244E-02 0.92874533E+02</pdfrwt>
<totfact> 0.10027010E+05</totfact>
</mgrwt>
</event>
<event>
 5    1  0.1197825E+001  0.8959565E+02  0.7546771E-02  0.1303834E+00
          2   -1    0    0  501    0  0.00000000000E+00  0.00000000000E+00  0.28453745136E+03  0.28453745136E+03  0.00000000000E+00 0. -1.
         -2   -1    0    0    0  501 -0.00000000000E+00 -0.00000000000E+00 -0.70530090648E+01  0.70530090648E+01  0.00000000000E+00 0.  1.
         23    2    1    2    0    0  0.00000000000E+00  0.00000000000E+00  0.27748444230E+03  0.29159046043E+03  0.89595652210E+02 0.  0.
        -13    1    3    3    0    0  0.26821523174E+02 -0.34608936959E+02  0.10792338317E+03  0.11646728836E+03  0.00000000000E+00 0. -1.
         13    1    3    3    0    0 -0.26821523174E+02  0.34608936959E+02  0.16956105913E+03  0.17512317207E+03  0.00000000000E+00 0.  1.
<mgrwt>
<rscale>  0 0.89595652E+02</rscale>
<asrwt>0</asrwt>
<pdfrwt beam="1">  1        2 0.43774984E-01 0.89595652E+02</pdfrwt>
<pdfrwt beam="2">  1       -2 0.10850785E-02 0.89595652E+02</pdfrwt>
<totfact> 0.18456345E+05</totfact>
</mgrwt>
</event>
<event>
 5    1  0.1197825E+001  0.8801026E+02  0.7546771E-02  0.1307743E+00
         -1   -1    0    0    0  501 -0.00000000000E+00  0.00000000000E+00  0.42331372624E+02  0.42331372624E+02  0.00000000000E+00 0.  1.
          1   -1    0    0  501    0  0.00000000000E+00 -0.00000000000E+00 -0.45745068710E+02  0.45745068710E+02  0.00000000000E+00 0. -1.
         23    2    1    2    0    0  0.00000000000E+00  0.00000000000E+00 -0.34136960859E+01  0.88076441334E+02  0.88010261885E+02 0.  0.
        -11    1    3    3    0    0 -0.13422313782E+02  0.15417983393E+02  0.37291401713E+02  0.42526713497E+02  0.00000000000E+00 0.  1.
         11    1    3    3    0    0  0.13422313782E+02 -0.15417983393E+02 -0.40705097799E+02  0.45549727837E+02  0.00000000000E+00 0. -1.
<mgrwt>
<rscale>  0 0.88010262E+02</rscale>
<asrwt>0</asrwt>
<pdfrwt beam="2">  1        1 0.70377029E-02 0.88010262E+02</pdfrwt>
<pdfrwt beam="1">  1       -1 0.65125188E-02 0.88010262E+02</pdfrwt>
<totfact> 0.10213101E+05</totfact>
</mgrwt>
</event>
<event>
 5    1  0.1197825E+001  0.9019833E+02  0.7546771E-02  0.1302372E+00
          2   -1    0    0  501    0  0.00000000000E+00  0.00000000000E+00  0.21274609497E+02  0.21274609497E+02  0.00000000000E+00 0. -1.
         -2   -1    0    0    0  501 -0.00000000000E+00 -0.00000000000E+00 -0.95603857917E+02  0.95603857917E+02  0.00000000000E+00 0.  1.
         23    2    1    2    0    0  0.00000000000E+00  0.00000000000E+00 -0.74329248420E+02  0.11687846741E+03  0.90198331327E+02 0.  0.
        -11    1    3    3    0    0  0.27630603543E+02  0.26594148369E+02 -0.67917173044E+02  0.77996418981E+02  0.00000000000E+00 0.  1.
         11    1    3    3    0    0 -0.27630603543E+02 -0.26594148369E+02 -0.64120753762E+01  0.38882048432E+02  0.00000000000E+00 0. -1.
<mgrwt>
<rscale>  0 0.90198331E+02</rscale>
<asrwt>0</asrwt>
<pdfrwt beam="1">  1        2 0.32730169E-02 0.90198331E+02</pdfrwt>
<pdfrwt beam="2">  1       -2 0.14708286E-01 0.90198331E+02</pdfrwt>
<totfact> 0.83068777E+04</totfact>
</mgrwt>
</event>
<event>
 5    1  0.1197825E+001  0.9135577E+02  0.7546771E-02  0.1299601E+00
          1   -1    0    0  501    0  0.00000000000E+00  0.00000000000E+00  0.13019302764E+03  0.13019302764E+03  0.00000000000E+00 0. -1.
         -1   -1    0    0    0  501 -0.00000000000E+00 -0.00000000000E+00 -0.16025967230E+02  0.16025967230E+02  0.00000000000E+00 0.  1.
         23    2    1    2    0    0  0.00000000000E+00  0.00000000000E+00  0.11416706041E+03  0.14621899487E+03  0.91355770361E+02 0.  0.
        -11    1    3    3    0    0  0.29350687894E+02  0.19122125478E+02  0.10164069644E+02  0.36475017126E+02  0.00000000000E+00 0.  1.
         11    1    3    3    0    0 -0.29350687894E+02 -0.19122125478E+02  0.10400299077E+03  0.10974397775E+03  0.00000000000E+00 0. -1.
<mgrwt>
<rscale>  0 0.91355770E+02</rscale>
<asrwt>0</asrwt>
<pdfrwt beam="1">  1        1 0.20029696E-01 0.91355770E+02</pdfrwt>
<pdfrwt beam="2">  1       -1 0.24655335E-02 0.91355770E+02</pdfrwt>
<totfact> 0.10871696E+05</totfact>
</mgrwt>
</event>
<event>
 5    1  0.1197825E+001  0.9611223E+02  0.7546771E-02  0.1288691E+00
          1   -1    0    0  501    0  0.00000000000E+00  0.00000000000E+00  0.45767755078E+02  0.45767755078E+02  0.00000000000E+00 0. -1.
         -1   -1    0    0    0  501 -0.00000000000E+00 -0.00000000000E+00 -0.50458895322E+02  0.50458895322E+02  0.00000000000E+00 0.  1.
         23    2    1    2    0    0  0.00000000000E+00  0.00000000000E+00 -0.46911402441E+01  0.96226650399E+02  0.96112233614E+02 0.  0.
        -11    1    3    3    0    0 -0.12463817951E+02 -0.16176418679E+02 -0.45898702054E+02  0.50236581586E+02  0.00000000000E+00 0.  1.
         11    1    3    3    0    0  0.12463817951E+02  0.16176418679E+02  0.41207561810E+02  0.45990068814E+02  0.00000000000E+00 0. -1.
<mgrwt>
<rscale>  0 0.96112234E+02</rscale>
<asrwt>0</asrwt>
<pdfrwt beam="1">  1        1 0.70411931E-02 0.96112234E+02</pdfrwt>
<pdfrwt beam="2">  1       -1 0.77629069E-02 0.96112234E+02</pdfrwt>
<totfact> 0.79741280E+04</totfact>
</mgrwt>
</event>
<event>
 5    1  0.1197825E+001  0.9158243E+02  0.7546771E-02  0.1299064E+00
          2   -1    0    0  501    0  0.00000000000E+00  0.00000000000E+00  0.14070579790E+03  0.14070579790E+03  0.00000000000E+00 0. -1.
         -2   -1    0    0    0  501 -0.00000000000E+00 -0.00000000000E+00 -0.14902266245E+02  0.14902266245E+02  0.00000000000E+00 0.  1.
         23    2    1    2    0    0  0.00000000000E+00  0.00000000000E+00  0.12580353165E+03  0.15560806414E+03  0.91582427625E+02 0.  0.
        -13    1    3    3    0    0  0.26616593069E+02  0.98956761212E+01  0.18647152302E+01  0.28457768630E+02  0.00000000000E+00 0.  1.
         13    1    3    3    0    0 -0.26616593069E+02 -0.98956761212E+01  0.12393881642E+03  0.12715029551E+03  0.00000000000E+00 0. -1.
<mgrwt>
<rscale>  0 0.91582428E+02</rscale>
<asrwt>0</asrwt>
<pdfrwt beam="1">  1        2 0.21647045E-01 0.91582428E+02</pdfrwt>
<pdfrwt beam="2">  1       -2 0.22926564E-02 0.91582428E+02</pdfrwt>
<totfact> 0.13517995E+05</totfact>
</mgrwt>
</event>
<event>
 5    1  0.1197825E+001  0.9064973E+02  0.7546771E-02  0.1301286E+00
         -1   -1    0    0    0  501 -0.00000000000E+00  0.00000000000E+00  0.64295297387E+02  0.64295297387E+02  0.00000000000E+00 0.  1.
          1   -1    0    0  501    0  0.00000000000E+00 -0.00000000000E+00 -0.31951687406E+02  0.31951687406E+02  0.00000000000E+00 0. -1.
         23    2    1    2    0    0  0.00000000000E+00  0.00000000000E+00  0.32343609981E+02  0.96246984793E+02  0.90649726834E+02 0.  0.
        -13    1    3    3    0    0  0.29004797795E+02  0.24201840987E+02 -0.10421400138E+02  0.39186898106E+02  0.00000000000E+00 0. -1.
         13    1    3    3    0    0 -0.29004797795E+02 -0.24201840987E+02  0.42765010119E+02  0.57060086687E+02  0.00000000000E+00 0.  1.
<mgrwt>
<rscale>  0 0.90649727E+02</rscale>
<asrwt>0</asrwt>
<pdfrwt beam="2">  1        1 0.49156442E-02 0.90649727E+02</pdfrwt>
<pdfrwt beam="1">  1       -1 0.98915841E-02 0.90649727E+02</pdfrwt>
<totfact> 0.89025315E+04</totfact>
</mgrwt>
</event>
<event>
 5    1  0.1197825E+001  0.8959264E+02  0.7546771E-02  0.1303841E+00
          4   -1    0    0  501    0  0.00000000000E+00  0.00000000000E+00  0.32324024289E+02  0.32324024289E+02  0.00000000000E+00 0. -1.
         -4   -1    0    0    0  501 -0.00000000000E+00 -0.00000000000E+00 -0.62081083905E+02  0.62081083905E+02  0.00000000000E+00 0.  1.
         23    2    1    2    0    0  0.00000000000E+00  0.00000000000E+00 -0.29757059615E+02  0.94405108194E+02  0.89592643985E+02 0.  0.
        -13    1    3    3    0    0  0.46093216383E+01  0.43649191450E+02 -0.54412959099E+01  0.44227881041E+02  0.00000000000E+00 0. -1.
         13    1    3    3    0    0 -0.46093216383E+01 -0.43649191450E+02 -0.24315763705E+02  0.50177227153E+02  0.00000000000E+00 0.  1.
<mgrwt>
<rscale>  0 0.89592644E+02</rscale>
<asrwt>0</asrwt>
<pdfrwt beam="1">  1        4 0.49729269E-02 0.89592644E+02</pdfrwt>
<pdfrwt beam="2">  1       -4 0.95509359E-02 0.89592644E+02</pdfrwt>
<totfact> 0.28111128E+04</totfact>
</mgrwt>
</event>
<event>
 5    1  0.1197825E+001  0.1001873E+03  0.7546771E-02  0.1279903E+00
          3   -1    0    0  501    0  0.00000000000E+00  0.00000000000E+00  0.45685199245E+02  0.45685199245E+02  0.00000000000E+00 0. -1.
         -3   -1    0    0    0  501 -0.00000000000E+00 -0.00000000000E+00 -0.54927520366E+02  0.54927520366E+02  0.00000000000E+00 0.  1.
         23    2    1    2    0    0  0.00000000000E+00  0.00000000000E+00 -0.92423211212E+01  0.10061271961E+03  0.10018731880E+03 0.  0.
        -11    1    3    3    0    0 -0.69258717787E+01  0.49502675254E+02 -0.13068207399E+01  0.50001903340E+02  0.00000000000E+00 0.  1.
         11    1    3    3    0    0  0.69258717787E+01 -0.49502675254E+02 -0.79355003813E+01  0.50610816270E+02  0.00000000000E+00 0. -1.
<mgrwt>
<rscale>  0 0.10018732E+03</rscale>
<asrwt>0</asrwt>
<pdfrwt beam="1">  1        3 0.70284922E-02 0.10018732E+03</pdfrwt>
<pdfrwt beam="2">  1       -3 0.84503877E-02 0.10018732E+03</pdfrwt>
<totfact> 0.26746457E+04</totfact>
</mgrwt>
</event>
<event>
 5    1  0.1197825E+001  0.9153595E+02  0.7546771E-02  0.1299174E+00
          4   -1    0    0  501    0  0.00000000000E+00  0.00000000000E+00  0.13587528159E+03  0.13587528159E+03  0.00000000000E+00 0. -1.
         -4   -1    0    0    0  501 -0.00000000000E+00 -0.00000000000E+00 -0.15416397493E+02  0.15416397493E+02  0.00000000000E+00 0.  1.
         23    2    1    2    0    0  0.00000000000E+00  0.00000000000E+00  0.12045888409E+03  0.15129167908E+03  0.91535945953E+02 0.  0.
        -11    1    3    3    0    0  0.33705656916E+02 -0.16284420525E+02  0.16705111420E+02  0.40991638264E+02  0.00000000000E+00 0. -1.
         11    1    3    3    0    0 -0.33705656916E+02  0.16284420525E+02  0.10375377267E+03  0.11030004081E+03  0.00000000000E+00 0.  1.
<mgrwt>
<rscale>  0 0.91535946E+02</rscale>
<asrwt>0</asrwt>
<pdfrwt beam="1">  1        4 0.20903889E-01 0.91535946E+02</pdfrwt>
<pdfrwt beam="2">  1       -4 0.23717535E-02 0.91535946E+02</pdfrwt>
<totfact> 0.23359559E+04</totfact>
</mgrwt>
</event>
<event>
 5    1  0.1197825E+001  0.9766436E+02  0.7546771E-02  0.1285286E+00
          2   -1    0    0  501    0  0.00000000000E+00  0.00000000000E+00  0.17249274265E+03  0.17249274265E+03  0.00000000000E+00 0. -1.
         -2   -1    0    0    0  501 -0.00000000000E+00 -0.00000000000E+00 -0.13824244819E+02  0.13824244819E+02  0.00000000000E+00 0.  1.
         23    2    1    2    0    0  0.00000000000E+00  0.00000000000E+00  0.15866849783E+03  0.18631698746E+03  0.97664362053E+02 0.  0.
        -13    1    3    3    0    0 -0.11825128090E+02 -0.47337049052E+02  0.75541738263E+02  0.89928772298E+02  0.00000000000E+00 0.  1.
         13    1    3    3    0    0  0.11825128090E+02  0.47337049052E+02  0.83126759564E+02  0.96388215166E+02  0.00000000000E+00 0. -1.
<mgrwt>
<rscale>  0 0.97664362E+02</rscale>
<asrwt>0</asrwt>
<pdfrwt beam="1">  1        2 0.26537343E-01 0.97664362E+02</pdfrwt>
<pdfrwt beam="2">  1       -2 0.21268070E-02 0.97664362E+02</pdfrwt>
<totfact> 0.12173423E+05</totfact>
</mgrwt>
</event>
<event>
 5    1  0.1197825E+001  0.9076167E+02  0.7546771E-02  0.1301018E+00
         -4   -1    0    0    0  501 -0.00000000000E+00  0.00000000000E+00  0.45361283557E+02  0.45361283557E+02  0.00000000000E+00 0.  1.
          4   -1    0    0  501    0  0.00000000000E+00 -0.00000000000E+00 -0.45400396400E+02  0.45400396400E+02  0.00000000000E+00 0. -1.
         23    2    1    2    0    0  0.00000000000E+00  0.00000000000E+00 -0.39112842162E-01  0.90761679957E+02  0.90761671529E+02 0.  0.
        -11    1    3    3    0    0  0.43089510549E+02 -0.12905553507E+02 -0.60329606775E+01  0.45383431395E+02  0.00000000000E+00 0. -1.
         11    1    3    3    0    0 -0.43089510549E+02  0.12905553507E+02  0.59938478354E+01  0.45378248562E+02  0.00000000000E+00 0.  1.
<mgrwt>
<rscale>  0 0.90761672E+02</rscale>
<asrwt>0</asrwt>
<pdfrwt beam="2">  1        4 0.69846764E-02 0.90761672E+02</pdfrwt>
<pdfrwt beam="1">  1       -4 0.69786590E-02 0.90761672E+02</pdfrwt>
<totfact> 0.27379815E+04</totfact>
</mgrwt>
</event>
<event>
 5    1  0.1197825E+001  0.9102846E+02  0.7546771E-02  0.1300380E+00
         -2   -1    0    0    0  501 -0.00000000000E+00  0.00000000000E+00  0.18211703630E+02  0.18211703630E+02  0.00000000000E+00 0.  1.
          2   -1    0    0  501    0  0.00000000000E+00 -0.00000000000E+00 -0.11374801205E+03  0.11374801205E+03  0.00000000000E+00 0. -1.
         23    2    1    2    0    0  0.00000000000E+00  0.00000000000E+00 -0.95536308422E+02  0.13195971568E+03  0.91028458934E+02 0.  0.
        -11    1    3    3    0    0 -0.35490966305E+02 -0.27695705449E+02 -0.38056093648E+02  0.58948511884E+02  0.00000000000E+00 0. -1.
         11    1    3    3    0    0  0.35490966305E+02  0.27695705449E+02 -0.57480214775E+02  0.73011203799E+02  0.00000000000E+00 0.  1.
<mgrwt>
<rscale>  0 0.91028459E+02</rscale>
<asrwt>0</asrwt>
<pdfrwt beam="2">  1        2 0.17499694E-01 0.91028459E+02</pdfrwt>
<pdfrwt beam="1">  1       -2 0.28018005E-02 0.91028459E+02</pdfrwt>
<totfact> 0.12824556E+05</totfact>
</mgrwt>
</event>
<event>
 5    1  0.1197825E+001  0.8901501E+02  0.7546771E-02  0.1305255E+00
         -1   -1    0    0    0  501 -0.00000000000E+00  0.00000000000E+00  0.24261511436E+02  0.24261511436E+02  0.00000000000E+00 0.  1.
          1   -1    0    0  501    0  0.00000000000E+00 -0.00000000000E+00 -0.81648577522E+02  0.81648577522E+02  0.00000000000E+00 0. -1.
         23    2    1    2    0    0  0.00000000000E+00  0.00000000000E+00 -0.57387066086E+02  0.10591008896E+03  0.89015007662E+02 0.  0.
        -11    1    3    3    0    0  0.34454369122E+02 -0.15155285135E+02 -0.56953024556E+02  0.68267365741E+02  0.00000000000E+00 0. -1.
         11    1    3    3    0    0 -0.34454369122E+02  0.15155285135E+02 -0.43404152963E+00  0.37642723217E+02  0.00000000000E+00 0.  1.
<mgrwt>
<rscale>  0 0.89015008E+02</rscale>
<asrwt>0</asrwt>
<pdfrwt beam="2">  1        1 0.12561320E-01 0.89015008E+02</pdfrwt>
<pdfrwt beam="1">  1       -1 0.37325402E-02 0.89015008E+02</pdfrwt>
<totfact> 0.10792846E+05</totfact>
</mgrwt>
</event>
<event>
 5    1  0.1197825E+001  0.8842870E+02  0.7546771E-02  0.1306702E+00
          2   -1    0    0  501    0  0.00000000000E+00  0.00000000000E+00  0.31589967613E+02  0.31589967613E+02  0.00000000000E+00 0. -1.
         -2   -1    0    0    0  501 -0.00000000000E+00 -0.00000000000E+00 -0.61883843557E+02  0.61883843557E+02  0.00000000000E+00 0.  1.
         23    2    1    2    0    0  0.00000000000E+00  0.00000000000E+00 -0.30293875944E+02  0.93473811170E+02  0.88428697010E+02 0.  0.
        -13    1    3    3    0    0  0.55928090216E+01  0.16890818101E+02 -0.57932508976E+02  0.60603257710E+02  0.00000000000E+00 0.  1.
         13    1    3    3    0    0 -0.55928090216E+01 -0.16890818101E+02  0.27638633032E+02  0.32870553460E+02  0.00000000000E+00 0. -1.
<mgrwt>
<rscale>  0 0.88428697E+02</rscale>
<asrwt>0</asrwt>
<pdfrwt beam="1">  1        2 0.48599951E-02 0.88428697E+02</pdfrwt>
<pdfrwt beam="2">  1       -2 0.95205912E-02 0.88428697E+02</pdfrwt>
<totfact> 0.98134859E+04</totfact>
</mgrwt>
</event>
<event>
 5    1  0.1197825E+001  0.8848292E+02  0.7546771E-02  0.1306568E+00
         -1   -1    0    0    0  501 -0.00000000000E+00  0.00000000000E+00  0.32322635120E+02  0.32322635120E+02  0.00000000000E+00 0.  1.
          1   -1    0    0  501    0  0.00000000000E+00 -0.00000000000E+00 -0.60555293401E+02  0.60555293401E+02  0.00000000000E+00 0. -1.
         23    2    1    2    0    0  0.00000000000E+00  0.00000000000E+00 -0.28232658280E+02  0.92877928521E+02  0.88482917067E+02 0.  0.
        -11    1    3    3    0    0 -0.35042241819E+02  0.26961247882E+02 -0.12477008880E+02  0.45940650297E+02  0.00000000000E+00 0. -1.
         11    1    3    3    0    0  0.35042241819E+02 -0.26961247882E+02 -0.15755649400E+02  0.46937278224E+02  0.00000000000E+00 0.  1.
<mgrwt>
<rscale>  0 0.88482917E+02</rscale>
<asrwt>0</asrwt>
<pdfrwt beam="2">  1        1 0.93161989E-02 0.88482917E+02</pdfrwt>
<pdfrwt beam="1">  1       -1 0.49727132E-02 0.88482917E+02</pdfrwt>
<totfact> 0.10484753E+05</totfact>
</mgrwt>
</event>
<event>
 5    1  0.1197825E+001  0.9077270E+02  0.7546771E-02  0.1300991E+00
          1   -1    0    0  501    0  0.00000000000E+00  0.00000000000E+00  0.27830940052E+02  0.27830940052E+02  0.00000000000E+00 0. -1.
         -1   -1    0    0    0  501 -0.00000000000E+00 -0.00000000000E+00 -0.74015488722E+02  0.74015488722E+02  0.00000000000E+00 0.  1.
         23    2    1    2    0    0  0.00000000000E+00  0.00000000000E+00 -0.46184548670E+02  0.10184642877E+03  0.90772696987E+02 0.  0.
        -13    1    3    3    0    0  0.28929677782E+02 -0.80366100052E+01 -0.61279772235E+02  0.68240192278E+02  0.00000000000E+00 0.  1.
         13    1    3    3    0    0 -0.28929677782E+02  0.80366100052E+01  0.15095223565E+02  0.33606236496E+02  0.00000000000E+00 0. -1.
<mgrwt>
<rscale>  0 0.90772697E+02</rscale>
<asrwt>0</asrwt>
<pdfrwt beam="1">  1        1 0.42816832E-02 0.90772697E+02</pdfrwt>
<pdfrwt beam="2">  1       -1 0.11386998E-01 0.90772697E+02</pdfrwt>
<totfact> 0.86733621E+04</totfact>
</mgrwt>
</event>
<event>
 5    1  0.1197825E+001  0.9078205E+02  0.7546771E-02  0.1300969E+00
          1   -1    0    0  501    0  0.00000000000E+00  0.00000000000E+00  0.27792012808E+03  0.27792012808E+03  0.00000000000E+00 0. -1.
         -1   -1    0    0    0  501 -0.00000000000E+00 -0.00000000000E+00 -0.74134434188E+01  0.74134434188E+01  0.00000000000E+00 0.  1.
         23    2    1    2    0    0  0.00000000000E+00  0.00000000000E+00  0.27050668467E+03  0.28533357150E+03  0.90782049866E+02 0.  0.
        -13    1    3    3    0    0 -0.27723657992E+02  0.34679736979E+02  0.10559180307E+03  0.11454655929E+03  0.00000000000E+00 0.  1.
         13    1    3    3    0    0  0.27723657992E+02 -0.34679736979E+02  0.16491488159E+03  0.17078701221E+03  0.00000000000E+00 0. -1.
<mgrwt>
<rscale>  0 0.90782050E+02</rscale>
<asrwt>0</asrwt>
<pdfrwt beam="1">  1        1 0.42756935E-01 0.90782050E+02</pdfrwt>
<pdfrwt beam="2">  1       -1 0.11405300E-02 0.90782050E+02</pdfrwt>
<totfact> 0.12771957E+05</totfact>
</mgrwt>
</event>
<event>
 5    1  0.1197825E+001  0.9690646E+02  0.7546771E-02  0.1286939E+00
          2   -1    0    0  501    0  0.00000000000E+00  0.00000000000E+00  0.64399097540E+02  0.64399097540E+02  0.00000000000E+00 0. -1.
         -2   -1    0    0    0  501 -0.00000000000E+00 -0.00000000000E+00 -0.36455718192E+02  0.36455718192E+02  0.00000000000E+00 0.  1.
         23    2    1    2    0    0  0.00000000000E+00  0.00000000000E+00  0.27943379348E+02  0.10085481573E+03  0.96906456994E+02 0.  0.
        -13    1    3    3    0    0 -0.38453292543E+02  0.28708709349E+02  0.70002852971E+01  0.48495872960E+02  0.00000000000E+00 0.  1.
         13    1    3    3    0    0  0.38453292543E+02 -0.28708709349E+02  0.20943094051E+02  0.52358942773E+02  0.00000000000E+00 0. -1.
<mgrwt>
<rscale>  0 0.96906457E+02</rscale>
<asrwt>0</asrwt>
<pdfrwt beam="1">  1        2 0.99075535E-02 0.96906457E+02</pdfrwt>
<pdfrwt beam="2">  1       -2 0.56085720E-02 0.96906457E+02</pdfrwt>
<totfact> 0.91003737E+04</totfact>
</mgrwt>
</event>
<event>
 5    1  0.1197825E+001  0.9299118E+02  0.7546771E-02  0.1295766E+00
         -3   -1    0    0    0  501 -0.00000000000E+00  0.00000000000E+00  0.34526668174E+02  0.34526668174E+02  0.00000000000E+00 0.  1.
          3   -1    0    0  501    0  0.00000000000E+00 -0.00000000000E+00 -0.62613621701E+02  0.62613621701E+02  0.00000000000E+00 0. -1.
         23    2    1    2    0    0  0.00000000000E+00  0.00000000000E+00 -0.28086953527E+02  0.97140289875E+02  0.92991176778E+02 0.  0.
        -11    1    3    3    0    0 -0.98235580062E+01  0.20688346122E+02 -0.56312842607E+02  0.60791826751E+02  0.00000000000E+00 0. -1.
         11    1    3    3    0    0  0.98235580062E+01 -0.20688346122E+02  0.28225889080E+02  0.36348463125E+02  0.00000000000E+00 0.  1.
<mgrwt>
<rscale>  0 0.92991177E+02</rscale>
<asrwt>0</asrwt>
<pdfrwt beam="2">  1        3 0.96328648E-02 0.92991177E+02</pdfrwt>
<pdfrwt beam="1">  1       -3 0.53117951E-02 0.92991177E+02</pdfrwt>
<totfact> 0.33057726E+04</totfact>
</mgrwt>
</event>
<event>
 5    1  0.1197825E+001  0.9154539E+02  0.7546771E-02  0.1299152E+00
          1   -1    0    0  501    0  0.00000000000E+00  0.00000000000E+00  0.10341601709E+02  0.10341601709E+02  0.00000000000E+00 0. -1.
         -1   -1    0    0    0  501 -0.00000000000E+00 -0.00000000000E+00 -0.20259335470E+03  0.20259335470E+03  0.00000000000E+00 0.  1.
         23    2    1    2    0    0  0.00000000000E+00  0.00000000000E+00 -0.19225175299E+03  0.21293495641E+03  0.91545393837E+02 0.  0.
        -11    1    3    3    0    0 -0.41537098985E+02 -0.17527465537E+02 -0.77722914825E+02  0.89852068029E+02  0.00000000000E+00 0.  1.
         11    1    3    3    0    0  0.41537098985E+02  0.17527465537E+02 -0.11452883817E+03  0.12308288838E+03  0.00000000000E+00 0. -1.
<mgrwt>
<rscale>  0 0.91545394E+02</rscale>
<asrwt>0</asrwt>
<pdfrwt beam="1">  1        1 0.15910158E-02 0.91545394E+02</pdfrwt>
<pdfrwt beam="2">  1       -1 0.31168206E-01 0.91545394E+02</pdfrwt>
<totfact> 0.68444002E+04</totfact>
</mgrwt>
</event>
<event>
 5    1  0.1197825E+001  0.9066912E+02  0.7546771E-02  0.1301239E+00
         -1   -1    0    0    0  501 -0.00000000000E+00  0.00000000000E+00  0.64245485146E+01  0.64245485146E+01  0.00000000000E+00 0.  1.
          1   -1    0    0  501    0  0.00000000000E+00 -0.00000000000E+00 -0.31990145449E+03  0.31990145449E+03  0.00000000000E+00 0. -1.
         23    2    1    2    0    0  0.00000000000E+00  0.00000000000E+00 -0.31347690598E+03  0.32632600301E+03  0.90669121850E+02 0.  0.
        -13    1    3    3    0    0 -0.15592743856E+02  0.42552401828E+02 -0.16096925819E+03  0.16722721861E+03  0.00000000000E+00 0.  1.
         13    1    3    3    0    0  0.15592743856E+02 -0.42552401828E+02 -0.15250764778E+03  0.15909878439E+03  0.00000000000E+00 0. -1.
<mgrwt>
<rscale>  0 0.90669122E+02</rscale>
<asrwt>0</asrwt>
<pdfrwt beam="2">  1        1 0.49215616E-01 0.90669122E+02</pdfrwt>
<pdfrwt beam="1">  1       -1 0.98839192E-03 0.90669122E+02</pdfrwt>
<totfact> 0.13162519E+05</totfact>
</mgrwt>
</event>
<event>
 5    1  0.1197825E+001  0.8838911E+02  0.7546771E-02  0.1306800E+00
         -2   -1    0    0    0  501 -0.00000000000E+00  0.00000000000E+00  0.19711077083E+02  0.19711077083E+02  0.00000000000E+00 0.  1.
          2   -1    0    0  501    0  0.00000000000E+00 -0.00000000000E+00 -0.99089386131E+02  0.99089386131E+02  0.00000000000E+00 0. -1.
         23    2    1    2    0    0  0.00000000000E+00  0.00000000000E+00 -0.79378309048E+02  0.11880046321E+03  0.88389106299E+02 0.  0.
        -11    1    3    3    0    0  0.21606948371E+02 -0.37546933769E+02 -0.51446901495E+02  0.67256346369E+02  0.00000000000E+00 0. -1.
         11    1    3    3    0    0 -0.21606948371E+02  0.37546933769E+02 -0.27931407553E+02  0.51544116844E+02  0.00000000000E+00 0.  1.
<mgrwt>
<rscale>  0 0.88389106E+02</rscale>
<asrwt>0</asrwt>
<pdfrwt beam="2">  1        2 0.15244521E-01 0.88389106E+02</pdfrwt>
<pdfrwt beam="1">  1       -2 0.30324733E-02 0.88389106E+02</pdfrwt>
<totfact> 0.13322255E+05</totfact>
</mgrwt>
</event>
<event>
 5    1  0.1197825E+001  0.9183989E+02  0.7546771E-02  0.1298456E+00
         -1   -1    0    0    0  501 -0.00000000000E+00  0.00000000000E+00  0.32631826083E+03  0.32631826083E+03  0.00000000000E+00 0.  1.
          1   -1    0    0  501    0  0.00000000000E+00 -0.00000000000E+00 -0.64619171353E+01  0.64619171353E+01  0.00000000000E+00 0. -1.
         23    2    1    2    0    0  0.00000000000E+00  0.00000000000E+00  0.31985634369E+03  0.33278017796E+03  0.91839894625E+02 0.  0.
        -13    1    3    3    0    0 -0.39909461319E+02 -0.21178594620E+02  0.18966360023E+03  0.19497071377E+03  0.00000000000E+00 0.  1.
         13    1    3    3    0    0  0.39909461319E+02  0.21178594620E+02  0.13019274346E+03  0.13780946420E+03  0.00000000000E+00 0. -1.
<mgrwt>
<rscale>  0 0.91839895E+02</rscale>
<asrwt>0</asrwt>
<pdfrwt beam="2">  1        1 0.99414135E-03 0.91839895E+02</pdfrwt>
<pdfrwt beam="1">  1       -1 0.50202796E-01 0.91839895E+02</pdfrwt>
<totfact> 0.57443711E+04</totfact>
</mgrwt>
</event>
<event>
 5    1  0.1197825E+001  0.8940638E+02  0.7546771E-02  0.1304296E+00
          2   -1    0    0  501    0  0.00000000000E+00  0.00000000000E+00  0.73634917782E+02  0.73634917782E+02  0.00000000000E+00 0. -1.
         -2   -1    0    0    0  501 -0.00000000000E+00 -0.00000000000E+00 -0.27138963204E+02  0.27138963204E+02  0.00000000000E+00 0.  1.
         23    2    1    2    0    0  0.00000000000E+00  0.00000000000E+00  0.46495954578E+02  0.10077388099E+03  0.89406382865E+02 0.  0.
        -11    1    3    3    0    0  0.20321850073E+02  0.57257288277E+01  0.67661086254E+02  0.70878657959E+02  0.00000000000E+00 0. -1.
         11    1    3    3    0    0 -0.20321850073E+02 -0.57257288277E+01 -0.21165131676E+02  0.29895223028E+02  0.00000000000E+00 0.  1.
<mgrwt>
<rscale>  0 0.89406383E+02</rscale>
<asrwt>0</asrwt>
<pdfrwt beam="1">  1        2 0.11328449E-01 0.89406383E+02</pdfrwt>
<pdfrwt beam="2">  1       -2 0.41752251E-02 0.89406383E+02</pdfrwt>
<totfact> 0.11848553E+05</totfact>
</mgrwt>
</event>
<event>
 5    1  0.1197825E+001  0.9112408E+02  0.7546771E-02  0.1300152E+00
          1   -1    0    0  501    0  0.00000000000E+00  0.00000000000E+00  0.84101871093E+01  0.84101871093E+01  0.00000000000E+00 0. -1.
         -1   -1    0    0    0  501 -0.00000000000E+00 -0.00000000000E+00 -0.24683156388E+03  0.24683156388E+03  0.00000000000E+00 0.  1.
         23    2    1    2    0    0  0.00000000000E+00  0.00000000000E+00 -0.23842137677E+03  0.25524175099E+03  0.91124083242E+02 0.  0.
        -13    1    3    3    0    0 -0.27740655091E+01 -0.45216845511E+02 -0.10559146972E+03  0.11489916029E+03  0.00000000000E+00 0. -1.
         13    1    3    3    0    0  0.27740655091E+01  0.45216845511E+02 -0.13282990705E+03  0.14034259070E+03  0.00000000000E+00 0.  1.
<mgrwt>
<rscale>  0 0.91124083E+02</rscale>
<asrwt>0</asrwt>
<pdfrwt beam="1">  1        1 0.12938751E-02 0.91124083E+02</pdfrwt>
<pdfrwt beam="2">  1       -1 0.37974083E-01 0.91124083E+02</pdfrwt>
<totfact> 0.65142541E+04</totfact>
</mgrwt>
</event>
<event>
 5    1  0.1197825E+001  0.9153982E+02  0.7546771E-02  0.1299165E+00
          2   -1    0    0  501    0  0.00000000000E+00  0.00000000000E+00  0.14406271526E+02  0.14406271526E+02  0.00000000000E+00 0. -1.
         -2   -1    0    0    0  501 -0.00000000000E+00 -0.00000000000E+00 -0.14541477928E+03  0.14541477928E+03  0.00000000000E+00 0.  1.
         23    2    1    2    0    0  0.00000000000E+00  0.00000000000E+00 -0.13100850775E+03  0.15982105081E+03  0.91539822902E+02 0.  0.
        -13    1    3    3    0    0 -0.45655666138E+02 -0.24553511015E+01 -0.61835251259E+02  0.76902970669E+02  0.00000000000E+00 0.  1.
         13    1    3    3    0    0  0.45655666138E+02  0.24553511015E+01 -0.69173256494E+02  0.82918080136E+02  0.00000000000E+00 0. -1.
<mgrwt>
<rscale>  0 0.91539823E+02</rscale>
<asrwt>0</asrwt>
<pdfrwt beam="1">  1        2 0.22163494E-02 0.91539823E+02</pdfrwt>
<pdfrwt beam="2">  1       -2 0.22371505E-01 0.91539823E+02</pdfrwt>
<totfact> 0.69936812E+04</totfact>
</mgrwt>
</event>
<event>
 5    1  0.1197825E+001  0.9224674E+02  0.7546771E-02  0.1297500E+00
          1   -1    0    0  501    0  0.00000000000E+00  0.00000000000E+00  0.24603737819E+03  0.24603737819E+03  0.00000000000E+00 0. -1.
         -1   -1    0    0    0  501 -0.00000000000E+00 -0.00000000000E+00 -0.86465130407E+01  0.86465130407E+01  0.00000000000E+00 0.  1.
         23    2    1    2    0    0  0.00000000000E+00  0.00000000000E+00  0.23739086515E+03  0.25468389123E+03  0.92246743010E+02 0.  0.
        -11    1    3    3    0    0  0.32509018829E+02  0.17730485365E+02  0.42775293819E+02  0.56576781261E+02  0.00000000000E+00 0.  1.
         11    1    3    3    0    0 -0.32509018829E+02 -0.17730485365E+02  0.19461557133E+03  0.19810710997E+03  0.00000000000E+00 0. -1.
<mgrwt>
<rscale>  0 0.92246743E+02</rscale>
<asrwt>0</asrwt>
<pdfrwt beam="1">  1        1 0.37851899E-01 0.92246743E+02</pdfrwt>
<pdfrwt beam="2">  1       -1 0.13302330E-02 0.92246743E+02</pdfrwt>
<totfact> 0.11949677E+05</totfact>
</mgrwt>
</event>
<event>
 5    1  0.1197825E+001  0.9169827E+02  0.7546771E-02  0.1298790E+00
         -2   -1    0    0    0  501 -0.00000000000E+00  0.00000000000E+00  0.81315031877E+02  0.81315031877E+02  0.00000000000E+00 0.  1.
          2   -1    0    0  501    0  0.00000000000E+00 -0.00000000000E+00 -0.25851838544E+02  0.25851838544E+02  0.00000000000E+00 0. -1.
         23    2    1    2    0    0  0.00000000000E+00  0.00000000000E+00  0.55463193333E+02  0.10716687042E+03  0.91698267710E+02 0.  0.
        -13    1    3    3    0    0 -0.18784691064E+02 -0.15297351138E+02  0.73224573770E+02  0.77127892322E+02  0.00000000000E+00 0.  1.
         13    1    3    3    0    0  0.18784691064E+02  0.15297351138E+02 -0.17761380437E+02  0.30038978099E+02  0.00000000000E+00 0. -1.
<mgrwt>
<rscale>  0 0.91698268E+02</rscale>
<asrwt>0</asrwt>
<pdfrwt beam="2">  1        2 0.39772060E-02 0.91698268E+02</pdfrwt>
<pdfrwt beam="1">  1       -2 0.12510005E-01 0.91698268E+02</pdfrwt>
<totfact> 0.83514893E+04</totfact>
</mgrwt>
</event>
<event>
 5    1  0.1197825E+001  0.9136100E+02  0.7546771E-02  0.1299589E+00
         -1   -1    0    0    0  501 -0.00000000000E+00  0.00000000000E+00  0.11058939999E+02  0.11058939999E+02  0.00000000000E+00 0.  1.
          1   -1    0    0  501    0  0.00000000000E+00 -0.00000000000E+00 -0.18868969719E+03  0.18868969719E+03  0.00000000000E+00 0. -1.
         23    2    1    2    0    0  0.00000000000E+00  0.00000000000E+00 -0.17763075719E+03  0.19974863719E+03  0.91360999109E+02 0.  0.
        -11    1    3    3    0    0  0.11098434663E+02 -0.32447389685E+02 -0.15479511544E+03  0.15854821385E+03  0.00000000000E+00 0. -1.
         11    1    3    3    0    0 -0.11098434663E+02  0.32447389685E+02 -0.22835641748E+02  0.41200423340E+02  0.00000000000E+00 0.  1.
<mgrwt>
<rscale>  0 0.91360999E+02</rscale>
<asrwt>0</asrwt>
<pdfrwt beam="2">  1        1 0.29029185E-01 0.91360999E+02</pdfrwt>
<pdfrwt beam="1">  1       -1 0.17013753E-02 0.91360999E+02</pdfrwt>
<totfact> 0.11644791E+05</totfact>
</mgrwt>
</event>
<event>
 5    1  0.1197825E+001  0.9076956E+02  0.7546771E-02  0.1300999E+00
         -2   -1    0    0    0  501 -0.00000000000E+00  0.00000000000E+00  0.18291301878E+02  0.18291301878E+02  0.00000000000E+00 0.  1.
          2   -1    0    0  501    0  0.00000000000E+00 -0.00000000000E+00 -0.11260970189E+03  0.11260970189E+03  0.00000000000E+00 0. -1.
         23    2    1    2    0    0  0.00000000000E+00  0.00000000000E+00 -0.94318400016E+02  0.13090100377E+03  0.90769555508E+02 0.  0.
        -11    1    3    3    0    0 -0.42891217608E+02  0.14574931127E+02 -0.43159315682E+02  0.62568456073E+02  0.00000000000E+00 0.  1.
         11    1    3    3    0    0  0.42891217608E+02 -0.14574931127E+02 -0.51159084334E+02  0.68332547699E+02  0.00000000000E+00 0. -1.
<mgrwt>
<rscale>  0 0.90769556E+02</rscale>
<asrwt>0</asrwt>
<pdfrwt beam="2">  1        2 0.17324569E-01 0.90769556E+02</pdfrwt>
<pdfrwt beam="1">  1       -2 0.28140465E-02 0.90769556E+02</pdfrwt>
<totfact> 0.12884032E+05</totfact>
</mgrwt>
</event>
<event>
 5    1  0.1197825E+001  0.9101455E+02  0.7546771E-02  0.1300413E+00
          1   -1    0    0  501    0  0.00000000000E+00  0.00000000000E+00  0.43103762585E+01  0.43103762585E+01  0.00000000000E+00 0. -1.
         -1   -1    0    0    0  501 -0.00000000000E+00 -0.00000000000E+00 -0.48044805389E+03  0.48044805389E+03  0.00000000000E+00 0.  1.
         23    2    1    2    0    0  0.00000000000E+00  0.00000000000E+00 -0.47613767763E+03  0.48475843014E+03  0.91014545759E+02 0.  0.
        -11    1    3    3    0    0  0.27273765444E+01 -0.45213814543E+02 -0.26139736370E+03  0.26529287468E+03  0.00000000000E+00 0. -1.
         11    1    3    3    0    0 -0.27273765444E+01  0.45213814543E+02 -0.21474031393E+03  0.21946555546E+03  0.00000000000E+00 0.  1.
<mgrwt>
<rscale>  0 0.91014546E+02</rscale>
<asrwt>0</asrwt>
<pdfrwt beam="1">  1        1 0.66313523E-03 0.91014546E+02</pdfrwt>
<pdfrwt beam="2">  1       -1 0.73915038E-01 0.91014546E+02</pdfrwt>
<totfact> 0.48419009E+04</totfact>
</mgrwt>
</event>
<event>
 5    1  0.1197825E+001  0.8634112E+02  0.7546771E-02  0.1311962E+00
          1   -1    0    0  501    0  0.00000000000E+00  0.00000000000E+00  0.98934967836E+02  0.98934967836E+02  0.00000000000E+00 0. -1.
         -1   -1    0    0    0  501 -0.00000000000E+00 -0.00000000000E+00 -0.18837599206E+02  0.18837599206E+02  0.00000000000E+00 0.  1.
         23    2    1    2    0    0  0.00000000000E+00  0.00000000000E+00  0.80097368630E+02  0.11777256704E+03  0.86341120483E+02 0.  0.
        -13    1    3    3    0    0  0.11585757328E+02  0.33132366525E+02  0.57650670042E+01  0.35569923840E+02  0.00000000000E+00 0.  1.
         13    1    3    3    0    0 -0.11585757328E+02 -0.33132366525E+02  0.74332301625E+02  0.82202643202E+02  0.00000000000E+00 0. -1.
<mgrwt>
<rscale>  0 0.86341120E+02</rscale>
<asrwt>0</asrwt>
<pdfrwt beam="1">  1        1 0.15220764E-01 0.86341120E+02</pdfrwt>
<pdfrwt beam="2">  1       -1 0.28980922E-02 0.86341120E+02</pdfrwt>
<totfact> 0.12089360E+05</totfact>
</mgrwt>
</event>
<event>
 5    1  0.1197825E+001  0.8672007E+02  0.7546771E-02  0.1310995E+00
         -4   -1    0    0    0  501 -0.00000000000E+00  0.00000000000E+00  0.24409997674E+02  0.24409997674E+02  0.00000000000E+00 0.  1.
          4   -1    0    0  501    0  0.00000000000E+00 -0.00000000000E+00 -0.77021415189E+02  0.77021415189E+02  0.00000000000E+00 0. -1.
         23    2    1    2    0    0  0.00000000000E+00  0.00000000000E+00 -0.52611417515E+02  0.10143141286E+03  0.86720068395E+02 0.  0.
        -11    1    3    3    0    0  0.15979365516E+02  0.31686995856E+02 -0.55445678459E+02  0.65830305243E+02  0.00000000000E+00 0. -1.
         11    1    3    3    0    0 -0.15979365516E+02 -0.31686995856E+02  0.28342609436E+01  0.35601107620E+02  0.00000000000E+00 0.  1.
<mgrwt>
<rscale>  0 0.86720068E+02</rscale>
<asrwt>0</asrwt>
<pdfrwt beam="2">  1        4 0.11849448E-01 0.86720068E+02</pdfrwt>
<pdfrwt beam="1">  1       -4 0.37553844E-02 0.86720068E+02</pdfrwt>
<totfact> 0.30183584E+04</totfact>
</mgrwt>
</event>
<event>
 5    1  0.1197825E+001  0.9275648E+02  0.7546771E-02  0.1296311E+00
         -1   -1    0    0    0  501 -0.00000000000E+00  0.00000000000E+00  0.18665178320E+02  0.18665178320E+02  0.00000000000E+00 0.  1.
          1   -1    0    0  501    0  0.00000000000E+00 -0.00000000000E+00 -0.11523817560E+03  0.11523817560E+03  0.00000000000E+00 0. -1.
         23    2    1    2    0    0  0.00000000000E+00  0.00000000000E+00 -0.96572997277E+02  0.13390335392E+03  0.92756478950E+02 0.  0.
        -13    1    3    3    0    0 -0.96396717427E-01 -0.39795909114E+02 -0.82667773917E+02  0.91747940134E+02  0.00000000000E+00 0.  1.
         13    1    3    3    0    0  0.96396717427E-01  0.39795909114E+02 -0.13905223361E+02  0.42155413783E+02  0.00000000000E+00 0. -1.
<mgrwt>
<rscale>  0 0.92756479E+02</rscale>
<asrwt>0</asrwt>
<pdfrwt beam="2">  1        1 0.17728950E-01 0.92756479E+02</pdfrwt>
<pdfrwt beam="1">  1       -1 0.28715659E-02 0.92756479E+02</pdfrwt>
<totfact> 0.10210329E+05</totfact>
</mgrwt>
</event>
<event>
 5    1  0.1197825E+001  0.9041285E+02  0.7546771E-02  0.1301855E+00
          2   -1    0    0  501    0  0.00000000000E+00  0.00000000000E+00  0.86883542296E+02  0.86883542296E+02  0.00000000000E+00 0. -1.
         -2   -1    0    0    0  501 -0.00000000000E+00 -0.00000000000E+00 -0.23521380894E+02  0.23521380894E+02  0.00000000000E+00 0.  1.
         23    2    1    2    0    0  0.00000000000E+00  0.00000000000E+00  0.63362161402E+02  0.11040492319E+03  0.90412850674E+02 0.  0.
        -13    1    3    3    0    0 -0.21086485206E+02  0.39983656866E+02  0.31025512142E+02  0.54826226191E+02  0.00000000000E+00 0.  1.
         13    1    3    3    0    0  0.21086485206E+02 -0.39983656866E+02  0.32336649259E+02  0.55578696998E+02  0.00000000000E+00 0. -1.
<mgrwt>
<rscale>  0 0.90412851E+02</rscale>
<asrwt>0</asrwt>
<pdfrwt beam="1">  1        2 0.13366699E-01 0.90412851E+02</pdfrwt>
<pdfrwt beam="2">  1       -2 0.36186740E-02 0.90412851E+02</pdfrwt>
<totfact> 0.12040161E+05</totfact>
</mgrwt>
</event>
<event>
 5    1  0.1197825E+001  0.9066616E+02  0.7546771E-02  0.1301246E+00
          2   -1    0    0  501    0  0.00000000000E+00  0.00000000000E+00  0.22201551863E+03  0.22201551863E+03  0.00000000000E+00 0. -1.
         -2   -1    0    0    0  501 -0.00000000000E+00 -0.00000000000E+00 -0.92565066581E+01  0.92565066581E+01  0.00000000000E+00 0.  1.
         23    2    1    2    0    0  0.00000000000E+00  0.00000000000E+00  0.21275901197E+03  0.23127202529E+03  0.90666159650E+02 0.  0.
        -11    1    3    3    0    0  0.38536261398E+02 -0.13264911310E+02  0.15701718990E+03  0.16222021835E+03  0.00000000000E+00 0. -1.
         11    1    3    3    0    0 -0.38536261398E+02  0.13264911310E+02  0.55741822067E+02  0.69051806942E+02  0.00000000000E+00 0.  1.
<mgrwt>
<rscale>  0 0.90666160E+02</rscale>
<asrwt>0</asrwt>
<pdfrwt beam="1">  1        2 0.34156230E-01 0.90666160E+02</pdfrwt>
<pdfrwt beam="2">  1       -2 0.14240781E-02 0.90666160E+02</pdfrwt>
<totfact> 0.16311655E+05</totfact>
</mgrwt>
</event>
<event>
 5    1  0.1197825E+001  0.9082672E+02  0.7546771E-02  0.1300862E+00
         -1   -1    0    0    0  501 -0.00000000000E+00  0.00000000000E+00  0.89693459039E+02  0.89693459039E+02  0.00000000000E+00 0.  1.
          1   -1    0    0  501    0  0.00000000000E+00 -0.00000000000E+00 -0.22993575497E+02  0.22993575497E+02  0.00000000000E+00 0. -1.
         23    2    1    2    0    0  0.00000000000E+00  0.00000000000E+00  0.66699883542E+02  0.11268703454E+03  0.90826721223E+02 0.  0.
        -13    1    3    3    0    0  0.17377800760E+02 -0.29352844952E+02 -0.38455961720E+01  0.34327337153E+02  0.00000000000E+00 0. -1.
         13    1    3    3    0    0 -0.17377800760E+02  0.29352844952E+02  0.70545479714E+02  0.78359697384E+02  0.00000000000E+00 0.  1.
<mgrwt>
<rscale>  0 0.90826721E+02</rscale>
<asrwt>0</asrwt>
<pdfrwt beam="2">  1        1 0.35374732E-02 0.90826721E+02</pdfrwt>
<pdfrwt beam="1">  1       -1 0.13798994E-01 0.90826721E+02</pdfrwt>
<totfact> 0.83816126E+04</totfact>
</mgrwt>
</event>
<event>
 5    1  0.1197825E+001  0.9931021E+02  0.7546771E-02  0.1281753E+00
          2   -1    0    0  501    0  0.00000000000E+00  0.00000000000E+00  0.28907940289E+03  0.28907940289E+03  0.00000000000E+00 0. -1.
         -2   -1    0    0    0  501 -0.00000000000E+00 -0.00000000000E+00 -0.85292470282E+01  0.85292470282E+01  0.00000000000E+00 0.  1.
         23    2    1    2    0    0  0.00000000000E+00  0.00000000000E+00  0.28055015587E+03  0.29760864992E+03  0.99310213736E+02 0.  0.
        -13    1    3    3    0    0 -0.39097362430E+02  0.56778149101E+00  0.48557472483E+02  0.62343838979E+02  0.00000000000E+00 0.  1.
         13    1    3    3    0    0  0.39097362430E+02 -0.56778149101E+00  0.23199268338E+03  0.23526481094E+03  0.00000000000E+00 0. -1.
<mgrwt>
<rscale>  0 0.99310214E+02</rscale>
<asrwt>0</asrwt>
<pdfrwt beam="1">  1        2 0.44473747E-01 0.99310214E+02</pdfrwt>
<pdfrwt beam="2">  1       -2 0.13121921E-02 0.99310214E+02</pdfrwt>
<totfact> 0.14087813E+05</totfact>
</mgrwt>
</event>
<event>
 5    1  0.1197825E+001  0.9187628E+02  0.7546771E-02  0.1298371E+00
         -2   -1    0    0    0  501 -0.00000000000E+00  0.00000000000E+00  0.28232111378E+02  0.28232111378E+02  0.00000000000E+00 0.  1.
          2   -1    0    0  501    0  0.00000000000E+00 -0.00000000000E+00 -0.74748662457E+02  0.74748662457E+02  0.00000000000E+00 0. -1.
         23    2    1    2    0    0  0.00000000000E+00  0.00000000000E+00 -0.46516551079E+02  0.10298077384E+03  0.91876276891E+02 0.  0.
        -11    1    3    3    0    0  0.36843979152E+02  0.26212172581E+02 -0.14169200147E+02  0.47384839600E+02  0.00000000000E+00 0. -1.
         11    1    3    3    0    0 -0.36843979152E+02 -0.26212172581E+02 -0.32347350932E+02  0.55595934235E+02  0.00000000000E+00 0.  1.
<mgrwt>
<rscale>  0 0.91876277E+02</rscale>
<asrwt>0</asrwt>
<pdfrwt beam="2">  1        2 0.11499794E-01 0.91876277E+02</pdfrwt>
<pdfrwt beam="1">  1       -2 0.43434018E-02 0.91876277E+02</pdfrwt>
<totfact> 0.11028598E+05</totfact>
</mgrwt>
</event>
<event>
 5    1  0.1197825E+001  0.9212765E+02  0.7546771E-02  0.1297780E+00
          1   -1    0    0  501    0  0.00000000000E+00  0.00000000000E+00  0.32473195044E+03  0.32473195044E+03  0.00000000000E+00 0. -1.
         -1   -1    0    0    0  501 -0.00000000000E+00 -0.00000000000E+00 -0.65342378393E+01  0.65342378393E+01  0.00000000000E+00 0.  1.
         23    2    1    2    0    0  0.00000000000E+00  0.00000000000E+00  0.31819771260E+03  0.33126618828E+03  0.92127646192E+02 0.  0.
        -13    1    3    3    0    0 -0.32982520796E+02  0.25110126527E+02  0.86869350299E+02  0.96253047503E+02  0.00000000000E+00 0.  1.
         13    1    3    3    0    0  0.32982520796E+02 -0.25110126527E+02  0.23132836230E+03  0.23501314078E+03  0.00000000000E+00 0. -1.
<mgrwt>
<rscale>  0 0.92127646E+02</rscale>
<asrwt>0</asrwt>
<pdfrwt beam="1">  1        1 0.49958749E-01 0.92127646E+02</pdfrwt>
<pdfrwt beam="2">  1       -1 0.10052676E-02 0.92127646E+02</pdfrwt>
<totfact> 0.12649993E+05</totfact>
</mgrwt>
</event>
<event>
 5    1  0.1197825E+001  0.9117032E+02  0.7546771E-02  0.1300042E+00
          2   -1    0    0  501    0  0.00000000000E+00  0.00000000000E+00  0.33448569585E+02  0.33448569585E+02  0.00000000000E+00 0. -1.
         -2   -1    0    0    0  501 -0.00000000000E+00 -0.00000000000E+00 -0.62125431123E+02  0.62125431123E+02  0.00000000000E+00 0.  1.
         23    2    1    2    0    0  0.00000000000E+00  0.00000000000E+00 -0.28676861538E+02  0.95574000709E+02  0.91170319862E+02 0.  0.
        -11    1    3    3    0    0  0.28764268576E+02  0.19151128923E+01 -0.51356337115E+02  0.58894177692E+02  0.00000000000E+00 0.  1.
         11    1    3    3    0    0 -0.28764268576E+02 -0.19151128923E+01  0.22679475577E+02  0.36679823017E+02  0.00000000000E+00 0. -1.
<mgrwt>
<rscale>  0 0.91170320E+02</rscale>
<asrwt>0</asrwt>
<pdfrwt beam="1">  1        2 0.51459339E-02 0.91170320E+02</pdfrwt>
<pdfrwt beam="2">  1       -2 0.95577585E-02 0.91170320E+02</pdfrwt>
<totfact> 0.91069423E+04</totfact>
</mgrwt>
</event>
<event>
 5    1  0.1197825E+001  0.9220951E+02  0.7546771E-02  0.1297588E+00
          2   -1    0    0  501    0  0.00000000000E+00  0.00000000000E+00  0.17306234794E+03  0.17306234794E+03  0.00000000000E+00 0. -1.
         -2   -1    0    0    0  501 -0.00000000000E+00 -0.00000000000E+00 -0.12282558720E+02  0.12282558720E+02  0.00000000000E+00 0.  1.
         23    2    1    2    0    0  0.00000000000E+00  0.00000000000E+00  0.16077978922E+03  0.18534490666E+03  0.92209510372E+02 0.  0.
        -11    1    3    3    0    0 -0.10898826983E+02 -0.38464209131E+02  0.12654950020E+03  0.13271418844E+03  0.00000000000E+00 0. -1.
         11    1    3    3    0    0  0.10898826983E+02  0.38464209131E+02  0.34230289027E+02  0.52630718221E+02  0.00000000000E+00 0.  1.
<mgrwt>
<rscale>  0 0.92209510E+02</rscale>
<asrwt>0</asrwt>
<pdfrwt beam="1">  1        2 0.26624975E-01 0.92209510E+02</pdfrwt>
<pdfrwt beam="2">  1       -2 0.18896245E-02 0.92209510E+02</pdfrwt>
<totfact> 0.14248397E+05</totfact>
</mgrwt>
</event>
<event>
 5    1  0.1197825E+001  0.8919974E+02  0.7546771E-02  0.1304801E+00
          1   -1    0    0  501    0  0.00000000000E+00  0.00000000000E+00  0.20773640185E+02  0.20773640185E+02  0.00000000000E+00 0. -1.
         -1   -1    0    0    0  501 -0.00000000000E+00 -0.00000000000E+00 -0.95753472471E+02  0.95753472471E+02  0.00000000000E+00 0.  1.
         23    2    1    2    0    0  0.00000000000E+00  0.00000000000E+00 -0.74979832286E+02  0.11652711266E+03  0.89199735058E+02 0.  0.
        -11    1    3    3    0    0 -0.21796161059E+02 -0.31180828310E+02 -0.67898454323E+02  0.77830050690E+02  0.00000000000E+00 0.  1.
         11    1    3    3    0    0  0.21796161059E+02  0.31180828310E+02 -0.70813779632E+01  0.38697061966E+02  0.00000000000E+00 0. -1.
<mgrwt>
<rscale>  0 0.89199735E+02</rscale>
<asrwt>0</asrwt>
<pdfrwt beam="1">  1        1 0.31959447E-02 0.89199735E+02</pdfrwt>
<pdfrwt beam="2">  1       -1 0.14731303E-01 0.89199735E+02</pdfrwt>
<totfact> 0.86775922E+04</totfact>
</mgrwt>
</event>
<event>
 5    1  0.1197825E+001  0.8859702E+02  0.7546771E-02  0.1306285E+00
          2   -1    0    0  501    0  0.00000000000E+00  0.00000000000E+00  0.90861968547E+02  0.90861968547E+02  0.00000000000E+00 0. -1.
         -2   -1    0    0    0  501 -0.00000000000E+00 -0.00000000000E+00 -0.21597130649E+02  0.21597130649E+02  0.00000000000E+00 0.  1.
         23    2    1    2    0    0  0.00000000000E+00  0.00000000000E+00  0.69264837898E+02  0.11245909920E+03  0.88597015880E+02 0.  0.
        -11    1    3    3    0    0 -0.11790508056E+02 -0.17383531970E+02 -0.14874075543E+02  0.25737936732E+02  0.00000000000E+00 0.  1.
         11    1    3    3    0    0  0.11790508056E+02  0.17383531970E+02  0.84138913441E+02  0.86721162464E+02  0.00000000000E+00 0. -1.
<mgrwt>
<rscale>  0 0.88597016E+02</rscale>
<asrwt>0</asrwt>
<pdfrwt beam="1">  1        2 0.13978764E-01 0.88597016E+02</pdfrwt>
<pdfrwt beam="2">  1       -2 0.33226355E-02 0.88597016E+02</pdfrwt>
<totfact> 0.12900439E+05</totfact>
</mgrwt>
</event>
<event>
 5    1  0.1197825E+001  0.9161111E+02  0.7546771E-02  0.1298996E+00
          1   -1    0    0  501    0  0.00000000000E+00  0.00000000000E+00  0.23535237425E+03  0.23535237425E+03  0.00000000000E+00 0. -1.
         -1   -1    0    0    0  501 -0.00000000000E+00 -0.00000000000E+00 -0.89149255589E+01  0.89149255589E+01  0.00000000000E+00 0.  1.
         23    2    1    2    0    0  0.00000000000E+00  0.00000000000E+00  0.22643744869E+03  0.24426729981E+03  0.91611110604E+02 0.  0.
        -11    1    3    3    0    0 -0.56827377063E+01  0.32621822234E+02  0.28830864524E+02  0.43905529753E+02  0.00000000000E+00 0.  1.
         11    1    3    3    0    0  0.56827377063E+01 -0.32621822234E+02  0.19760658417E+03  0.20036177005E+03  0.00000000000E+00 0. -1.
<mgrwt>
<rscale>  0 0.91611111E+02</rscale>
<asrwt>0</asrwt>
<pdfrwt beam="1">  1        1 0.36208053E-01 0.91611111E+02</pdfrwt>
<pdfrwt beam="2">  1       -1 0.13715272E-02 0.91611111E+02</pdfrwt>
<totfact> 0.12067791E+05</totfact>
</mgrwt>
</event>
<event>
 5    1  0.1197825E+001  0.6875293E+02  0.7546771E-02  0.1364386E+00
          1   -1    0    0  501    0  0.00000000000E+00  0.00000000000E+00  0.10772791282E+03  0.10772791282E+03  0.00000000000E+00 0. -1.
         -1   -1    0    0    0  501 -0.00000000000E+00 -0.00000000000E+00 -0.10969687259E+02  0.10969687259E+02  0.00000000000E+00 0.  1.
         23    2    1    2    0    0  0.00000000000E+00  0.00000000000E+00  0.96758225563E+02  0.11869760008E+03  0.68752934854E+02 0.  0.
        -13    1    3    3    0    0  0.30365354291E+02  0.76983685868E+01  0.72820355058E+02  0.79272465150E+02  0.00000000000E+00 0. -1.
         13    1    3    3    0    0 -0.30365354291E+02 -0.76983685868E+01  0.23937870504E+02  0.39425134932E+02  0.00000000000E+00 0.  1.
<mgrwt>
<rscale>  0 0.68752935E+02</rscale>
<asrwt>0</asrwt>
<pdfrwt beam="1">  1        1 0.16573524E-01 0.68752935E+02</pdfrwt>
<pdfrwt beam="2">  1       -1 0.16876443E-02 0.68752935E+02</pdfrwt>
<totfact> 0.22478121E+05</totfact>
</mgrwt>
</event>
<event>
 5    1  0.1197825E+001  0.9197839E+02  0.7546771E-02  0.1298130E+00
          2   -1    0    0  501    0  0.00000000000E+00  0.00000000000E+00  0.36504702678E+03  0.36504702678E+03  0.00000000000E+00 0. -1.
         -2   -1    0    0    0  501 -0.00000000000E+00 -0.00000000000E+00 -0.57937907476E+01  0.57937907476E+01  0.00000000000E+00 0.  1.
         23    2    1    2    0    0  0.00000000000E+00  0.00000000000E+00  0.35925323603E+03  0.37084081753E+03  0.91978390640E+02 0.  0.
        -13    1    3    3    0    0 -0.22670759810E+02  0.38650568018E+02  0.22136649450E+03  0.22585604850E+03  0.00000000000E+00 0.  1.
         13    1    3    3    0    0  0.22670759810E+02 -0.38650568018E+02  0.13788674154E+03  0.14498476903E+03  0.00000000000E+00 0. -1.
<mgrwt>
<rscale>  0 0.91978391E+02</rscale>
<asrwt>0</asrwt>
<pdfrwt beam="1">  1        2 0.56161063E-01 0.91978391E+02</pdfrwt>
<pdfrwt beam="2">  1       -2 0.89135271E-03 0.91978391E+02</pdfrwt>
<totfact> 0.18869149E+05</totfact>
</mgrwt>
</event>
<event>
 5    1  0.1197825E+001  0.9083876E+02  0.7546771E-02  0.1300833E+00
         -2   -1    0    0    0  501 -0.00000000000E+00  0.00000000000E+00  0.64378773340E+02  0.64378773340E+02  0.00000000000E+00 0.  1.
          2   -1    0    0  501    0  0.00000000000E+00 -0.00000000000E+00 -0.32043480474E+02  0.32043480474E+02  0.00000000000E+00 0. -1.
         23    2    1    2    0    0  0.00000000000E+00  0.00000000000E+00  0.32335292866E+02  0.96422253814E+02  0.90838757510E+02 0.  0.
        -13    1    3    3    0    0  0.29296668871E+02  0.15574010844E+01 -0.20636300344E+02  0.35868888984E+02  0.00000000000E+00 0. -1.
         13    1    3    3    0    0 -0.29296668871E+02 -0.15574010844E+01  0.52971593209E+02  0.60553364830E+02  0.00000000000E+00 0.  1.
<mgrwt>
<rscale>  0 0.90838758E+02</rscale>
<asrwt>0</asrwt>
<pdfrwt beam="2">  1        2 0.49297662E-02 0.90838758E+02</pdfrwt>
<pdfrwt beam="1">  1       -2 0.99044267E-02 0.90838758E+02</pdfrwt>
<totfact> 0.91018829E+04</totfact>
</mgrwt>
</event>
<event>
 5    1  0.1197825E+001  0.9405393E+02  0.7546771E-02  0.1293321E+00
          1   -1    0    0  501    0  0.00000000000E+00  0.00000000000E+00  0.22694712944E+02  0.22694712944E+02  0.00000000000E+00 0. -1.
         -1   -1    0    0    0  501 -0.00000000000E+00 -0.00000000000E+00 -0.97447164642E+02  0.97447164642E+02  0.00000000000E+00 0.  1.
         23    2    1    2    0    0  0.00000000000E+00  0.00000000000E+00 -0.74752451697E+02  0.12014187759E+03  0.94053929823E+02 0.  0.
        -11    1    3    3    0    0 -0.42871702511E+02  0.14183528631E+02 -0.54147304384E+02  0.70505928351E+02  0.00000000000E+00 0.  1.
         11    1    3    3    0    0  0.42871702511E+02 -0.14183528631E+02 -0.20605147313E+02  0.49635949234E+02  0.00000000000E+00 0. -1.
<mgrwt>
<rscale>  0 0.94053930E+02</rscale>
<asrwt>0</asrwt>
<pdfrwt beam="1">  1        1 0.34914943E-02 0.94053930E+02</pdfrwt>
<pdfrwt beam="2">  1       -1 0.14991871E-01 0.94053930E+02</pdfrwt>
<totfact> 0.75469510E+04</totfact>
</mgrwt>
</event>
<event>
 5    1  0.1197825E+001  0.9215518E+02  0.7546771E-02  0.1297715E+00
         -2   -1    0    0    0  501 -0.00000000000E+00  0.00000000000E+00  0.10684730312E+02  0.10684730312E+02  0.00000000000E+00 0.  1.
          2   -1    0    0  501    0  0.00000000000E+00 -0.00000000000E+00 -0.19870827232E+03  0.19870827232E+03  0.00000000000E+00 0. -1.
         23    2    1    2    0    0  0.00000000000E+00  0.00000000000E+00 -0.18802354201E+03  0.20939300263E+03  0.92155180006E+02 0.  0.
        -13    1    3    3    0    0 -0.14698707703E+02 -0.35939786921E+02 -0.15037938219E+03  0.15531155423E+03  0.00000000000E+00 0. -1.
         13    1    3    3    0    0  0.14698707703E+02  0.35939786921E+02 -0.37644159823E+02  0.54081448398E+02  0.00000000000E+00 0.  1.
<mgrwt>
<rscale>  0 0.92155180E+02</rscale>
<asrwt>0</asrwt>
<pdfrwt beam="2">  1        2 0.30570506E-01 0.92155180E+02</pdfrwt>
<pdfrwt beam="1">  1       -2 0.16438046E-02 0.92155180E+02</pdfrwt>
<totfact> 0.14993970E+05</totfact>
</mgrwt>
</event>
<event>
 5    1  0.1197825E+001  0.8723519E+02  0.7546771E-02  0.1309689E+00
          3   -1    0    0  501    0  0.00000000000E+00  0.00000000000E+00  0.33280481347E+02  0.33280481347E+02  0.00000000000E+00 0. -1.
         -3   -1    0    0    0  501 -0.00000000000E+00 -0.00000000000E+00 -0.57165478445E+02  0.57165478445E+02  0.00000000000E+00 0.  1.
         23    2    1    2    0    0  0.00000000000E+00  0.00000000000E+00 -0.23884997098E+02  0.90445959792E+02  0.87235191043E+02 0.  0.
        -11    1    3    3    0    0  0.10072879545E+02 -0.99496995417E+01  0.30831684737E+02  0.33927160315E+02  0.00000000000E+00 0. -1.
         11    1    3    3    0    0 -0.10072879545E+02  0.99496995417E+01 -0.54716681835E+02  0.56518799477E+02  0.00000000000E+00 0.  1.
<mgrwt>
<rscale>  0 0.87235191E+02</rscale>
<asrwt>0</asrwt>
<pdfrwt beam="1">  1        3 0.51200741E-02 0.87235191E+02</pdfrwt>
<pdfrwt beam="2">  1       -3 0.87946890E-02 0.87235191E+02</pdfrwt>
<totfact> 0.39905789E+04</totfact>
</mgrwt>
</event>
<event>
 5    1  0.1197825E+001  0.8960744E+02  0.7546771E-02  0.1303805E+00
         -1   -1    0    0    0  501 -0.00000000000E+00  0.00000000000E+00  0.69678152581E+02  0.69678152581E+02  0.00000000000E+00 0.  1.
          1   -1    0    0  501    0  0.00000000000E+00 -0.00000000000E+00 -0.28809223944E+02  0.28809223944E+02  0.00000000000E+00 0. -1.
         23    2    1    2    0    0  0.00000000000E+00  0.00000000000E+00  0.40868928637E+02  0.98487376526E+02  0.89607443926E+02 0.  0.
        -11    1    3    3    0    0 -0.35230490995E+02 -0.27056630865E+02  0.14013930968E+02  0.46579384181E+02  0.00000000000E+00 0.  1.
         11    1    3    3    0    0  0.35230490995E+02  0.27056630865E+02  0.26854997669E+02  0.51907992345E+02  0.00000000000E+00 0. -1.
<mgrwt>
<rscale>  0 0.89607444E+02</rscale>
<asrwt>0</asrwt>
<pdfrwt beam="2">  1        1 0.44321883E-02 0.89607444E+02</pdfrwt>
<pdfrwt beam="1">  1       -1 0.10719716E-01 0.89607444E+02</pdfrwt>
<totfact> 0.90518579E+04</totfact>
</mgrwt>
</event>
<event>
 5    1  0.1197825E+001  0.9989040E+02  0.7546771E-02  0.1280527E+00
          1   -1    0    0  501    0  0.00000000000E+00  0.00000000000E+00  0.75034675170E+01  0.75034675170E+01  0.00000000000E+00 0. -1.
         -1   -1    0    0    0  501 -0.00000000000E+00 -0.00000000000E+00 -0.33244939606E+03  0.33244939606E+03  0.00000000000E+00 0.  1.
         23    2    1    2    0    0  0.00000000000E+00  0.00000000000E+00 -0.32494592854E+03  0.33995286358E+03  0.99890404832E+02 0.  0.
        -11    1    3    3    0    0 -0.23551803472E+02 -0.37300182872E+02 -0.82766053714E+02  0.93788116179E+02  0.00000000000E+00 0. -1.
         11    1    3    3    0    0  0.23551803472E+02  0.37300182872E+02 -0.24217987483E+03  0.24616474740E+03  0.00000000000E+00 0.  1.
<mgrwt>
<rscale>  0 0.99890405E+02</rscale>
<asrwt>0</asrwt>
<pdfrwt beam="1">  1        1 0.11543797E-02 0.99890405E+02</pdfrwt>
<pdfrwt beam="2">  1       -1 0.51146059E-01 0.99890405E+02</pdfrwt>
<totfact> 0.45701909E+04</totfact>
</mgrwt>
</event>
<event>
 5    1  0.1197825E+001  0.8942162E+02  0.7546771E-02  0.1304258E+00
         -2   -1    0    0    0  501 -0.00000000000E+00  0.00000000000E+00  0.63196818017E+02  0.63196818017E+02  0.00000000000E+00 0.  1.
          2   -1    0    0  501    0  0.00000000000E+00 -0.00000000000E+00 -0.31632235260E+02  0.31632235260E+02  0.00000000000E+00 0. -1.
         23    2    1    2    0    0  0.00000000000E+00  0.00000000000E+00  0.31564582757E+02  0.94829053277E+02  0.89421621886E+02 0.  0.
        -11    1    3    3    0    0  0.99572677837E+01  0.34193960975E+01  0.61863604136E+02  0.62753047480E+02  0.00000000000E+00 0.  1.
         11    1    3    3    0    0 -0.99572677837E+01 -0.34193960975E+01 -0.30299021379E+02  0.32076005797E+02  0.00000000000E+00 0. -1.
<mgrwt>
<rscale>  0 0.89421622E+02</rscale>
<asrwt>0</asrwt>
<pdfrwt beam="2">  1        2 0.48664977E-02 0.89421622E+02</pdfrwt>
<pdfrwt beam="1">  1       -2 0.97225874E-02 0.89421622E+02</pdfrwt>
<totfact> 0.95005282E+04</totfact>
</mgrwt>
</event>
<event>
 5    1  0.1197825E+001  0.9046414E+02  0.7546771E-02  0.1301732E+00
          3   -1    0    0  501    0  0.00000000000E+00  0.00000000000E+00  0.21429727665E+02  0.21429727665E+02  0.00000000000E+00 0. -1.
         -3   -1    0    0    0  501 -0.00000000000E+00 -0.00000000000E+00 -0.95472053572E+02  0.95472053572E+02  0.00000000000E+00 0.  1.
         23    2    1    2    0    0  0.00000000000E+00  0.00000000000E+00 -0.74042325906E+02  0.11690178124E+03  0.90464138921E+02 0.  0.
        -11    1    3    3    0    0  0.30706203634E+02 -0.79369599819E+01  0.46539475248E+01  0.32055038652E+02  0.00000000000E+00 0. -1.
         11    1    3    3    0    0 -0.30706203634E+02  0.79369599819E+01 -0.78696273431E+02  0.84846742585E+02  0.00000000000E+00 0.  1.
<mgrwt>
<rscale>  0 0.90464139E+02</rscale>
<asrwt>0</asrwt>
<pdfrwt beam="1">  1        3 0.32968811E-02 0.90464139E+02</pdfrwt>
<pdfrwt beam="2">  1       -3 0.14688008E-01 0.90464139E+02</pdfrwt>
<totfact> 0.34181177E+04</totfact>
</mgrwt>
</event>
<event>
 5    1  0.1197825E+001  0.8578130E+02  0.7546771E-02  0.1313402E+00
         -3   -1    0    0    0  501 -0.00000000000E+00  0.00000000000E+00  0.15033028570E+02  0.15033028570E+02  0.00000000000E+00 0.  1.
          3   -1    0    0  501    0  0.00000000000E+00 -0.00000000000E+00 -0.12237107035E+03  0.12237107035E+03  0.00000000000E+00 0. -1.
         23    2    1    2    0    0  0.00000000000E+00  0.00000000000E+00 -0.10733804178E+03  0.13740409892E+03  0.85781298584E+02 0.  0.
        -13    1    3    3    0    0  0.42412032450E+02 -0.50224258945E+01 -0.59996120919E+02  0.73644686053E+02  0.00000000000E+00 0. -1.
         13    1    3    3    0    0 -0.42412032450E+02  0.50224258945E+01 -0.47341920862E+02  0.63759412868E+02  0.00000000000E+00 0.  1.
<mgrwt>
<rscale>  0 0.85781299E+02</rscale>
<asrwt>0</asrwt>
<pdfrwt beam="2">  1        3 0.18826320E-01 0.85781299E+02</pdfrwt>
<pdfrwt beam="1">  1       -3 0.23127735E-02 0.85781299E+02</pdfrwt>
<totfact> 0.37836249E+04</totfact>
</mgrwt>
</event>
<event>
 5    1  0.1197825E+001  0.9142986E+02  0.7546771E-02  0.1299426E+00
         -1   -1    0    0    0  501 -0.00000000000E+00  0.00000000000E+00  0.10235415118E+03  0.10235415118E+03  0.00000000000E+00 0.  1.
          1   -1    0    0  501    0  0.00000000000E+00 -0.00000000000E+00 -0.20417881269E+02  0.20417881269E+02  0.00000000000E+00 0. -1.
         23    2    1    2    0    0  0.00000000000E+00  0.00000000000E+00  0.81936269908E+02  0.12277203245E+03  0.91429861777E+02 0.  0.
        -13    1    3    3    0    0 -0.12779662632E+02 -0.39406458178E+02  0.66925062217E+02  0.78709292183E+02  0.00000000000E+00 0.  1.
         13    1    3    3    0    0  0.12779662632E+02  0.39406458178E+02  0.15011207690E+02  0.44062740263E+02  0.00000000000E+00 0. -1.
<mgrwt>
<rscale>  0 0.91429862E+02</rscale>
<asrwt>0</asrwt>
<pdfrwt beam="2">  1        1 0.31412126E-02 0.91429862E+02</pdfrwt>
<pdfrwt beam="1">  1       -1 0.15746792E-01 0.91429862E+02</pdfrwt>
<totfact> 0.80440221E+04</totfact>
</mgrwt>
</event>
<event>
 5    1  0.1197825E+001  0.9189097E+02  0.7546771E-02  0.1298336E+00
          1   -1    0    0  501    0  0.00000000000E+00  0.00000000000E+00  0.63422347709E+02  0.63422347709E+02  0.00000000000E+00 0. -1.
         -1   -1    0    0    0  501 -0.00000000000E+00 -0.00000000000E+00 -0.33284599403E+02  0.33284599403E+02  0.00000000000E+00 0.  1.
         23    2    1    2    0    0  0.00000000000E+00  0.00000000000E+00  0.30137748306E+02  0.96706947112E+02  0.91890966622E+02 0.  0.
        -13    1    3    3    0    0 -0.11135167117E+02 -0.44326743126E+02  0.20020272774E+02  0.49896527182E+02  0.00000000000E+00 0. -1.
         13    1    3    3    0    0  0.11135167117E+02  0.44326743126E+02  0.10117475532E+02  0.46810419930E+02  0.00000000000E+00 0.  1.
<mgrwt>
<rscale>  0 0.91890967E+02</rscale>
<asrwt>0</asrwt>
<pdfrwt beam="1">  1        1 0.97572843E-02 0.91890967E+02</pdfrwt>
<pdfrwt beam="2">  1       -1 0.51207076E-02 0.91890967E+02</pdfrwt>
<totfact> 0.95106688E+04</totfact>
</mgrwt>
</event>
<event>
 5    1  0.1197825E+001  0.9180559E+02  0.7546771E-02  0.1298537E+00
          2   -1    0    0  501    0  0.00000000000E+00  0.00000000000E+00  0.53221974981E+02  0.53221974981E+02  0.00000000000E+00 0. -1.
         -2   -1    0    0    0  501 -0.00000000000E+00 -0.00000000000E+00 -0.39590165353E+02  0.39590165353E+02  0.00000000000E+00 0.  1.
         23    2    1    2    0    0  0.00000000000E+00  0.00000000000E+00  0.13631809629E+02  0.92812140334E+02  0.91805594381E+02 0.  0.
        -13    1    3    3    0    0  0.14382289535E+01  0.23535177384E+02 -0.32999823110E+02  0.40558123752E+02  0.00000000000E+00 0.  1.
         13    1    3    3    0    0 -0.14382289535E+01 -0.23535177384E+02  0.46631632739E+02  0.52254016582E+02  0.00000000000E+00 0. -1.
<mgrwt>
<rscale>  0 0.91805594E+02</rscale>
<asrwt>0</asrwt>
<pdfrwt beam="1">  1        2 0.81879961E-02 0.91805594E+02</pdfrwt>
<pdfrwt beam="2">  1       -2 0.60907947E-02 0.91805594E+02</pdfrwt>
<totfact> 0.10075695E+05</totfact>
</mgrwt>
</event>
<event>
 5    1  0.1197825E+001  0.9192349E+02  0.7546771E-02  0.1298259E+00
         -2   -1    0    0    0  501 -0.00000000000E+00  0.00000000000E+00  0.14914264594E+02  0.14914264594E+02  0.00000000000E+00 0.  1.
          2   -1    0    0  501    0  0.00000000000E+00 -0.00000000000E+00 -0.14164169903E+03  0.14164169903E+03  0.00000000000E+00 0. -1.
         23    2    1    2    0    0  0.00000000000E+00  0.00000000000E+00 -0.12672743443E+03  0.15655596362E+03  0.91923485070E+02 0.  0.
        -11    1    3    3    0    0  0.28307204871E+02 -0.20074912480E+02 -0.12038648924E+02  0.36731853025E+02  0.00000000000E+00 0.  1.
         11    1    3    3    0    0 -0.28307204871E+02  0.20074912480E+02 -0.11468878551E+03  0.11982411060E+03  0.00000000000E+00 0. -1.
<mgrwt>
<rscale>  0 0.91923485E+02</rscale>
<asrwt>0</asrwt>
<pdfrwt beam="2">  1        2 0.21791031E-01 0.91923485E+02</pdfrwt>
<pdfrwt beam="1">  1       -2 0.22945023E-02 0.91923485E+02</pdfrwt>
<totfact> 0.13411633E+05</totfact>
</mgrwt>
</event>
<event>
 5    1  0.1197825E+001  0.9095227E+02  0.7546771E-02  0.1300562E+00
          1   -1    0    0  501    0  0.00000000000E+00  0.00000000000E+00  0.35227133960E+03  0.35227133960E+03  0.00000000000E+00 0. -1.
         -1   -1    0    0    0  501 -0.00000000000E+00 -0.00000000000E+00 -0.58706989277E+01  0.58706989277E+01  0.00000000000E+00 0.  1.
         23    2    1    2    0    0  0.00000000000E+00  0.00000000000E+00  0.34640064067E+03  0.35814203853E+03  0.90952272664E+02 0.  0.
        -13    1    3    3    0    0 -0.43146718120E+02  0.13378062114E+02  0.15256322799E+03  0.15911049735E+03  0.00000000000E+00 0. -1.
         13    1    3    3    0    0  0.43146718120E+02 -0.13378062114E+02  0.19383741268E+03  0.19903154118E+03  0.00000000000E+00 0.  1.
<mgrwt>
<rscale>  0 0.90952273E+02</rscale>
<asrwt>0</asrwt>
<pdfrwt beam="1">  1        1 0.54195574E-01 0.90952273E+02</pdfrwt>
<pdfrwt beam="2">  1       -1 0.90318473E-03 0.90952273E+02</pdfrwt>
<totfact> 0.13285289E+05</totfact>
</mgrwt>
</event>
<event>
 5    1  0.1197825E+001  0.9321092E+02  0.7546771E-02  0.1295257E+00
          2   -1    0    0  501    0  0.00000000000E+00  0.00000000000E+00  0.38648249909E+02  0.38648249909E+02  0.00000000000E+00 0. -1.
         -2   -1    0    0    0  501 -0.00000000000E+00 -0.00000000000E+00 -0.56200967034E+02  0.56200967034E+02  0.00000000000E+00 0.  1.
         23    2    1    2    0    0  0.00000000000E+00  0.00000000000E+00 -0.17552717124E+02  0.94849216943E+02  0.93210922516E+02 0.  0.
        -13    1    3    3    0    0 -0.32492081592E+02  0.28163867682E+02 -0.27068128271E+02  0.50809668146E+02  0.00000000000E+00 0.  1.
         13    1    3    3    0    0  0.32492081592E+02 -0.28163867682E+02  0.95154111465E+01  0.44039548797E+02  0.00000000000E+00 0. -1.
<mgrwt>
<rscale>  0 0.93210923E+02</rscale>
<asrwt>0</asrwt>
<pdfrwt beam="1">  1        2 0.59458847E-02 0.93210923E+02</pdfrwt>
<pdfrwt beam="2">  1       -2 0.86463025E-02 0.93210923E+02</pdfrwt>
<totfact> 0.88655746E+04</totfact>
</mgrwt>
</event>
<event>
 5    1  0.1197825E+001  0.9093737E+02  0.7546771E-02  0.1300597E+00
         -2   -1    0    0    0  501 -0.00000000000E+00  0.00000000000E+00  0.18513669582E+02  0.18513669582E+02  0.00000000000E+00 0. -1.
          2   -1    0    0  501    0  0.00000000000E+00 -0.00000000000E+00 -0.11166890405E+03  0.11166890405E+03  0.00000000000E+00 0.  1.
         23    2    1    2    0    0  0.00000000000E+00  0.00000000000E+00 -0.93155234464E+02  0.13018257363E+03  0.90937367283E+02 0.  0.
        -13    1    3    3    0    0  0.39154557330E+02 -0.14221402767E+02 -0.72664825735E+02  0.83758608844E+02  0.00000000000E+00 0.  1.
         13    1    3    3    0    0 -0.39154557330E+02  0.14221402767E+02 -0.20490408729E+02  0.46423964784E+02  0.00000000000E+00 0. -1.
<mgrwt>
<rscale>  0 0.90937367E+02</rscale>
<asrwt>0</asrwt>
<pdfrwt beam="2">  1        2 0.17179832E-01 0.90937367E+02</pdfrwt>
<pdfrwt beam="1">  1       -2 0.28482568E-02 0.90937367E+02</pdfrwt>
<totfact> 0.12785360E+05</totfact>
</mgrwt>
</event>
<event>
 5    1  0.1197825E+001  0.9136303E+02  0.7546771E-02  0.1299584E+00
         -1   -1    0    0    0  501 -0.00000000000E+00  0.00000000000E+00  0.51028422241E+02  0.51028422241E+02  0.00000000000E+00 0.  1.
          1   -1    0    0  501    0  0.00000000000E+00 -0.00000000000E+00 -0.40894871009E+02  0.40894871009E+02  0.00000000000E+00 0. -1.
         23    2    1    2    0    0  0.00000000000E+00  0.00000000000E+00  0.10133551232E+02  0.91923293249E+02  0.91363028525E+02 0.  0.
        -13    1    3    3    0    0  0.15676324878E+02 -0.14476006854E+02 -0.35572734892E+02  0.41481579090E+02  0.00000000000E+00 0. -1.
         13    1    3    3    0    0 -0.15676324878E+02  0.14476006854E+02  0.45706286124E+02  0.50441714159E+02  0.00000000000E+00 0.  1.
<mgrwt>
<rscale>  0 0.91363029E+02</rscale>
<asrwt>0</asrwt>
<pdfrwt beam="2">  1        1 0.62915186E-02 0.91363029E+02</pdfrwt>
<pdfrwt beam="1">  1       -1 0.78505265E-02 0.91363029E+02</pdfrwt>
<totfact> 0.90445948E+04</totfact>
</mgrwt>
</event>
<event>
 5    1  0.1197825E+001  0.9107974E+02  0.7546771E-02  0.1300258E+00
         -2   -1    0    0    0  501 -0.00000000000E+00  0.00000000000E+00  0.14061861688E+02  0.14061861688E+02  0.00000000000E+00 0.  1.
          2   -1    0    0  501    0  0.00000000000E+00 -0.00000000000E+00 -0.14748258637E+03  0.14748258637E+03  0.00000000000E+00 0. -1.
         23    2    1    2    0    0  0.00000000000E+00  0.00000000000E+00 -0.13342072468E+03  0.16154444806E+03  0.91079739371E+02 0.  0.
        -11    1    3    3    0    0  0.12076473131E+01 -0.42987020412E+02 -0.40132833531E+02  0.58821651313E+02  0.00000000000E+00 0.  1.
         11    1    3    3    0    0 -0.12076473131E+01  0.42987020412E+02 -0.93287891148E+02  0.10272279674E+03  0.00000000000E+00 0. -1.
<mgrwt>
<rscale>  0 0.91079739E+02</rscale>
<asrwt>0</asrwt>
<pdfrwt beam="2">  1        2 0.22689628E-01 0.91079739E+02</pdfrwt>
<pdfrwt beam="1">  1       -2 0.21633634E-02 0.91079739E+02</pdfrwt>
<totfact> 0.13941182E+05</totfact>
</mgrwt>
</event>
<event>
 5    1  0.1197825E+001  0.8757873E+02  0.7546771E-02  0.1308823E+00
          4   -1    0    0  501    0  0.00000000000E+00  0.00000000000E+00  0.63446694058E+02  0.63446694058E+02  0.00000000000E+00 0. -1.
         -4   -1    0    0    0  501 -0.00000000000E+00 -0.00000000000E+00 -0.30222355996E+02  0.30222355996E+02  0.00000000000E+00 0.  1.
         23    2    1    2    0    0  0.00000000000E+00  0.00000000000E+00  0.33224338062E+02  0.93669050054E+02  0.87578731998E+02 0.  0.
        -13    1    3    3    0    0 -0.21898297118E+02  0.30055127896E+02  0.41342919924E+02  0.55606502833E+02  0.00000000000E+00 0. -1.
         13    1    3    3    0    0  0.21898297118E+02 -0.30055127896E+02 -0.81185818621E+01  0.38062547221E+02  0.00000000000E+00 0.  1.
<mgrwt>
<rscale>  0 0.87578732E+02</rscale>
<asrwt>0</asrwt>
<pdfrwt beam="1">  1        4 0.97610298E-02 0.87578732E+02</pdfrwt>
<pdfrwt beam="2">  1       -4 0.46495932E-02 0.87578732E+02</pdfrwt>
<totfact> 0.29941440E+04</totfact>
</mgrwt>
</event>
<event>
 5    1  0.1197825E+001  0.8965114E+02  0.7546771E-02  0.1303699E+00
         -2   -1    0    0    0  501 -0.00000000000E+00  0.00000000000E+00  0.14278796333E+02  0.14278796333E+02  0.00000000000E+00 0.  1.
          2   -1    0    0  501    0  0.00000000000E+00 -0.00000000000E+00 -0.14072136167E+03  0.14072136167E+03  0.00000000000E+00 0. -1.
         23    2    1    2    0    0  0.00000000000E+00  0.00000000000E+00 -0.12644256533E+03  0.15500015800E+03  0.89651138597E+02 0.  0.
        -13    1    3    3    0    0  0.12860690736E+02  0.42933867537E+02 -0.61862876156E+02  0.76391948491E+02  0.00000000000E+00 0.  1.
         13    1    3    3    0    0 -0.12860690736E+02 -0.42933867537E+02 -0.64579689178E+02  0.78608209509E+02  0.00000000000E+00 0. -1.
<mgrwt>
<rscale>  0 0.89651139E+02</rscale>
<asrwt>0</asrwt>
<pdfrwt beam="2">  1        2 0.21649440E-01 0.89651139E+02</pdfrwt>
<pdfrwt beam="1">  1       -2 0.21967380E-02 0.89651139E+02</pdfrwt>
<totfact> 0.14324239E+05</totfact>
</mgrwt>
</event>
<event>
 5    1  0.1197825E+001  0.9193910E+02  0.7546771E-02  0.1298223E+00
         -2   -1    0    0    0  501 -0.00000000000E+00  0.00000000000E+00  0.42088596095E+02  0.42088596095E+02  0.00000000000E+00 0. -1.
          2   -1    0    0  501    0  0.00000000000E+00 -0.00000000000E+00 -0.50208358564E+02  0.50208358564E+02  0.00000000000E+00 0.  1.
         23    2    1    2    0    0  0.00000000000E+00  0.00000000000E+00 -0.81197624689E+01  0.92296954659E+02  0.91939095584E+02 0.  0.
        -13    1    3    3    0    0  0.21301327855E+02  0.19129123847E+02 -0.40165541601E+02  0.49324848501E+02  0.00000000000E+00 0.  1.
         13    1    3    3    0    0 -0.21301327855E+02 -0.19129123847E+02  0.32045779132E+02  0.42972106159E+02  0.00000000000E+00 0. -1.
<mgrwt>
<rscale>  0 0.91939096E+02</rscale>
<asrwt>0</asrwt>
<pdfrwt beam="2">  1        2 0.77243629E-02 0.91939096E+02</pdfrwt>
<pdfrwt beam="1">  1       -2 0.64751686E-02 0.91939096E+02</pdfrwt>
<totfact> 0.98809029E+04</totfact>
</mgrwt>
</event>
<event>
 5    1  0.1197825E+001  0.8943358E+02  0.7546771E-02  0.1304229E+00
          3   -1    0    0  501    0  0.00000000000E+00  0.00000000000E+00  0.15596995908E+02  0.15596995908E+02  0.00000000000E+00 0. -1.
         -3   -1    0    0    0  501 -0.00000000000E+00 -0.00000000000E+00 -0.12820362089E+03  0.12820362089E+03  0.00000000000E+00 0.  1.
         23    2    1    2    0    0  0.00000000000E+00  0.00000000000E+00 -0.11260662498E+03  0.14380061680E+03  0.89433580950E+02 0.  0.
        -11    1    3    3    0    0 -0.30281976728E+02  0.86388701561E+01 -0.10735175048E+03  0.11187504870E+03  0.00000000000E+00 0.  1.
         11    1    3    3    0    0  0.30281976728E+02 -0.86388701561E+01 -0.52548745076E+01  0.31925568096E+02  0.00000000000E+00 0. -1.
<mgrwt>
<rscale>  0 0.89433581E+02</rscale>
<asrwt>0</asrwt>
<pdfrwt beam="1">  1        3 0.23995379E-02 0.89433581E+02</pdfrwt>
<pdfrwt beam="2">  1       -3 0.19723633E-01 0.89433581E+02</pdfrwt>
<totfact> 0.33389267E+04</totfact>
</mgrwt>
</event>
<event>
 5    1  0.1197825E+001  0.9232131E+02  0.7546771E-02  0.1297326E+00
         -2   -1    0    0    0  501 -0.00000000000E+00  0.00000000000E+00  0.64209114709E+01  0.64209114709E+01  0.00000000000E+00 0.  1.
          2   -1    0    0  501    0  0.00000000000E+00 -0.00000000000E+00 -0.33185415945E+03  0.33185415945E+03  0.00000000000E+00 0. -1.
         23    2    1    2    0    0  0.00000000000E+00  0.00000000000E+00 -0.32543324798E+03  0.33827507092E+03  0.92321312363E+02 0.  0.
        -13    1    3    3    0    0  0.27513610131E+02  0.30781286361E+02 -0.23837130420E+03  0.24192016244E+03  0.00000000000E+00 0. -1.
         13    1    3    3    0    0 -0.27513610131E+02 -0.30781286361E+02 -0.87061943786E+02  0.96354908481E+02  0.00000000000E+00 0.  1.
<mgrwt>
<rscale>  0 0.92321312E+02</rscale>
<asrwt>0</asrwt>
<pdfrwt beam="2">  1        2 0.51054487E-01 0.92321312E+02</pdfrwt>
<pdfrwt beam="1">  1       -2 0.98783251E-03 0.92321312E+02</pdfrwt>
<totfact> 0.18040973E+05</totfact>
</mgrwt>
</event>
<event>
 5    1  0.1197825E+001  0.9209634E+02  0.7546771E-02  0.1297853E+00
         -4   -1    0    0    0  501 -0.00000000000E+00  0.00000000000E+00  0.35201259684E+02  0.35201259684E+02  0.00000000000E+00 0.  1.
          4   -1    0    0  501    0  0.00000000000E+00 -0.00000000000E+00 -0.60237447602E+02  0.60237447602E+02  0.00000000000E+00 0. -1.
         23    2    1    2    0    0  0.00000000000E+00  0.00000000000E+00 -0.25036187918E+02  0.95438707286E+02  0.92096341637E+02 0.  0.
        -13    1    3    3    0    0 -0.35171731801E+02  0.27206032748E+02 -0.11652665495E+00  0.44466082739E+02  0.00000000000E+00 0.  1.
         13    1    3    3    0    0  0.35171731801E+02 -0.27206032748E+02 -0.24919661263E+02  0.50972624547E+02  0.00000000000E+00 0. -1.
<mgrwt>
<rscale>  0 0.92096342E+02</rscale>
<asrwt>0</asrwt>
<pdfrwt beam="2">  1        4 0.92672996E-02 0.92096342E+02</pdfrwt>
<pdfrwt beam="1">  1       -4 0.54155784E-02 0.92096342E+02</pdfrwt>
<totfact> 0.26024143E+04</totfact>
</mgrwt>
</event>
<event>
 5    1  0.1197825E+001  0.8675319E+02  0.7546771E-02  0.1310910E+00
          1   -1    0    0  501    0  0.00000000000E+00  0.00000000000E+00  0.46063170780E+02  0.46063170780E+02  0.00000000000E+00 0. -1.
         -1   -1    0    0    0  501 -0.00000000000E+00 -0.00000000000E+00 -0.40846706520E+02  0.40846706520E+02  0.00000000000E+00 0.  1.
         23    2    1    2    0    0  0.00000000000E+00  0.00000000000E+00  0.52164642600E+01  0.86909877299E+02  0.86753185952E+02 0.  0.
        -11    1    3    3    0    0 -0.27498419553E+02  0.27612849299E+02  0.21692476559E+02  0.44600404299E+02  0.00000000000E+00 0. -1.
         11    1    3    3    0    0  0.27498419553E+02 -0.27612849299E+02 -0.16476012299E+02  0.42309473001E+02  0.00000000000E+00 0.  1.
<mgrwt>
<rscale>  0 0.86753186E+02</rscale>
<asrwt>0</asrwt>
<pdfrwt beam="1">  1        1 0.70866417E-02 0.86753186E+02</pdfrwt>
<pdfrwt beam="2">  1       -1 0.62841087E-02 0.86753186E+02</pdfrwt>
<totfact> 0.10641217E+05</totfact>
</mgrwt>
</event>
<event>
 5    1  0.1197825E+001  0.9288318E+02  0.7546771E-02  0.1296016E+00
         -1   -1    0    0    0  501 -0.00000000000E+00  0.00000000000E+00  0.54887126748E+02  0.54887126748E+02  0.00000000000E+00 0.  1.
          1   -1    0    0  501    0  0.00000000000E+00 -0.00000000000E+00 -0.39295579077E+02  0.39295579077E+02  0.00000000000E+00 0. -1.
         23    2    1    2    0    0  0.00000000000E+00  0.00000000000E+00  0.15591547671E+02  0.94182705825E+02  0.92883183180E+02 0.  0.
        -11    1    3    3    0    0  0.20858660754E+02 -0.30793652419E+02 -0.20405001682E+02  0.42422834080E+02  0.00000000000E+00 0.  1.
         11    1    3    3    0    0 -0.20858660754E+02  0.30793652419E+02  0.35996549353E+02  0.51759871745E+02  0.00000000000E+00 0. -1.
<mgrwt>
<rscale>  0 0.92883183E+02</rscale>
<asrwt>0</asrwt>
<pdfrwt beam="2">  1        1 0.60454737E-02 0.92883183E+02</pdfrwt>
<pdfrwt beam="1">  1       -1 0.84441733E-02 0.92883183E+02</pdfrwt>
<totfact> 0.85789443E+04</totfact>
</mgrwt>
</event>
<event>
 5    1  0.1197825E+001  0.9241307E+02  0.7546771E-02  0.1297111E+00
          4   -1    0    0  501    0  0.00000000000E+00  0.00000000000E+00  0.21754712143E+03  0.21754712143E+03  0.00000000000E+00 0. -1.
         -4   -1    0    0    0  501 -0.00000000000E+00 -0.00000000000E+00 -0.98141681263E+01  0.98141681263E+01  0.00000000000E+00 0.  1.
         23    2    1    2    0    0  0.00000000000E+00  0.00000000000E+00  0.20773295330E+03  0.22736128955E+03  0.92413073211E+02 0.  0.
        -11    1    3    3    0    0 -0.81744606113E+01 -0.32148710330E+02  0.24728181043E+02  0.41374440418E+02  0.00000000000E+00 0.  1.
         11    1    3    3    0    0  0.81744606113E+01  0.32148710330E+02  0.18300477226E+03  0.18598684914E+03  0.00000000000E+00 0. -1.
<mgrwt>
<rscale>  0 0.92413073E+02</rscale>
<asrwt>0</asrwt>
<pdfrwt beam="1">  1        4 0.33468784E-01 0.92413073E+02</pdfrwt>
<pdfrwt beam="2">  1       -4 0.15098722E-02 0.92413073E+02</pdfrwt>
<totfact> 0.19576120E+04</totfact>
</mgrwt>
</event>
<event>
 5    1  0.1197825E+001  0.9256007E+02  0.7546771E-02  0.1296768E+00
          2   -1    0    0  501    0  0.00000000000E+00  0.00000000000E+00  0.10255527507E+03  0.10255527507E+03  0.00000000000E+00 0.  1.
         -2   -1    0    0    0  501 -0.00000000000E+00 -0.00000000000E+00 -0.20884753321E+02  0.20884753321E+02  0.00000000000E+00 0. -1.
         23    2    1    2    0    0  0.00000000000E+00  0.00000000000E+00  0.81670521745E+02  0.12344002839E+03  0.92560069611E+02 0.  0.
        -11    1    3    3    0    0  0.32624363615E+01  0.35633431629E+02  0.16927156400E+01  0.35822482143E+02  0.00000000000E+00 0. -1.
         11    1    3    3    0    0 -0.32624363615E+01 -0.35633431629E+02  0.79977806105E+02  0.87617546245E+02  0.00000000000E+00 0.  1.
<mgrwt>
<rscale>  0 0.92560070E+02</rscale>
<asrwt>0</asrwt>
<pdfrwt beam="1">  1        2 0.15777734E-01 0.92560070E+02</pdfrwt>
<pdfrwt beam="2">  1       -2 0.32130390E-02 0.92560070E+02</pdfrwt>
<totfact> 0.11860104E+05</totfact>
</mgrwt>
</event>
<event>
 5    1  0.1197825E+001  0.9240800E+02  0.7546771E-02  0.1297123E+00
         -2   -1    0    0    0  501 -0.00000000000E+00  0.00000000000E+00  0.10881064822E+02  0.10881064822E+02  0.00000000000E+00 0.  1.
          2   -1    0    0  501    0  0.00000000000E+00 -0.00000000000E+00 -0.19619490122E+03  0.19619490122E+03  0.00000000000E+00 0. -1.
         23    2    1    2    0    0  0.00000000000E+00  0.00000000000E+00 -0.18531383640E+03  0.20707596604E+03  0.92407996146E+02 0.  0.
        -11    1    3    3    0    0 -0.43338326135E+02  0.15804455434E+02 -0.98508217030E+02  0.10877435427E+03  0.00000000000E+00 0.  1.
         11    1    3    3    0    0  0.43338326135E+02 -0.15804455434E+02 -0.86805619366E+02  0.98301611773E+02  0.00000000000E+00 0. -1.
<mgrwt>
<rscale>  0 0.92407996E+02</rscale>
<asrwt>0</asrwt>
<pdfrwt beam="2">  1        2 0.30183828E-01 0.92407996E+02</pdfrwt>
<pdfrwt beam="1">  1       -2 0.16740101E-02 0.92407996E+02</pdfrwt>
<totfact> 0.14815130E+05</totfact>
</mgrwt>
</event>
<event>
 5    1  0.1197825E+001  0.9570301E+02  0.7546771E-02  0.1289601E+00
          4   -1    0    0  501    0  0.00000000000E+00  0.00000000000E+00  0.35447503838E+02  0.35447503838E+02  0.00000000000E+00 0. -1.
         -4   -1    0    0    0  501 -0.00000000000E+00 -0.00000000000E+00 -0.64595983688E+02  0.64595983688E+02  0.00000000000E+00 0.  1.
         23    2    1    2    0    0  0.00000000000E+00  0.00000000000E+00 -0.29148479851E+02  0.10004348753E+03  0.95703006843E+02 0.  0.
        -11    1    3    3    0    0  0.37649304213E+02 -0.25484298486E+02 -0.30179335887E+02  0.54568414781E+02  0.00000000000E+00 0.  1.
         11    1    3    3    0    0 -0.37649304213E+02  0.25484298486E+02  0.10308560368E+01  0.45475072746E+02  0.00000000000E+00 0. -1.
<mgrwt>
<rscale>  0 0.95703007E+02</rscale>
<asrwt>0</asrwt>
<pdfrwt beam="1">  1        4 0.54534621E-02 0.95703007E+02</pdfrwt>
<pdfrwt beam="2">  1       -4 0.99378437E-02 0.95703007E+02</pdfrwt>
<totfact> 0.23184771E+04</totfact>
</mgrwt>
</event>
<event>
 5    1  0.1197825E+001  0.9174554E+02  0.7546771E-02  0.1298679E+00
         -4   -1    0    0    0  501 -0.00000000000E+00  0.00000000000E+00  0.49689220864E+02  0.49689220864E+02  0.00000000000E+00 0.  1.
          4   -1    0    0  501    0  0.00000000000E+00 -0.00000000000E+00 -0.42349445735E+02  0.42349445735E+02  0.00000000000E+00 0. -1.
         23    2    1    2    0    0  0.00000000000E+00  0.00000000000E+00  0.73397751287E+01  0.92038666599E+02  0.91745538585E+02 0.  0.
        -11    1    3    3    0    0 -0.15567631204E+02  0.28241138058E+02  0.36399237304E+02  0.48629389226E+02  0.00000000000E+00 0.  1.
         11    1    3    3    0    0  0.15567631204E+02 -0.28241138058E+02 -0.29059462176E+02  0.43409277373E+02  0.00000000000E+00 0. -1.
<mgrwt>
<rscale>  0 0.91745539E+02</rscale>
<asrwt>0</asrwt>
<pdfrwt beam="2">  1        4 0.65152994E-02 0.91745539E+02</pdfrwt>
<pdfrwt beam="1">  1       -4 0.76444955E-02 0.91745539E+02</pdfrwt>
<totfact> 0.26508583E+04</totfact>
</mgrwt>
</event>
<event>
 5    1  0.1197825E+001  0.8828548E+02  0.7546771E-02  0.1307058E+00
         -1   -1    0    0    0  501 -0.00000000000E+00  0.00000000000E+00  0.14933808392E+02  0.14933808392E+02  0.00000000000E+00 0.  1.
          1   -1    0    0  501    0  0.00000000000E+00 -0.00000000000E+00 -0.13048120343E+03  0.13048120343E+03  0.00000000000E+00 0. -1.
         23    2    1    2    0    0  0.00000000000E+00  0.00000000000E+00 -0.11554739503E+03  0.14541501182E+03  0.88285475378E+02 0.  0.
        -13    1    3    3    0    0  0.38436969363E+02  0.13671774443E+01 -0.93455812017E+02  0.10106066786E+03  0.00000000000E+00 0. -1.
         13    1    3    3    0    0 -0.38436969363E+02 -0.13671774443E+01 -0.22091583018E+02  0.44354343961E+02  0.00000000000E+00 0.  1.
<mgrwt>
<rscale>  0 0.88285475E+02</rscale>
<asrwt>0</asrwt>
<pdfrwt beam="2">  1        1 0.20074032E-01 0.88285475E+02</pdfrwt>
<pdfrwt beam="1">  1       -1 0.22975089E-02 0.88285475E+02</pdfrwt>
<totfact> 0.11927546E+05</totfact>
</mgrwt>
</event>
<event>
 5    1  0.1197825E+001  0.8734401E+02  0.7546771E-02  0.1309414E+00
         -3   -1    0    0    0  501 -0.00000000000E+00  0.00000000000E+00  0.34987704825E+02  0.34987704825E+02  0.00000000000E+00 0.  1.
          3   -1    0    0  501    0  0.00000000000E+00 -0.00000000000E+00 -0.54511833045E+02  0.54511833045E+02  0.00000000000E+00 0. -1.
         23    2    1    2    0    0  0.00000000000E+00  0.00000000000E+00 -0.19524128219E+02  0.89499537870E+02  0.87344007786E+02 0.  0.
        -13    1    3    3    0    0  0.59264851728E+01  0.22700323880E+02  0.27981955939E+02  0.36515993605E+02  0.00000000000E+00 0.  1.
         13    1    3    3    0    0 -0.59264851728E+01 -0.22700323880E+02 -0.47506084159E+02  0.52983544265E+02  0.00000000000E+00 0. -1.
<mgrwt>
<rscale>  0 0.87344008E+02</rscale>
<asrwt>0</asrwt>
<pdfrwt beam="2">  1        3 0.83864358E-02 0.87344008E+02</pdfrwt>
<pdfrwt beam="1">  1       -3 0.53827238E-02 0.87344008E+02</pdfrwt>
<totfact> 0.39852953E+04</totfact>
</mgrwt>
</event>
<event>
 5    1  0.1197825E+001  0.9112778E+02  0.7546771E-02  0.1300143E+00
          3   -1    0    0  501    0  0.00000000000E+00  0.00000000000E+00  0.97937737093E+01  0.97937737093E+01  0.00000000000E+00 0.  1.
         -3   -1    0    0    0  501 -0.00000000000E+00 -0.00000000000E+00 -0.21197835750E+03  0.21197835750E+03  0.00000000000E+00 0. -1.
         23    2    1    2    0    0  0.00000000000E+00  0.00000000000E+00 -0.20218458379E+03  0.22177213121E+03  0.91127779839E+02 0.  0.
        -13    1    3    3    0    0 -0.32584258633E+02 -0.15971546141E+01 -0.23681782851E+02  0.40312673597E+02  0.00000000000E+00 0.  1.
         13    1    3    3    0    0  0.32584258633E+02  0.15971546141E+01 -0.17850280094E+03  0.18145945761E+03  0.00000000000E+00 0. -1.
<mgrwt>
<rscale>  0 0.91127780E+02</rscale>
<asrwt>0</asrwt>
<pdfrwt beam="1">  1        3 0.15067345E-02 0.91127780E+02</pdfrwt>
<pdfrwt beam="2">  1       -3 0.32612052E-01 0.91127780E+02</pdfrwt>
<totfact> 0.27448109E+04</totfact>
</mgrwt>
</event>
<event>
 5    1  0.1197825E+001  0.9183259E+02  0.7546771E-02  0.1298474E+00
         -1   -1    0    0    0  501 -0.00000000000E+00  0.00000000000E+00  0.33821282214E+02  0.33821282214E+02  0.00000000000E+00 0.  1.
          1   -1    0    0  501    0  0.00000000000E+00 -0.00000000000E+00 -0.62336666913E+02  0.62336666913E+02  0.00000000000E+00 0. -1.
         23    2    1    2    0    0  0.00000000000E+00  0.00000000000E+00 -0.28515384699E+02  0.96157949127E+02  0.91832586894E+02 0.  0.
        -11    1    3    3    0    0  0.34856416696E+02 -0.13826190847E+02  0.13488943420E+02  0.39850783340E+02  0.00000000000E+00 0.  1.
         11    1    3    3    0    0 -0.34856416696E+02  0.13826190847E+02 -0.42004328118E+02  0.56307165787E+02  0.00000000000E+00 0. -1.
<mgrwt>
<rscale>  0 0.91832587E+02</rscale>
<asrwt>0</asrwt>
<pdfrwt beam="2">  1        1 0.95902564E-02 0.91832587E+02</pdfrwt>
<pdfrwt beam="1">  1       -1 0.52032742E-02 0.91832587E+02</pdfrwt>
<totfact> 0.95023352E+04</totfact>
</mgrwt>
</event>
<event>
 5    1  0.1197825E+001  0.9006385E+02  0.7546771E-02  0.1302697E+00
         -2   -1    0    0    0  501 -0.00000000000E+00  0.00000000000E+00  0.49711223897E+01  0.49711223897E+01  0.00000000000E+00 0.  1.
          2   -1    0    0  501    0  0.00000000000E+00 -0.00000000000E+00 -0.40793085199E+03  0.40793085199E+03  0.00000000000E+00 0. -1.
         23    2    1    2    0    0  0.00000000000E+00  0.00000000000E+00 -0.40295972960E+03  0.41290197438E+03  0.90063848280E+02 0.  0.
        -13    1    3    3    0    0 -0.42851056434E+02  0.13698339494E+02 -0.19229170754E+03  0.19748407109E+03  0.00000000000E+00 0. -1.
         13    1    3    3    0    0  0.42851056434E+02 -0.13698339494E+02 -0.21066802206E+03  0.21541790329E+03  0.00000000000E+00 0.  1.
<mgrwt>
<rscale>  0 0.90063848E+02</rscale>
<asrwt>0</asrwt>
<pdfrwt beam="2">  1        2 0.62758578E-01 0.90063848E+02</pdfrwt>
<pdfrwt beam="1">  1       -2 0.76478824E-03 0.90063848E+02</pdfrwt>
<totfact> 0.20768072E+05</totfact>
</mgrwt>
</event>
<event>
 5    1  0.1197825E+001  0.9134980E+02  0.7546771E-02  0.1299616E+00
          1   -1    0    0  501    0  0.00000000000E+00  0.00000000000E+00  0.26463721466E+03  0.26463721466E+03  0.00000000000E+00 0. -1.
         -1   -1    0    0    0  501 -0.00000000000E+00 -0.00000000000E+00 -0.78832311473E+01  0.78832311473E+01  0.00000000000E+00 0.  1.
         23    2    1    2    0    0  0.00000000000E+00  0.00000000000E+00  0.25675398351E+03  0.27252044581E+03  0.91349796569E+02 0.  0.
        -13    1    3    3    0    0 -0.36489433458E+02 -0.25205473365E+02  0.16097542641E+03  0.16697270001E+03  0.00000000000E+00 0.  1.
         13    1    3    3    0    0  0.36489433458E+02  0.25205473365E+02  0.95778557105E+02  0.10554774580E+03  0.00000000000E+00 0. -1.
<mgrwt>
<rscale>  0 0.91349797E+02</rscale>
<asrwt>0</asrwt>
<pdfrwt beam="1">  1        1 0.40713411E-01 0.91349797E+02</pdfrwt>
<pdfrwt beam="2">  1       -1 0.12128050E-02 0.91349797E+02</pdfrwt>
<totfact> 0.12442007E+05</totfact>
</mgrwt>
</event>
<event>
 5    1  0.1197825E+001  0.9033638E+02  0.7546771E-02  0.1302039E+00
         -3   -1    0    0    0  501 -0.00000000000E+00  0.00000000000E+00  0.69940040486E+01  0.69940040486E+01  0.00000000000E+00 0. -1.
          3   -1    0    0  501    0  0.00000000000E+00 -0.00000000000E+00 -0.29170207094E+03  0.29170207094E+03  0.00000000000E+00 0.  1.
         23    2    1    2    0    0  0.00000000000E+00  0.00000000000E+00 -0.28470806690E+03  0.29869607499E+03  0.90336381712E+02 0.  0.
        -13    1    3    3    0    0  0.25771857574E+02 -0.33121801187E+02 -0.19757564448E+03  0.20198360737E+03  0.00000000000E+00 0.  1.
         13    1    3    3    0    0 -0.25771857574E+02  0.33121801187E+02 -0.87132422418E+02  0.96712467620E+02  0.00000000000E+00 0. -1.
<mgrwt>
<rscale>  0 0.90336382E+02</rscale>
<asrwt>0</asrwt>
<pdfrwt beam="2">  1        3 0.44877251E-01 0.90336382E+02</pdfrwt>
<pdfrwt beam="1">  1       -3 0.10760004E-02 0.90336382E+02</pdfrwt>
<totfact> 0.24686912E+04</totfact>
</mgrwt>
</event>
<event>
 5    1  0.1197825E+001  0.9191759E+02  0.7546771E-02  0.1298273E+00
          1   -1    0    0  501    0  0.00000000000E+00  0.00000000000E+00  0.93511375090E+02  0.93511375090E+02  0.00000000000E+00 0. -1.
         -1   -1    0    0    0  501 -0.00000000000E+00 -0.00000000000E+00 -0.22587743043E+02  0.22587743043E+02  0.00000000000E+00 0.  1.
         23    2    1    2    0    0  0.00000000000E+00  0.00000000000E+00  0.70923632047E+02  0.11609911813E+03  0.91917591617E+02 0.  0.
        -13    1    3    3    0    0  0.45575114495E+02  0.10594718021E+01  0.42826480191E+02  0.62548548723E+02  0.00000000000E+00 0.  1.
         13    1    3    3    0    0 -0.45575114495E+02 -0.10594718021E+01  0.28097151856E+02  0.53550569410E+02  0.00000000000E+00 0. -1.
<mgrwt>
<rscale>  0 0.91917592E+02</rscale>
<asrwt>0</asrwt>
<pdfrwt beam="1">  1        1 0.14386365E-01 0.91917592E+02</pdfrwt>
<pdfrwt beam="2">  1       -1 0.34750374E-02 0.91917592E+02</pdfrwt>
<totfact> 0.10104101E+05</totfact>
</mgrwt>
</event>
<event>
 5    1  0.1197825E+001  0.9090845E+02  0.7546771E-02  0.1300667E+00
         -3   -1    0    0    0  501 -0.00000000000E+00  0.00000000000E+00  0.46405320790E+02  0.46405320790E+02  0.00000000000E+00 0.  1.
          3   -1    0    0  501    0  0.00000000000E+00 -0.00000000000E+00 -0.44522618883E+02  0.44522618883E+02  0.00000000000E+00 0. -1.
         23    2    1    2    0    0  0.00000000000E+00  0.00000000000E+00  0.18827019063E+01  0.90927939673E+02  0.90908446509E+02 0.  0.
        -11    1    3    3    0    0  0.14393448323E+01 -0.10496216152E+02  0.45153138360E+02  0.46379393817E+02  0.00000000000E+00 0.  1.
         11    1    3    3    0    0 -0.14393448323E+01  0.10496216152E+02 -0.43270436454E+02  0.44548545857E+02  0.00000000000E+00 0. -1.
<mgrwt>
<rscale>  0 0.90908447E+02</rscale>
<asrwt>0</asrwt>
<pdfrwt beam="2">  1        3 0.68496337E-02 0.90908447E+02</pdfrwt>
<pdfrwt beam="1">  1       -3 0.71392801E-02 0.90908447E+02</pdfrwt>
<totfact> 0.35642938E+04</totfact>
</mgrwt>
</event>
<event>
 5    1  0.1197825E+001  0.9268589E+02  0.7546771E-02  0.1296475E+00
         -2   -1    0    0    0  501 -0.00000000000E+00  0.00000000000E+00  0.21515782141E+02  0.21515782141E+02  0.00000000000E+00 0.  1.
          2   -1    0    0  501    0  0.00000000000E+00 -0.00000000000E+00 -0.99818290882E+02  0.99818290882E+02  0.00000000000E+00 0. -1.
         23    2    1    2    0    0  0.00000000000E+00  0.00000000000E+00 -0.78302508740E+02  0.12133407302E+03  0.92685891058E+02 0.  0.
        -13    1    3    3    0    0  0.32578746523E+02  0.55020903601E+01 -0.81692029521E+02  0.88120573140E+02  0.00000000000E+00 0. -1.
         13    1    3    3    0    0 -0.32578746523E+02 -0.55020903601E+01  0.33895207808E+01  0.33213499882E+02  0.00000000000E+00 0.  1.
<mgrwt>
<rscale>  0 0.92685891E+02</rscale>
<asrwt>0</asrwt>
<pdfrwt beam="2">  1        2 0.15356661E-01 0.92685891E+02</pdfrwt>
<pdfrwt beam="1">  1       -2 0.33101202E-02 0.92685891E+02</pdfrwt>
<totfact> 0.11717923E+05</totfact>
</mgrwt>
</event>
<event>
 5    1  0.1197825E+001  0.9607924E+02  0.7546771E-02  0.1288764E+00
          3   -1    0    0  501    0  0.00000000000E+00  0.00000000000E+00  0.59841431349E+01  0.59841431349E+01  0.00000000000E+00 0. -1.
         -3   -1    0    0    0  501 -0.00000000000E+00 -0.00000000000E+00 -0.38565341234E+03  0.38565341234E+03  0.00000000000E+00 0.  1.
         23    2    1    2    0    0  0.00000000000E+00  0.00000000000E+00 -0.37966926921E+03  0.39163755548E+03  0.96079242710E+02 0.  0.
        -13    1    3    3    0    0  0.19410802501E+02 -0.43441564464E+02 -0.21682889687E+03  0.22198810620E+03  0.00000000000E+00 0.  1.
         13    1    3    3    0    0 -0.19410802501E+02  0.43441564464E+02 -0.16284037234E+03  0.16964944928E+03  0.00000000000E+00 0. -1.
<mgrwt>
<rscale>  0 0.96079243E+02</rscale>
<asrwt>0</asrwt>
<pdfrwt beam="1">  1        3 0.92063710E-03 0.96079243E+02</pdfrwt>
<pdfrwt beam="2">  1       -3 0.59331314E-01 0.96079243E+02</pdfrwt>
<totfact> 0.18118765E+04</totfact>
</mgrwt>
</event>
<event>
 5    1  0.1197825E+001  0.8770366E+02  0.7546771E-02  0.1308510E+00
          3   -1    0    0  501    0  0.00000000000E+00  0.00000000000E+00  0.76454385925E+02  0.76454385925E+02  0.00000000000E+00 0. -1.
         -3   -1    0    0    0  501 -0.00000000000E+00 -0.00000000000E+00 -0.25152032241E+02  0.25152032241E+02  0.00000000000E+00 0.  1.
         23    2    1    2    0    0  0.00000000000E+00  0.00000000000E+00  0.51302353684E+02  0.10160641817E+03  0.87703664228E+02 0.  0.
        -11    1    3    3    0    0 -0.27737780156E+02  0.14347198128E+02  0.61316964599E+02  0.68811312222E+02  0.00000000000E+00 0. -1.
         11    1    3    3    0    0  0.27737780156E+02 -0.14347198128E+02 -0.10014610914E+02  0.32795105944E+02  0.00000000000E+00 0.  1.
<mgrwt>
<rscale>  0 0.87703664E+02</rscale>
<asrwt>0</asrwt>
<pdfrwt beam="1">  1        3 0.11762213E-01 0.87703664E+02</pdfrwt>
<pdfrwt beam="2">  1       -3 0.38695435E-02 0.87703664E+02</pdfrwt>
<totfact> 0.38388309E+04</totfact>
</mgrwt>
</event>
<event>
 5    1  0.1197825E+001  0.9163284E+02  0.7546771E-02  0.1298945E+00
         -1   -1    0    0    0  501 -0.00000000000E+00  0.00000000000E+00  0.55725296452E+01  0.55725296452E+01  0.00000000000E+00 0.  1.
          1   -1    0    0  501    0  0.00000000000E+00 -0.00000000000E+00 -0.37669505453E+03  0.37669505453E+03  0.00000000000E+00 0. -1.
         23    2    1    2    0    0  0.00000000000E+00  0.00000000000E+00 -0.37112252488E+03  0.38226758417E+03  0.91632840370E+02 0.  0.
        -13    1    3    3    0    0  0.70067370993E+01  0.43200804278E+02 -0.12901306389E+03  0.13623426334E+03  0.00000000000E+00 0.  1.
         13    1    3    3    0    0 -0.70067370993E+01 -0.43200804278E+02 -0.24210946100E+03  0.24603332083E+03  0.00000000000E+00 0. -1.
<mgrwt>
<rscale>  0 0.91632840E+02</rscale>
<asrwt>0</asrwt>
<pdfrwt beam="2">  1        1 0.57953092E-01 0.91632840E+02</pdfrwt>
<pdfrwt beam="1">  1       -1 0.85731216E-03 0.91632840E+02</pdfrwt>
<totfact> 0.13177820E+05</totfact>
</mgrwt>
</event>
<event>
 5    1  0.1197825E+001  0.9798569E+02  0.7546771E-02  0.1284590E+00
          1   -1    0    0  501    0  0.00000000000E+00  0.00000000000E+00  0.44508627482E+02  0.44508627482E+02  0.00000000000E+00 0. -1.
         -1   -1    0    0    0  501 -0.00000000000E+00 -0.00000000000E+00 -0.53928847134E+02  0.53928847134E+02  0.00000000000E+00 0.  1.
         23    2    1    2    0    0  0.00000000000E+00  0.00000000000E+00 -0.94202196520E+01  0.98437474615E+02  0.97985692171E+02 0.  0.
        -11    1    3    3    0    0 -0.44591868893E+02 -0.13902160713E+02 -0.19563207610E+02  0.50640141546E+02  0.00000000000E+00 0.  1.
         11    1    3    3    0    0  0.44591868893E+02  0.13902160713E+02  0.10142987958E+02  0.47797333069E+02  0.00000000000E+00 0. -1.
<mgrwt>
<rscale>  0 0.97985692E+02</rscale>
<asrwt>0</asrwt>
<pdfrwt beam="1">  1        1 0.68474812E-02 0.97985692E+02</pdfrwt>
<pdfrwt beam="2">  1       -1 0.82967457E-02 0.97985692E+02</pdfrwt>
<totfact> 0.75153914E+04</totfact>
</mgrwt>
</event>
<event>
 5    1  0.1197825E+001  0.9047438E+02  0.7546771E-02  0.1301707E+00
          2   -1    0    0  501    0  0.00000000000E+00  0.00000000000E+00  0.32879480886E+02  0.32879480886E+02  0.00000000000E+00 0. -1.
         -2   -1    0    0    0  501 -0.00000000000E+00 -0.00000000000E+00 -0.62239524808E+02  0.62239524808E+02  0.00000000000E+00 0.  1.
         23    2    1    2    0    0  0.00000000000E+00  0.00000000000E+00 -0.29360043922E+02  0.95119005694E+02  0.90474377948E+02 0.  0.
        -11    1    3    3    0    0  0.45001056177E+02 -0.15454907245E+01 -0.19252992969E+02  0.48971025483E+02  0.00000000000E+00 0.  1.
         11    1    3    3    0    0 -0.45001056177E+02  0.15454907245E+01 -0.10107050953E+02  0.46147980211E+02  0.00000000000E+00 0. -1.
<mgrwt>
<rscale>  0 0.90474378E+02</rscale>
<asrwt>0</asrwt>
<pdfrwt beam="1">  1        2 0.50583817E-02 0.90474378E+02</pdfrwt>
<pdfrwt beam="2">  1       -2 0.95753115E-02 0.90474378E+02</pdfrwt>
<totfact> 0.92724670E+04</totfact>
</mgrwt>
</event>
<event>
 5    1  0.1197825E+001  0.9149758E+02  0.7546771E-02  0.1299265E+00
          2   -1    0    0  501    0  0.00000000000E+00  0.00000000000E+00  0.23103534281E+03  0.23103534281E+03  0.00000000000E+00 0. -1.
         -2   -1    0    0    0  501 -0.00000000000E+00 -0.00000000000E+00 -0.90590105218E+01  0.90590105218E+01  0.00000000000E+00 0.  1.
         23    2    1    2    0    0  0.00000000000E+00  0.00000000000E+00  0.22197633228E+03  0.24009435333E+03  0.91497575955E+02 0.  0.
        -13    1    3    3    0    0  0.37001084209E+02 -0.35219179003E+01  0.18098040403E+03  0.18475765419E+03  0.00000000000E+00 0. -1.
         13    1    3    3    0    0 -0.37001084209E+02  0.35219179003E+01  0.40995928258E+02  0.55336699143E+02  0.00000000000E+00 0.  1.
<mgrwt>
<rscale>  0 0.91497576E+02</rscale>
<asrwt>0</asrwt>
<pdfrwt beam="1">  1        2 0.35543894E-01 0.91497576E+02</pdfrwt>
<pdfrwt beam="2">  1       -2 0.13936941E-02 0.91497576E+02</pdfrwt>
<totfact> 0.16151335E+05</totfact>
</mgrwt>
</event>
<event>
 5    1  0.1197825E+001  0.1030241E+03  0.7546771E-02  0.1274062E+00
         -2   -1    0    0    0  501 -0.00000000000E+00  0.00000000000E+00  0.23129645042E+02  0.23129645042E+02  0.00000000000E+00 0.  1.
          2   -1    0    0  501    0  0.00000000000E+00 -0.00000000000E+00 -0.11472241682E+03  0.11472241682E+03  0.00000000000E+00 0. -1.
         23    2    1    2    0    0  0.00000000000E+00  0.00000000000E+00 -0.91592771777E+02  0.13785206186E+03  0.10302405116E+03 0.  0.
        -13    1    3    3    0    0 -0.24714830628E+02 -0.26403760624E+02  0.32850975433E+01  0.36314918338E+02  0.00000000000E+00 0.  1.
         13    1    3    3    0    0  0.24714830628E+02  0.26403760624E+02 -0.94877869320E+02  0.10153714352E+03  0.00000000000E+00 0. -1.
<mgrwt>
<rscale>  0 0.10302405E+03</rscale>
<asrwt>0</asrwt>
<pdfrwt beam="2">  1        2 0.17649603E-01 0.10302405E+03</pdfrwt>
<pdfrwt beam="1">  1       -2 0.35584069E-02 0.10302405E+03</pdfrwt>
<totfact> 0.91330583E+04</totfact>
</mgrwt>
</event>
<event>
 5    1  0.1197825E+001  0.9035206E+02  0.7546771E-02  0.1302001E+00
         -2   -1    0    0    0  501 -0.00000000000E+00  0.00000000000E+00  0.72098088379E+01  0.72098088379E+01  0.00000000000E+00 0.  1.
          2   -1    0    0  501    0  0.00000000000E+00 -0.00000000000E+00 -0.28306904932E+03  0.28306904932E+03  0.00000000000E+00 0. -1.
         23    2    1    2    0    0  0.00000000000E+00  0.00000000000E+00 -0.27585924048E+03  0.29027885816E+03  0.90352061040E+02 0.  0.
        -13    1    3    3    0    0 -0.16751767992E+02  0.41955257364E+02 -0.13822376076E+03  0.14541895816E+03  0.00000000000E+00 0. -1.
         13    1    3    3    0    0  0.16751767992E+02 -0.41955257364E+02 -0.13763547972E+03  0.14485990001E+03  0.00000000000E+00 0.  1.
<mgrwt>
<rscale>  0 0.90352061E+02</rscale>
<asrwt>0</asrwt>
<pdfrwt beam="2">  1        2 0.43549077E-01 0.90352061E+02</pdfrwt>
<pdfrwt beam="1">  1       -2 0.11092016E-02 0.90352061E+02</pdfrwt>
<totfact> 0.18012635E+05</totfact>
</mgrwt>
</event>
<event>
 5    1  0.1197825E+001  0.9368363E+02  0.7546771E-02  0.1294169E+00
         -2   -1    0    0    0  501 -0.00000000000E+00  0.00000000000E+00  0.16862261664E+03  0.16862261664E+03  0.00000000000E+00 0.  1.
          2   -1    0    0  501    0  0.00000000000E+00 -0.00000000000E+00 -0.13012225903E+02  0.13012225903E+02  0.00000000000E+00 0. -1.
         23    2    1    2    0    0  0.00000000000E+00  0.00000000000E+00  0.15561039074E+03  0.18163484255E+03  0.93683628882E+02 0.  0.
        -11    1    3    3    0    0  0.11633749759E+02  0.24996208593E+02  0.15122448603E+03  0.15371727214E+03  0.00000000000E+00 0.  1.
         11    1    3    3    0    0 -0.11633749759E+02 -0.24996208593E+02  0.43859047087E+01  0.27917570410E+02  0.00000000000E+00 0. -1.
<mgrwt>
<rscale>  0 0.93683629E+02</rscale>
<asrwt>0</asrwt>
<pdfrwt beam="2">  1        2 0.20018810E-02 0.93683629E+02</pdfrwt>
<pdfrwt beam="1">  1       -2 0.25941939E-01 0.93683629E+02</pdfrwt>
<totfact> 0.62388950E+04</totfact>
</mgrwt>
</event>
<event>
 5    1  0.1197825E+001  0.9084601E+02  0.7546771E-02  0.1300816E+00
          1   -1    0    0  501    0  0.00000000000E+00  0.00000000000E+00  0.59252161975E+02  0.59252161975E+02  0.00000000000E+00 0. -1.
         -1   -1    0    0    0  501 -0.00000000000E+00 -0.00000000000E+00 -0.34821507529E+02  0.34821507529E+02  0.00000000000E+00 0.  1.
         23    2    1    2    0    0  0.00000000000E+00  0.00000000000E+00  0.24430654446E+02  0.94073669504E+02  0.90846014868E+02 0.  0.
        -11    1    3    3    0    0 -0.12304162179E+02 -0.68837510130E+01  0.56928968670E+02  0.58648835527E+02  0.00000000000E+00 0. -1.
         11    1    3    3    0    0  0.12304162179E+02  0.68837510130E+01 -0.32498314223E+02  0.35424833977E+02  0.00000000000E+00 0.  1.
<mgrwt>
<rscale>  0 0.90846015E+02</rscale>
<asrwt>0</asrwt>
<pdfrwt beam="1">  1        1 0.91157172E-02 0.90846015E+02</pdfrwt>
<pdfrwt beam="2">  1       -1 0.53571550E-02 0.90846015E+02</pdfrwt>
<totfact> 0.97163446E+04</totfact>
</mgrwt>
</event>
<event>
 5    1  0.1197825E+001  0.9141179E+02  0.7546771E-02  0.1299468E+00
         -2   -1    0    0    0  501 -0.00000000000E+00  0.00000000000E+00  0.62029858395E+02  0.62029858395E+02  0.00000000000E+00 0.  1.
          2   -1    0    0  501    0  0.00000000000E+00 -0.00000000000E+00 -0.33677793081E+02  0.33677793081E+02  0.00000000000E+00 0. -1.
         23    2    1    2    0    0  0.00000000000E+00  0.00000000000E+00  0.28352065314E+02  0.95707651476E+02  0.91411787771E+02 0.  0.
        -11    1    3    3    0    0 -0.31046422299E+02 -0.23245549543E+02  0.39494970022E+02  0.55354210031E+02  0.00000000000E+00 0. -1.
         11    1    3    3    0    0  0.31046422299E+02  0.23245549543E+02 -0.11142904708E+02  0.40353441445E+02  0.00000000000E+00 0.  1.
<mgrwt>
<rscale>  0 0.91411788E+02</rscale>
<asrwt>0</asrwt>
<pdfrwt beam="2">  1        2 0.51811990E-02 0.91411788E+02</pdfrwt>
<pdfrwt beam="1">  1       -2 0.95430551E-02 0.91411788E+02</pdfrwt>
<totfact> 0.90525750E+04</totfact>
</mgrwt>
</event>
<event>
 5    1  0.1197825E+001  0.9189604E+02  0.7546771E-02  0.1298324E+00
          2   -1    0    0  501    0  0.00000000000E+00  0.00000000000E+00  0.71364647871E+02  0.71364647871E+02  0.00000000000E+00 0. -1.
         -2   -1    0    0    0  501 -0.00000000000E+00 -0.00000000000E+00 -0.29583560499E+02  0.29583560499E+02  0.00000000000E+00 0.  1.
         23    2    1    2    0    0  0.00000000000E+00  0.00000000000E+00  0.41781087372E+02  0.10094820837E+03  0.91896036427E+02 0.  0.
        -11    1    3    3    0    0 -0.27242018304E+02  0.36957998318E+02  0.18925731893E+02  0.49660895367E+02  0.00000000000E+00 0. -1.
         11    1    3    3    0    0  0.27242018304E+02 -0.36957998318E+02  0.22855355478E+02  0.51287313002E+02  0.00000000000E+00 0.  1.
<mgrwt>
<rscale>  0 0.91896036E+02</rscale>
<asrwt>0</asrwt>
<pdfrwt beam="1">  1        2 0.10979177E-01 0.91896036E+02</pdfrwt>
<pdfrwt beam="2">  1       -2 0.45513170E-02 0.91896036E+02</pdfrwt>
<totfact> 0.10879460E+05</totfact>
</mgrwt>
</event>
<event>
 5    1  0.1197825E+001  0.9697669E+02  0.7546771E-02  0.1286785E+00
          1   -1    0    0  501    0  0.00000000000E+00  0.00000000000E+00  0.10219537508E+03  0.10219537508E+03  0.00000000000E+00 0. -1.
         -1   -1    0    0    0  501 -0.00000000000E+00 -0.00000000000E+00 -0.23006123071E+02  0.23006123071E+02  0.00000000000E+00 0.  1.
         23    2    1    2    0    0  0.00000000000E+00  0.00000000000E+00  0.79189252007E+02  0.12520149815E+03  0.96976685369E+02 0.  0.
        -13    1    3    3    0    0  0.27490292574E+02  0.34257045623E+02  0.13077567768E+02  0.45828857059E+02  0.00000000000E+00 0.  1.
         13    1    3    3    0    0 -0.27490292574E+02 -0.34257045623E+02  0.66111684239E+02  0.79372641089E+02  0.00000000000E+00 0. -1.
<mgrwt>
<rscale>  0 0.96976685E+02</rscale>
<asrwt>0</asrwt>
<pdfrwt beam="1">  1        1 0.15722365E-01 0.96976685E+02</pdfrwt>
<pdfrwt beam="2">  1       -1 0.35394036E-02 0.96976685E+02</pdfrwt>
<totfact> 0.88546929E+04</totfact>
</mgrwt>
</event>
<event>
 5    1  0.1197825E+001  0.9215531E+02  0.7546771E-02  0.1297715E+00
          1   -1    0    0  501    0  0.00000000000E+00  0.00000000000E+00  0.17667933113E+03  0.17667933113E+03  0.00000000000E+00 0. -1.
         -1   -1    0    0    0  501 -0.00000000000E+00 -0.00000000000E+00 -0.12016971547E+02  0.12016971547E+02  0.00000000000E+00 0.  1.
         23    2    1    2    0    0  0.00000000000E+00  0.00000000000E+00  0.16466235959E+03  0.18869630268E+03  0.92155314446E+02 0.  0.
        -11    1    3    3    0    0  0.18037476726E+02  0.20571616934E+02  0.64153193586E+01  0.28101571351E+02  0.00000000000E+00 0.  1.
         11    1    3    3    0    0 -0.18037476726E+02 -0.20571616934E+02  0.15824704023E+03  0.16059473133E+03  0.00000000000E+00 0. -1.
<mgrwt>
<rscale>  0 0.92155314E+02</rscale>
<asrwt>0</asrwt>
<pdfrwt beam="1">  1        1 0.27181434E-01 0.92155314E+02</pdfrwt>
<pdfrwt beam="2">  1       -1 0.18487650E-02 0.92155314E+02</pdfrwt>
<totfact> 0.11233941E+05</totfact>
</mgrwt>
</event>
<event>
 5    1  0.1197825E+001  0.9104357E+02  0.7546771E-02  0.1300344E+00
          2   -1    0    0  501    0  0.00000000000E+00  0.00000000000E+00  0.56502246959E+02  0.56502246959E+02  0.00000000000E+00 0. -1.
         -2   -1    0    0    0  501 -0.00000000000E+00 -0.00000000000E+00 -0.36675228027E+02  0.36675228027E+02  0.00000000000E+00 0.  1.
         23    2    1    2    0    0  0.00000000000E+00  0.00000000000E+00  0.19827018932E+02  0.93177474986E+02  0.91043567401E+02 0.  0.
        -11    1    3    3    0    0  0.21526801604E+02  0.34543233180E+02  0.30777464714E+02  0.51028330171E+02  0.00000000000E+00 0.  1.
         11    1    3    3    0    0 -0.21526801604E+02 -0.34543233180E+02 -0.10950445781E+02  0.42149144815E+02  0.00000000000E+00 0. -1.
<mgrwt>
<rscale>  0 0.91043567E+02</rscale>
<asrwt>0</asrwt>
<pdfrwt beam="1">  1        2 0.86926534E-02 0.91043567E+02</pdfrwt>
<pdfrwt beam="2">  1       -2 0.56423427E-02 0.91043567E+02</pdfrwt>
<totfact> 0.10481631E+05</totfact>
</mgrwt>
</event>
<event>
 5    1  0.1197825E+001  0.9084571E+02  0.7546771E-02  0.1300817E+00
          2   -1    0    0  501    0  0.00000000000E+00  0.00000000000E+00  0.24550288465E+03  0.24550288465E+03  0.00000000000E+00 0. -1.
         -2   -1    0    0    0  501 -0.00000000000E+00 -0.00000000000E+00 -0.84041193683E+01  0.84041193683E+01  0.00000000000E+00 0.  1.
         23    2    1    2    0    0  0.00000000000E+00  0.00000000000E+00  0.23709876528E+03  0.25390700402E+03  0.90845705411E+02 0.  0.
        -11    1    3    3    0    0 -0.16593837322E+02 -0.29334260093E+02  0.33435687457E+02  0.47474197707E+02  0.00000000000E+00 0.  1.
         11    1    3    3    0    0  0.16593837322E+02  0.29334260093E+02  0.20366307783E+03  0.20643280631E+03  0.00000000000E+00 0. -1.
<mgrwt>
<rscale>  0 0.90845705E+02</rscale>
<asrwt>0</asrwt>
<pdfrwt beam="1">  1        2 0.37769669E-01 0.90845705E+02</pdfrwt>
<pdfrwt beam="2">  1       -2 0.12929416E-02 0.90845705E+02</pdfrwt>
<totfact> 0.16836994E+05</totfact>
</mgrwt>
</event>
<event>
 5    1  0.1197825E+001  0.9058732E+02  0.7546771E-02  0.1301436E+00
          1   -1    0    0  501    0  0.00000000000E+00  0.00000000000E+00  0.15161199202E+03  0.15161199202E+03  0.00000000000E+00 0. -1.
         -1   -1    0    0    0  501 -0.00000000000E+00 -0.00000000000E+00 -0.13531353990E+02  0.13531353990E+02  0.00000000000E+00 0.  1.
         23    2    1    2    0    0  0.00000000000E+00  0.00000000000E+00  0.13808063803E+03  0.16514334601E+03  0.90587317724E+02 0.  0.
        -13    1    3    3    0    0 -0.43243917378E+00  0.45145906373E+02  0.75657606279E+02  0.88104558643E+02  0.00000000000E+00 0.  1.
         13    1    3    3    0    0  0.43243917378E+00 -0.45145906373E+02  0.62423031748E+02  0.77038787364E+02  0.00000000000E+00 0. -1.
<mgrwt>
<rscale>  0 0.90587318E+02</rscale>
<asrwt>0</asrwt>
<pdfrwt beam="1">  1        1 0.23324921E-01 0.90587318E+02</pdfrwt>
<pdfrwt beam="2">  1       -1 0.20817469E-02 0.90587318E+02</pdfrwt>
<totfact> 0.11433486E+05</totfact>
</mgrwt>
</event>
<event>
 5    1  0.1197825E+001  0.9614646E+02  0.7546771E-02  0.1288615E+00
          1   -1    0    0  501    0  0.00000000000E+00  0.00000000000E+00  0.10078308989E+03  0.10078308989E+03  0.00000000000E+00 0. -1.
         -1   -1    0    0    0  501 -0.00000000000E+00 -0.00000000000E+00 -0.22930784197E+02  0.22930784197E+02  0.00000000000E+00 0.  1.
         23    2    1    2    0    0  0.00000000000E+00  0.00000000000E+00  0.77852305693E+02  0.12371387409E+03  0.96146456720E+02 0.  0.
        -13    1    3    3    0    0 -0.42433581202E+02 -0.20088523794E+02  0.25623794639E+02  0.53485852836E+02  0.00000000000E+00 0.  1.
         13    1    3    3    0    0  0.42433581202E+02  0.20088523794E+02  0.52228511054E+02  0.70228021251E+02  0.00000000000E+00 0. -1.
<mgrwt>
<rscale>  0 0.96146457E+02</rscale>
<asrwt>0</asrwt>
<pdfrwt beam="1">  1        1 0.15505091E-01 0.96146457E+02</pdfrwt>
<pdfrwt beam="2">  1       -1 0.35278130E-02 0.96146457E+02</pdfrwt>
<totfact> 0.90447024E+04</totfact>
</mgrwt>
</event>
<event>
 5    1  0.1197825E+001  0.9031789E+02  0.7546771E-02  0.1302084E+00
         -3   -1    0    0    0  501 -0.00000000000E+00  0.00000000000E+00  0.45939738788E+02  0.45939738788E+02  0.00000000000E+00 0.  1.
          3   -1    0    0  501    0  0.00000000000E+00 -0.00000000000E+00 -0.44391419417E+02  0.44391419417E+02  0.00000000000E+00 0. -1.
         23    2    1    2    0    0  0.00000000000E+00  0.00000000000E+00  0.15483193710E+01  0.90331158204E+02  0.90317887761E+02 0.  0.
        -13    1    3    3    0    0 -0.19350601731E+02  0.39390544567E+02  0.11418534335E+02  0.45348028788E+02  0.00000000000E+00 0.  1.
         13    1    3    3    0    0  0.19350601731E+02 -0.39390544567E+02 -0.98702149645E+01  0.44983129416E+02  0.00000000000E+00 0. -1.
<mgrwt>
<rscale>  0 0.90317888E+02</rscale>
<asrwt>0</asrwt>
<pdfrwt beam="2">  1        3 0.68294491E-02 0.90317888E+02</pdfrwt>
<pdfrwt beam="1">  1       -3 0.70676521E-02 0.90317888E+02</pdfrwt>
<totfact> 0.36327267E+04</totfact>
</mgrwt>
</event>
<event>
 5    1  0.1197825E+001  0.9667964E+02  0.7546771E-02  0.1287437E+00
         -2   -1    0    0    0  501 -0.00000000000E+00  0.00000000000E+00  0.50426813131E+02  0.50426813131E+02  0.00000000000E+00 0. -1.
          2   -1    0    0  501    0  0.00000000000E+00 -0.00000000000E+00 -0.46339200585E+02  0.46339200585E+02  0.00000000000E+00 0.  1.
         23    2    1    2    0    0  0.00000000000E+00  0.00000000000E+00  0.40876125457E+01  0.96766013716E+02  0.96679640226E+02 0.  0.
        -11    1    3    3    0    0 -0.46762331586E+02 -0.78968042231E+01 -0.73274125569E+01  0.47987145644E+02  0.00000000000E+00 0. -1.
         11    1    3    3    0    0  0.46762331586E+02  0.78968042231E+01  0.11415025103E+02  0.48778868072E+02  0.00000000000E+00 0.  1.
<mgrwt>
<rscale>  0 0.96679640E+02</rscale>
<asrwt>0</asrwt>
<pdfrwt beam="2">  1        2 0.71291077E-02 0.96679640E+02</pdfrwt>
<pdfrwt beam="1">  1       -2 0.77579713E-02 0.96679640E+02</pdfrwt>
<totfact> 0.83674394E+04</totfact>
</mgrwt>
</event>
<event>
 5    1  0.1197825E+001  0.9161673E+02  0.7546771E-02  0.1298983E+00
         -1   -1    0    0    0  501 -0.00000000000E+00  0.00000000000E+00  0.71277932907E+02  0.71277932907E+02  0.00000000000E+00 0.  1.
          1   -1    0    0  501    0  0.00000000000E+00 -0.00000000000E+00 -0.29439773227E+02  0.29439773227E+02  0.00000000000E+00 0. -1.
         23    2    1    2    0    0  0.00000000000E+00  0.00000000000E+00  0.41838159680E+02  0.10071770613E+03  0.91616727313E+02 0.  0.
        -11    1    3    3    0    0  0.29119403030E+02 -0.29807295124E+02  0.41835163087E+02  0.59047399147E+02  0.00000000000E+00 0.  1.
         11    1    3    3    0    0 -0.29119403030E+02  0.29807295124E+02  0.29965926804E-02  0.41670306988E+02  0.00000000000E+00 0. -1.
<mgrwt>
<rscale>  0 0.91616727E+02</rscale>
<asrwt>0</asrwt>
<pdfrwt beam="2">  1        1 0.45291959E-02 0.91616727E+02</pdfrwt>
<pdfrwt beam="1">  1       -1 0.10965836E-01 0.91616727E+02</pdfrwt>
<totfact> 0.85231690E+04</totfact>
</mgrwt>
</event>
<event>
 5    1  0.1197825E+001  0.9088427E+02  0.7546771E-02  0.1300724E+00
         -2   -1    0    0    0  501 -0.00000000000E+00  0.00000000000E+00  0.35785905031E+02  0.35785905031E+02  0.00000000000E+00 0.  1.
          2   -1    0    0  501    0  0.00000000000E+00 -0.00000000000E+00 -0.57703935430E+02  0.57703935430E+02  0.00000000000E+00 0. -1.
         23    2    1    2    0    0  0.00000000000E+00  0.00000000000E+00 -0.21918030400E+02  0.93489840461E+02  0.90884268236E+02 0.  0.
        -13    1    3    3    0    0  0.35901411548E+02 -0.16629868282E+02  0.12031766913E+02  0.41354894333E+02  0.00000000000E+00 0.  1.
         13    1    3    3    0    0 -0.35901411548E+02  0.16629868282E+02 -0.33949797312E+02  0.52134946128E+02  0.00000000000E+00 0. -1.
<mgrwt>
<rscale>  0 0.90884268E+02</rscale>
<asrwt>0</asrwt>
<pdfrwt beam="2">  1        2 0.88775284E-02 0.90884268E+02</pdfrwt>
<pdfrwt beam="1">  1       -2 0.55055239E-02 0.90884268E+02</pdfrwt>
<totfact> 0.10592628E+05</totfact>
</mgrwt>
</event>
<event>
 5    1  0.1197825E+001  0.9060357E+02  0.7546771E-02  0.1301397E+00
         -4   -1    0    0    0  501 -0.00000000000E+00  0.00000000000E+00  0.23314125033E+02  0.23314125033E+02  0.00000000000E+00 0.  1.
          4   -1    0    0  501    0  0.00000000000E+00 -0.00000000000E+00 -0.88026100570E+02  0.88026100570E+02  0.00000000000E+00 0. -1.
         23    2    1    2    0    0  0.00000000000E+00  0.00000000000E+00 -0.64711975538E+02  0.11134022560E+03  0.90603565378E+02 0.  0.
        -11    1    3    3    0    0 -0.34253157760E+02  0.29646427466E+02 -0.32662065257E+02  0.55848007886E+02  0.00000000000E+00 0. -1.
         11    1    3    3    0    0  0.34253157760E+02 -0.29646427466E+02 -0.32049910281E+02  0.55492217716E+02  0.00000000000E+00 0.  1.
<mgrwt>
<rscale>  0 0.90603565E+02</rscale>
<asrwt>0</asrwt>
<pdfrwt beam="2">  1        4 0.13542477E-01 0.90603565E+02</pdfrwt>
<pdfrwt beam="1">  1       -4 0.35867884E-02 0.90603565E+02</pdfrwt>
<totfact> 0.26216248E+04</totfact>
</mgrwt>
</event>
<event>
 5    1  0.1197825E+001  0.9268068E+02  0.7546771E-02  0.1296487E+00
          3   -1    0    0  501    0  0.00000000000E+00  0.00000000000E+00  0.23560867634E+02  0.23560867634E+02  0.00000000000E+00 0. -1.
         -3   -1    0    0    0  501 -0.00000000000E+00 -0.00000000000E+00 -0.91143810025E+02  0.91143810025E+02  0.00000000000E+00 0.  1.
         23    2    1    2    0    0  0.00000000000E+00  0.00000000000E+00 -0.67582942391E+02  0.11470467766E+03  0.92680682856E+02 0.  0.
        -11    1    3    3    0    0 -0.43052895688E+02 -0.11664876062E+02 -0.18244214328E+02  0.48192037902E+02  0.00000000000E+00 0. -1.
         11    1    3    3    0    0  0.43052895688E+02  0.11664876062E+02 -0.49338728062E+02  0.66512639757E+02  0.00000000000E+00 0.  1.
<mgrwt>
<rscale>  0 0.92680683E+02</rscale>
<asrwt>0</asrwt>
<pdfrwt beam="1">  1        3 0.36247489E-02 0.92680683E+02</pdfrwt>
<pdfrwt beam="2">  1       -3 0.14022125E-01 0.92680683E+02</pdfrwt>
<totfact> 0.32149042E+04</totfact>
</mgrwt>
</event>
<event>
 5    1  0.1197825E+001  0.9086697E+02  0.7546771E-02  0.1300766E+00
          2   -1    0    0  501    0  0.00000000000E+00  0.00000000000E+00  0.30713766094E+03  0.30713766094E+03  0.00000000000E+00 0. -1.
         -2   -1    0    0    0  501 -0.00000000000E+00 -0.00000000000E+00 -0.67207704474E+01  0.67207704474E+01  0.00000000000E+00 0.  1.
         23    2    1    2    0    0  0.00000000000E+00  0.00000000000E+00  0.30041689050E+03  0.31385843139E+03  0.90866973427E+02 0.  0.
        -13    1    3    3    0    0  0.74231099904E+01  0.38878698363E+02  0.73163466105E+02  0.83183823673E+02  0.00000000000E+00 0.  1.
         13    1    3    3    0    0 -0.74231099904E+01 -0.38878698363E+02  0.22725342439E+03  0.23067460772E+03  0.00000000000E+00 0. -1.
<mgrwt>
<rscale>  0 0.90866973E+02</rscale>
<asrwt>0</asrwt>
<pdfrwt beam="1">  1        2 0.47251937E-01 0.90866973E+02</pdfrwt>
<pdfrwt beam="2">  1       -2 0.10339649E-02 0.90866973E+02</pdfrwt>
<totfact> 0.18289162E+05</totfact>
</mgrwt>
</event>
<event>
 5    1  0.1197825E+001  0.9147360E+02  0.7546771E-02  0.1299322E+00
         -1   -1    0    0    0  501 -0.00000000000E+00  0.00000000000E+00  0.34133071253E+03  0.34133071253E+03  0.00000000000E+00 0.  1.
          1   -1    0    0  501    0  0.00000000000E+00 -0.00000000000E+00 -0.61285285503E+01  0.61285285503E+01  0.00000000000E+00 0. -1.
         23    2    1    2    0    0  0.00000000000E+00  0.00000000000E+00  0.33520218398E+03  0.34745924108E+03  0.91473603118E+02 0.  0.
        -13    1    3    3    0    0 -0.39153736347E+02  0.23382428260E+02  0.18081516115E+03  0.18647754697E+03  0.00000000000E+00 0.  1.
         13    1    3    3    0    0  0.39153736347E+02 -0.23382428260E+02  0.15438702283E+03  0.16098169411E+03  0.00000000000E+00 0. -1.
<mgrwt>
<rscale>  0 0.91473603E+02</rscale>
<asrwt>0</asrwt>
<pdfrwt beam="2">  1        1 0.94285081E-03 0.91473603E+02</pdfrwt>
<pdfrwt beam="1">  1       -1 0.52512403E-01 0.91473603E+02</pdfrwt>
<totfact> 0.56935352E+04</totfact>
</mgrwt>
</event>
<event>
 5    1  0.1197825E+001  0.9328584E+02  0.7546771E-02  0.1295084E+00
         -1   -1    0    0    0  501 -0.00000000000E+00  0.00000000000E+00  0.15413560373E+03  0.15413560373E+03  0.00000000000E+00 0.  1.
          1   -1    0    0  501    0  0.00000000000E+00 -0.00000000000E+00 -0.14114597887E+02  0.14114597887E+02  0.00000000000E+00 0. -1.
         23    2    1    2    0    0  0.00000000000E+00  0.00000000000E+00  0.14002100584E+03  0.16825020162E+03  0.93285841728E+02 0.  0.
        -11    1    3    3    0    0  0.14832909020E+02 -0.38580254498E+02  0.10899122067E+03  0.11656559274E+03  0.00000000000E+00 0.  1.
         11    1    3    3    0    0 -0.14832909020E+02  0.38580254498E+02  0.31029785173E+02  0.51684608879E+02  0.00000000000E+00 0. -1.
<mgrwt>
<rscale>  0 0.93285842E+02</rscale>
<asrwt>0</asrwt>
<pdfrwt beam="2">  1        1 0.21714767E-02 0.93285842E+02</pdfrwt>
<pdfrwt beam="1">  1       -1 0.23713169E-01 0.93285842E+02</pdfrwt>
<totfact> 0.70019717E+04</totfact>
</mgrwt>
</event>
<event>
 5    1  0.1197825E+001  0.8967707E+02  0.7546771E-02  0.1303636E+00
         -1   -1    0    0    0  501 -0.00000000000E+00  0.00000000000E+00  0.64923702285E+01  0.64923702285E+01  0.00000000000E+00 0.  1.
          1   -1    0    0  501    0  0.00000000000E+00 -0.00000000000E+00 -0.30967031528E+03  0.30967031528E+03  0.00000000000E+00 0. -1.
         23    2    1    2    0    0  0.00000000000E+00  0.00000000000E+00 -0.30317794505E+03  0.31616268551E+03  0.89677072556E+02 0.  0.
        -11    1    3    3    0    0 -0.31511276784E+02  0.28919664328E+02 -0.10413282821E+03  0.11257421312E+03  0.00000000000E+00 0.  1.
         11    1    3    3    0    0  0.31511276784E+02 -0.28919664328E+02 -0.19904511684E+03  0.20358847238E+03  0.00000000000E+00 0. -1.
<mgrwt>
<rscale>  0 0.89677073E+02</rscale>
<asrwt>0</asrwt>
<pdfrwt beam="2">  1        1 0.47641592E-01 0.89677073E+02</pdfrwt>
<pdfrwt beam="1">  1       -1 0.99882608E-03 0.89677073E+02</pdfrwt>
<totfact> 0.13470889E+05</totfact>
</mgrwt>
</event>
<event>
 5    1  0.1197825E+001  0.6358919E+02  0.7546771E-02  0.1383358E+00
         -3   -1    0    0    0  501 -0.00000000000E+00  0.00000000000E+00  0.90856124966E+01  0.90856124966E+01  0.00000000000E+00 0.  1.
          3   -1    0    0  501    0  0.00000000000E+00 -0.00000000000E+00 -0.11126339772E+03  0.11126339772E+03  0.00000000000E+00 0. -1.
         23    2    1    2    0    0  0.00000000000E+00  0.00000000000E+00 -0.10217778522E+03  0.12034901022E+03  0.63589185141E+02 0.  0.
        -13    1    3    3    0    0 -0.15942950357E+02 -0.26931477323E+02 -0.40481204467E+02  0.51168447817E+02  0.00000000000E+00 0. -1.
         13    1    3    3    0    0  0.15942950357E+02  0.26931477323E+02 -0.61696580755E+02  0.69180562398E+02  0.00000000000E+00 0.  1.
<mgrwt>
<rscale>  0 0.63589185E+02</rscale>
<asrwt>0</asrwt>
<pdfrwt beam="2">  1        3 0.17117447E-01 0.63589185E+02</pdfrwt>
<pdfrwt beam="1">  1       -3 0.13977864E-02 0.63589185E+02</pdfrwt>
<totfact> 0.86425624E+04</totfact>
</mgrwt>
</event>
<event>
 5    1  0.1197825E+001  0.9378487E+02  0.7546771E-02  0.1293937E+00
         -4   -1    0    0    0  501 -0.00000000000E+00  0.00000000000E+00  0.24640122338E+02  0.24640122338E+02  0.00000000000E+00 0.  1.
          4   -1    0    0  501    0  0.00000000000E+00 -0.00000000000E+00 -0.89240644785E+02  0.89240644785E+02  0.00000000000E+00 0. -1.
         23    2    1    2    0    0  0.00000000000E+00  0.00000000000E+00 -0.64600522447E+02  0.11388076712E+03  0.93784868822E+02 0.  0.
        -11    1    3    3    0    0 -0.35462294441E+02  0.29780863621E+02 -0.41258482269E+02  0.62022064817E+02  0.00000000000E+00 0. -1.
         11    1    3    3    0    0  0.35462294441E+02 -0.29780863621E+02 -0.23342040178E+02  0.51858702305E+02  0.00000000000E+00 0.  1.
<mgrwt>
<rscale>  0 0.93784869E+02</rscale>
<asrwt>0</asrwt>
<pdfrwt beam="2">  1        4 0.13729330E-01 0.93784869E+02</pdfrwt>
<pdfrwt beam="1">  1       -4 0.37907880E-02 0.93784869E+02</pdfrwt>
<totfact> 0.23736306E+04</totfact>
</mgrwt>
</event>
<event>
 5    1  0.1197825E+001  0.8993656E+02  0.7546771E-02  0.1303005E+00
         -2   -1    0    0    0  501 -0.00000000000E+00  0.00000000000E+00  0.50913730868E+02  0.50913730868E+02  0.00000000000E+00 0.  1.
          2   -1    0    0  501    0  0.00000000000E+00 -0.00000000000E+00 -0.39717109998E+02  0.39717109998E+02  0.00000000000E+00 0. -1.
         23    2    1    2    0    0  0.00000000000E+00  0.00000000000E+00  0.11196620870E+02  0.90630840866E+02  0.89936560959E+02 0.  0.
        -11    1    3    3    0    0  0.19459470231E+02 -0.10512905217E+02 -0.33856894823E+02  0.40441086593E+02  0.00000000000E+00 0. -1.
         11    1    3    3    0    0 -0.19459470231E+02  0.10512905217E+02  0.45053515693E+02  0.50189754273E+02  0.00000000000E+00 0.  1.
<mgrwt>
<rscale>  0 0.89936561E+02</rscale>
<asrwt>0</asrwt>
<pdfrwt beam="2">  1        2 0.61103246E-02 0.89936561E+02</pdfrwt>
<pdfrwt beam="1">  1       -2 0.78328817E-02 0.89936561E+02</pdfrwt>
<totfact> 0.99060076E+04</totfact>
</mgrwt>
</event>
<event>
 5    1  0.1197825E+001  0.9272064E+02  0.7546771E-02  0.1296394E+00
         -2   -1    0    0    0  501 -0.00000000000E+00  0.00000000000E+00  0.74153156810E+01  0.74153156810E+01  0.00000000000E+00 0.  1.
          2   -1    0    0  501    0  0.00000000000E+00 -0.00000000000E+00 -0.28984327315E+03  0.28984327315E+03  0.00000000000E+00 0. -1.
         23    2    1    2    0    0  0.00000000000E+00  0.00000000000E+00 -0.28242795747E+03  0.29725858883E+03  0.92720642112E+02 0.  0.
        -13    1    3    3    0    0  0.32864024713E+02  0.32695787137E+02 -0.14272027305E+03  0.15006043768E+03  0.00000000000E+00 0.  1.
         13    1    3    3    0    0 -0.32864024713E+02 -0.32695787137E+02 -0.13970768442E+03  0.14719815115E+03  0.00000000000E+00 0. -1.
<mgrwt>
<rscale>  0 0.92720642E+02</rscale>
<asrwt>0</asrwt>
<pdfrwt beam="2">  1        2 0.44591262E-01 0.92720642E+02</pdfrwt>
<pdfrwt beam="1">  1       -2 0.11408181E-02 0.92720642E+02</pdfrwt>
<totfact> 0.16958111E+05</totfact>
</mgrwt>
</event>
<event>
 5    1  0.1197825E+001  0.9459645E+02  0.7546771E-02  0.1292088E+00
          1   -1    0    0  501    0  0.00000000000E+00  0.00000000000E+00  0.18667142300E+02  0.18667142300E+02  0.00000000000E+00 0. -1.
         -1   -1    0    0    0  501 -0.00000000000E+00 -0.00000000000E+00 -0.11984278025E+03  0.11984278025E+03  0.00000000000E+00 0.  1.
         23    2    1    2    0    0  0.00000000000E+00  0.00000000000E+00 -0.10117563795E+03  0.13850992255E+03  0.94596453051E+02 0.  0.
        -13    1    3    3    0    0 -0.99934029362E+01  0.23061494722E+02  0.80800865039E+01  0.26400538611E+02  0.00000000000E+00 0. -1.
         13    1    3    3    0    0  0.99934029362E+01 -0.23061494722E+02 -0.10925572445E+03  0.11210938394E+03  0.00000000000E+00 0.  1.
<mgrwt>
<rscale>  0 0.94596453E+02</rscale>
<asrwt>0</asrwt>
<pdfrwt beam="1">  1        1 0.28718681E-02 0.94596453E+02</pdfrwt>
<pdfrwt beam="2">  1       -1 0.18437351E-01 0.94596453E+02</pdfrwt>
<totfact> 0.71409093E+04</totfact>
</mgrwt>
</event>
<event>
 5    1  0.1197825E+001  0.9015058E+02  0.7546771E-02  0.1302487E+00
         -2   -1    0    0    0  501 -0.00000000000E+00  0.00000000000E+00  0.75115927111E+01  0.75115927111E+01  0.00000000000E+00 0.  1.
          2   -1    0    0  501    0  0.00000000000E+00 -0.00000000000E+00 -0.27048614756E+03  0.27048614756E+03  0.00000000000E+00 0. -1.
         23    2    1    2    0    0  0.00000000000E+00  0.00000000000E+00 -0.26297455484E+03  0.27799774027E+03  0.90150580130E+02 0.  0.
        -11    1    3    3    0    0  0.25933950874E+02  0.32099052159E+02 -0.18740894663E+03  0.19189849461E+03  0.00000000000E+00 0. -1.
         11    1    3    3    0    0 -0.25933950874E+02 -0.32099052159E+02 -0.75565608213E+02  0.86099245653E+02  0.00000000000E+00 0.  1.
<mgrwt>
<rscale>  0 0.90150580E+02</rscale>
<asrwt>0</asrwt>
<pdfrwt beam="2">  1        2 0.41613250E-01 0.90150580E+02</pdfrwt>
<pdfrwt beam="1">  1       -2 0.11556297E-02 0.90150580E+02</pdfrwt>
<totfact> 0.17815757E+05</totfact>
</mgrwt>
</event>
<event>
 5    1  0.1197825E+001  0.8965258E+02  0.7546771E-02  0.1303695E+00
         -2   -1    0    0    0  501 -0.00000000000E+00  0.00000000000E+00  0.30740097669E+02  0.30740097669E+02  0.00000000000E+00 0. -1.
          2   -1    0    0  501    0  0.00000000000E+00 -0.00000000000E+00 -0.65367264452E+02  0.65367264452E+02  0.00000000000E+00 0.  1.
         23    2    1    2    0    0  0.00000000000E+00  0.00000000000E+00 -0.34627166783E+02  0.96107362121E+02  0.89652575950E+02 0.  0.
        -11    1    3    3    0    0 -0.10037488795E+02 -0.43630841548E+02 -0.19709343280E+02  0.48916865476E+02  0.00000000000E+00 0.  1.
         11    1    3    3    0    0  0.10037488795E+02  0.43630841548E+02 -0.14917823503E+02  0.47190496645E+02  0.00000000000E+00 0. -1.
<mgrwt>
<rscale>  0 0.89652576E+02</rscale>
<asrwt>0</asrwt>
<pdfrwt beam="2">  1        2 0.10056502E-01 0.89652576E+02</pdfrwt>
<pdfrwt beam="1">  1       -2 0.47292458E-02 0.89652576E+02</pdfrwt>
<totfact> 0.11380630E+05</totfact>
</mgrwt>
</event>
<event>
 5    1  0.1197825E+001  0.8901942E+02  0.7546771E-02  0.1305244E+00
         -1   -1    0    0    0  501 -0.00000000000E+00  0.00000000000E+00  0.22832528672E+02  0.22832528672E+02  0.00000000000E+00 0.  1.
          1   -1    0    0  501    0  0.00000000000E+00 -0.00000000000E+00 -0.86767183883E+02  0.86767183883E+02  0.00000000000E+00 0. -1.
         23    2    1    2    0    0  0.00000000000E+00  0.00000000000E+00 -0.63934655211E+02  0.10959971255E+03  0.89019418416E+02 0.  0.
        -13    1    3    3    0    0 -0.24943381031E+02 -0.35969017771E+02 -0.22028063189E+02  0.49001816952E+02  0.00000000000E+00 0.  1.
         13    1    3    3    0    0  0.24943381031E+02  0.35969017771E+02 -0.41906592021E+02  0.60597895603E+02  0.00000000000E+00 0. -1.
<mgrwt>
<rscale>  0 0.89019418E+02</rscale>
<asrwt>0</asrwt>
<pdfrwt beam="2">  1        1 0.13348798E-01 0.89019418E+02</pdfrwt>
<pdfrwt beam="1">  1       -1 0.35126967E-02 0.89019418E+02</pdfrwt>
<totfact> 0.10895304E+05</totfact>
</mgrwt>
</event>
<event>
 5    1  0.1197825E+001  0.9033688E+02  0.7546771E-02  0.1302038E+00
         -1   -1    0    0    0  501 -0.00000000000E+00  0.00000000000E+00  0.30293619684E+03  0.30293619684E+03  0.00000000000E+00 0.  1.
          1   -1    0    0  501    0  0.00000000000E+00 -0.00000000000E+00 -0.67347118663E+01  0.67347118663E+01  0.00000000000E+00 0. -1.
         23    2    1    2    0    0  0.00000000000E+00  0.00000000000E+00  0.29620148498E+03  0.30967090871E+03  0.90336880610E+02 0.  0.
        -11    1    3    3    0    0  0.17459150047E+02 -0.41131069587E+02  0.17073595150E+03  0.17648612393E+03  0.00000000000E+00 0.  1.
         11    1    3    3    0    0 -0.17459150047E+02  0.41131069587E+02  0.12546553348E+03  0.13318478478E+03  0.00000000000E+00 0. -1.
<mgrwt>
<rscale>  0 0.90336881E+02</rscale>
<asrwt>0</asrwt>
<pdfrwt beam="2">  1        1 0.10361097E-02 0.90336881E+02</pdfrwt>
<pdfrwt beam="1">  1       -1 0.46605558E-01 0.90336881E+02</pdfrwt>
<totfact> 0.61831153E+04</totfact>
</mgrwt>
</event>
<event>
 5    1  0.1197825E+001  0.9079168E+02  0.7546771E-02  0.1300946E+00
         -2   -1    0    0    0  501 -0.00000000000E+00  0.00000000000E+00  0.10188193967E+02  0.10188193967E+02  0.00000000000E+00 0.  1.
          2   -1    0    0  501    0  0.00000000000E+00 -0.00000000000E+00 -0.20227158422E+03  0.20227158422E+03  0.00000000000E+00 0. -1.
         23    2    1    2    0    0  0.00000000000E+00  0.00000000000E+00 -0.19208339025E+03  0.21245977819E+03  0.90791676579E+02 0.  0.
        -13    1    3    3    0    0  0.18479469924E+02  0.30895272549E+02 -0.31327866915E+02  0.47722572437E+02  0.00000000000E+00 0.  1.
         13    1    3    3    0    0 -0.18479469924E+02 -0.30895272549E+02 -0.16075552334E+03  0.16473720575E+03  0.00000000000E+00 0. -1.
<mgrwt>
<rscale>  0 0.90791677E+02</rscale>
<asrwt>0</asrwt>
<pdfrwt beam="2">  1        2 0.31118702E-01 0.90791677E+02</pdfrwt>
<pdfrwt beam="1">  1       -2 0.15674146E-02 0.90791677E+02</pdfrwt>
<totfact> 0.15709218E+05</totfact>
</mgrwt>
</event>
<event>
 5    1  0.1197825E+001  0.9074073E+02  0.7546771E-02  0.1301068E+00
         -3   -1    0    0    0  501 -0.00000000000E+00  0.00000000000E+00  0.71344494388E+02  0.71344494388E+02  0.00000000000E+00 0.  1.
          3   -1    0    0  501    0  0.00000000000E+00 -0.00000000000E+00 -0.28852543694E+02  0.28852543694E+02  0.00000000000E+00 0. -1.
         23    2    1    2    0    0  0.00000000000E+00  0.00000000000E+00  0.42491950695E+02  0.10019703808E+03  0.90740732676E+02 0.  0.
        -13    1    3    3    0    0  0.86900095696E+00  0.44507319397E+02  0.30923657994E+02  0.54202668442E+02  0.00000000000E+00 0.  1.
         13    1    3    3    0    0 -0.86900095696E+00 -0.44507319397E+02  0.11568292701E+02  0.45994369640E+02  0.00000000000E+00 0. -1.
<mgrwt>
<rscale>  0 0.90740733E+02</rscale>
<asrwt>0</asrwt>
<pdfrwt beam="2">  1        3 0.44388529E-02 0.90740733E+02</pdfrwt>
<pdfrwt beam="1">  1       -3 0.10976076E-01 0.90740733E+02</pdfrwt>
<totfact> 0.35112664E+04</totfact>
</mgrwt>
</event>
<event>
 5    1  0.1197825E+001  0.8904320E+02  0.7546771E-02  0.1305185E+00
          2   -1    0    0  501    0  0.00000000000E+00  0.00000000000E+00  0.21311564268E+02  0.21311564268E+02  0.00000000000E+00 0. -1.
         -2   -1    0    0    0  501 -0.00000000000E+00 -0.00000000000E+00 -0.93009258027E+02  0.93009258027E+02  0.00000000000E+00 0.  1.
         23    2    1    2    0    0  0.00000000000E+00  0.00000000000E+00 -0.71697693759E+02  0.11432082230E+03  0.89043198055E+02 0.  0.
        -13    1    3    3    0    0 -0.28683676247E+02 -0.15281699831E+02 -0.74915309333E+02  0.81661418095E+02  0.00000000000E+00 0.  1.
         13    1    3    3    0    0  0.28683676247E+02  0.15281699831E+02  0.32176155740E+01  0.32659404200E+02  0.00000000000E+00 0. -1.
<mgrwt>
<rscale>  0 0.89043198E+02</rscale>
<asrwt>0</asrwt>
<pdfrwt beam="1">  1        2 0.32787022E-02 0.89043198E+02</pdfrwt>
<pdfrwt beam="2">  1       -2 0.14309116E-01 0.89043198E+02</pdfrwt>
<totfact> 0.86452013E+04</totfact>
</mgrwt>
</event>
<event>
 5    1  0.1197825E+001  0.9040127E+02  0.7546771E-02  0.1301883E+00
         -2   -1    0    0    0  501 -0.00000000000E+00  0.00000000000E+00  0.14293049100E+03  0.14293049100E+03  0.00000000000E+00 0. -1.
          2   -1    0    0  501    0  0.00000000000E+00 -0.00000000000E+00 -0.14294341449E+02  0.14294341449E+02  0.00000000000E+00 0.  1.
         23    2    1    2    0    0  0.00000000000E+00  0.00000000000E+00  0.12863614955E+03  0.15722483245E+03  0.90401266402E+02 0.  0.
        -11    1    3    3    0    0  0.39378025772E+02 -0.19366510519E+02  0.45473216359E+02  0.63194177338E+02  0.00000000000E+00 0. -1.
         11    1    3    3    0    0 -0.39378025772E+02  0.19366510519E+02  0.83162933193E+02  0.94030655112E+02  0.00000000000E+00 0.  1.
<mgrwt>
<rscale>  0 0.90401266E+02</rscale>
<asrwt>0</asrwt>
<pdfrwt beam="2">  1        2 0.21991296E-02 0.90401266E+02</pdfrwt>
<pdfrwt beam="1">  1       -2 0.21989305E-01 0.90401266E+02</pdfrwt>
<totfact> 0.72628906E+04</totfact>
</mgrwt>
</event>
<event>
 5    1  0.1197825E+001  0.9498320E+02  0.7546771E-02  0.1291214E+00
         -2   -1    0    0    0  501 -0.00000000000E+00  0.00000000000E+00  0.84749418288E+02  0.84749418288E+02  0.00000000000E+00 0.  1.
          2   -1    0    0  501    0  0.00000000000E+00 -0.00000000000E+00 -0.26613186538E+02  0.26613186538E+02  0.00000000000E+00 0. -1.
         23    2    1    2    0    0  0.00000000000E+00  0.00000000000E+00  0.58136231751E+02  0.11136260483E+03  0.94983200154E+02 0.  0.
        -11    1    3    3    0    0  0.38658143989E+02 -0.27374014358E+02  0.33072204327E+02  0.57771614637E+02  0.00000000000E+00 0.  1.
         11    1    3    3    0    0 -0.38658143989E+02  0.27374014358E+02  0.25064027424E+02  0.53590990189E+02  0.00000000000E+00 0. -1.
<mgrwt>
<rscale>  0 0.94983200E+02</rscale>
<asrwt>0</asrwt>
<pdfrwt beam="2">  1        2 0.40943364E-02 0.94983200E+02</pdfrwt>
<pdfrwt beam="1">  1       -2 0.13038372E-01 0.94983200E+02</pdfrwt>
<totfact> 0.75691062E+04</totfact>
</mgrwt>
</event>
<event>
 5    1  0.1197825E+001  0.9010475E+02  0.7546771E-02  0.1302598E+00
         -1   -1    0    0    0  501 -0.00000000000E+00  0.00000000000E+00  0.16620299260E+03  0.16620299260E+03  0.00000000000E+00 0.  1.
          1   -1    0    0  501    0  0.00000000000E+00 -0.00000000000E+00 -0.12212274056E+02  0.12212274056E+02  0.00000000000E+00 0. -1.
         23    2    1    2    0    0  0.00000000000E+00  0.00000000000E+00  0.15399071854E+03  0.17841526665E+03  0.90104750032E+02 0.  0.
        -11    1    3    3    0    0 -0.29296609034E+02  0.31284375648E+02  0.49507566275E+02  0.65482841868E+02  0.00000000000E+00 0.  1.
         11    1    3    3    0    0  0.29296609034E+02 -0.31284375648E+02  0.10448315227E+03  0.11293242479E+03  0.00000000000E+00 0. -1.
<mgrwt>
<rscale>  0 0.90104750E+02</rscale>
<asrwt>0</asrwt>
<pdfrwt beam="2">  1        1 0.18788115E-02 0.90104750E+02</pdfrwt>
<pdfrwt beam="1">  1       -1 0.25569690E-01 0.90104750E+02</pdfrwt>
<totfact> 0.75228729E+04</totfact>
</mgrwt>
</event>
<event>
 5    1  0.1197825E+001  0.8823019E+02  0.7546771E-02  0.1307195E+00
         -2   -1    0    0    0  501 -0.00000000000E+00  0.00000000000E+00  0.76188042461E+02  0.76188042461E+02  0.00000000000E+00 0.  1.
          2   -1    0    0  501    0  0.00000000000E+00 -0.00000000000E+00 -0.25543921725E+02  0.25543921725E+02  0.00000000000E+00 0. -1.
         23    2    1    2    0    0  0.00000000000E+00  0.00000000000E+00  0.50644120735E+02  0.10173196419E+03  0.88230185153E+02 0.  0.
        -13    1    3    3    0    0  0.73995058467E+01  0.42749636823E+02  0.16108120549E+02  0.46279106332E+02  0.00000000000E+00 0.  1.
         13    1    3    3    0    0 -0.73995058467E+01 -0.42749636823E+02  0.34536000186E+02  0.55452857854E+02  0.00000000000E+00 0. -1.
<mgrwt>
<rscale>  0 0.88230185E+02</rscale>
<asrwt>0</asrwt>
<pdfrwt beam="2">  1        2 0.39298341E-02 0.88230185E+02</pdfrwt>
<pdfrwt beam="1">  1       -2 0.11721237E-01 0.88230185E+02</pdfrwt>
<totfact> 0.93449304E+04</totfact>
</mgrwt>
</event>
<event>
 5    1  0.1197825E+001  0.1214247E+03  0.7546771E-02  0.1240765E+00
         -2   -1    0    0    0  501 -0.00000000000E+00  0.00000000000E+00  0.54617914381E+02  0.54617914381E+02  0.00000000000E+00 0.  1.
          2   -1    0    0  501    0  0.00000000000E+00 -0.00000000000E+00 -0.67486872514E+02  0.67486872514E+02  0.00000000000E+00 0. -1.
         23    2    1    2    0    0  0.00000000000E+00  0.00000000000E+00 -0.12868958132E+02  0.12210478690E+03  0.12142474583E+03 0.  0.
        -13    1    3    3    0    0  0.17297933528E+02 -0.55910003177E+02  0.98066779838E+01  0.59340693395E+02  0.00000000000E+00 0.  1.
         13    1    3    3    0    0 -0.17297933528E+02  0.55910003177E+02 -0.22675636116E+02  0.62764093500E+02  0.00000000000E+00 0. -1.
<mgrwt>
<rscale>  0 0.12142475E+03</rscale>
<asrwt>0</asrwt>
<pdfrwt beam="2">  1        2 0.10382596E-01 0.12142475E+03</pdfrwt>
<pdfrwt beam="1">  1       -2 0.84027561E-02 0.12142475E+03</pdfrwt>
<totfact> 0.47980294E+04</totfact>
</mgrwt>
</event>
<event>
 5    1  0.1197825E+001  0.9070244E+02  0.7546771E-02  0.1301160E+00
         -1   -1    0    0    0  501 -0.00000000000E+00  0.00000000000E+00  0.10134473681E+02  0.10134473681E+02  0.00000000000E+00 0.  1.
          1   -1    0    0  501    0  0.00000000000E+00 -0.00000000000E+00 -0.20294423782E+03  0.20294423782E+03  0.00000000000E+00 0. -1.
         23    2    1    2    0    0  0.00000000000E+00  0.00000000000E+00 -0.19280976413E+03  0.21307871150E+03  0.90702437385E+02 0.  0.
        -11    1    3    3    0    0  0.21835644151E+02 -0.33677852012E+02 -0.46807141608E+02  0.61659561927E+02  0.00000000000E+00 0.  1.
         11    1    3    3    0    0 -0.21835644151E+02  0.33677852012E+02 -0.14600262253E+03  0.15141914957E+03  0.00000000000E+00 0. -1.
<mgrwt>
<rscale>  0 0.90702437E+02</rscale>
<asrwt>0</asrwt>
<pdfrwt beam="2">  1        1 0.31222191E-01 0.90702437E+02</pdfrwt>
<pdfrwt beam="1">  1       -1 0.15591498E-02 0.90702437E+02</pdfrwt>
<totfact> 0.12041379E+05</totfact>
</mgrwt>
</event>
<event>
 5    1  0.1197825E+001  0.8798345E+02  0.7546771E-02  0.1307810E+00
         -1   -1    0    0    0  501 -0.00000000000E+00  0.00000000000E+00  0.72186637887E+02  0.72186637887E+02  0.00000000000E+00 0.  1.
          1   -1    0    0  501    0  0.00000000000E+00 -0.00000000000E+00 -0.26809281446E+02  0.26809281446E+02  0.00000000000E+00 0. -1.
         23    2    1    2    0    0  0.00000000000E+00  0.00000000000E+00  0.45377356441E+02  0.98995919333E+02  0.87983450530E+02 0.  0.
        -13    1    3    3    0    0 -0.87800156720E+01 -0.11407568822E+02 -0.24084246721E+02  0.28058372044E+02  0.00000000000E+00 0. -1.
         13    1    3    3    0    0  0.87800156720E+01  0.11407568822E+02  0.69461603162E+02  0.70937547289E+02  0.00000000000E+00 0.  1.
<mgrwt>
<rscale>  0 0.87983451E+02</rscale>
<asrwt>0</asrwt>
<pdfrwt beam="2">  1        1 0.41245049E-02 0.87983451E+02</pdfrwt>
<pdfrwt beam="1">  1       -1 0.11105637E-01 0.87983451E+02</pdfrwt>
<totfact> 0.94298766E+04</totfact>
</mgrwt>
</event>
<event>
 5    1  0.1197825E+001  0.9232287E+02  0.7546771E-02  0.1297322E+00
          1   -1    0    0  501    0  0.00000000000E+00  0.00000000000E+00  0.88544612894E+01  0.88544612894E+01  0.00000000000E+00 0. -1.
         -1   -1    0    0    0  501 -0.00000000000E+00 -0.00000000000E+00 -0.24065585991E+03  0.24065585991E+03  0.00000000000E+00 0.  1.
         23    2    1    2    0    0  0.00000000000E+00  0.00000000000E+00 -0.23180139862E+03  0.24951032120E+03  0.92322868145E+02 0.  0.
        -11    1    3    3    0    0  0.11432737086E+02 -0.41936002874E+02 -0.15790325529E+03  0.16377659736E+03  0.00000000000E+00 0.  1.
         11    1    3    3    0    0 -0.11432737086E+02  0.41936002874E+02 -0.73898143338E+02  0.85733723838E+02  0.00000000000E+00 0. -1.
<mgrwt>
<rscale>  0 0.92322868E+02</rscale>
<asrwt>0</asrwt>
<pdfrwt beam="1">  1        1 0.13622248E-02 0.92322868E+02</pdfrwt>
<pdfrwt beam="2">  1       -1 0.37023979E-01 0.92322868E+02</pdfrwt>
<totfact> 0.63487298E+04</totfact>
</mgrwt>
</event>
<event>
 5    1  0.1197825E+001  0.9339960E+02  0.7546771E-02  0.1294822E+00
          1   -1    0    0  501    0  0.00000000000E+00  0.00000000000E+00  0.13062371243E+03  0.13062371243E+03  0.00000000000E+00 0. -1.
         -1   -1    0    0    0  501 -0.00000000000E+00 -0.00000000000E+00 -0.16695828470E+02  0.16695828470E+02  0.00000000000E+00 0.  1.
         23    2    1    2    0    0  0.00000000000E+00  0.00000000000E+00  0.11392788396E+03  0.14731954090E+03  0.93399595223E+02 0.  0.
        -11    1    3    3    0    0  0.24961195640E+02 -0.67992419460E+00  0.11920946629E+03  0.12179663557E+03  0.00000000000E+00 0. -1.
         11    1    3    3    0    0 -0.24961195640E+02  0.67992419460E+00 -0.52815823233E+01  0.25522905331E+02  0.00000000000E+00 0.  1.
<mgrwt>
<rscale>  0 0.93399595E+02</rscale>
<asrwt>0</asrwt>
<pdfrwt beam="1">  1        1 0.20095955E-01 0.93399595E+02</pdfrwt>
<pdfrwt beam="2">  1       -1 0.25685891E-02 0.93399595E+02</pdfrwt>
<totfact> 0.10244339E+05</totfact>
</mgrwt>
</event>
<event>
 5    1  0.1197825E+001  0.9245208E+02  0.7546771E-02  0.1297020E+00
         -2   -1    0    0    0  501 -0.00000000000E+00  0.00000000000E+00  0.21884300659E+02  0.21884300659E+02  0.00000000000E+00 0.  1.
          2   -1    0    0  501    0  0.00000000000E+00 -0.00000000000E+00 -0.97642900844E+02  0.97642900844E+02  0.00000000000E+00 0. -1.
         23    2    1    2    0    0  0.00000000000E+00  0.00000000000E+00 -0.75758600185E+02  0.11952720150E+03  0.92452076218E+02 0.  0.
        -13    1    3    3    0    0  0.21206308510E+02  0.40808954924E+02 -0.31847289340E+02  0.55940398291E+02  0.00000000000E+00 0. -1.
         13    1    3    3    0    0 -0.21206308510E+02 -0.40808954924E+02 -0.43911310845E+02  0.63586803212E+02  0.00000000000E+00 0.  1.
<mgrwt>
<rscale>  0 0.92452076E+02</rscale>
<asrwt>0</asrwt>
<pdfrwt beam="2">  1        2 0.15021985E-01 0.92452076E+02</pdfrwt>
<pdfrwt beam="1">  1       -2 0.33668155E-02 0.92452076E+02</pdfrwt>
<totfact> 0.11720923E+05</totfact>
</mgrwt>
</event>
<event>
 5    1  0.1197825E+001  0.9209414E+02  0.7546771E-02  0.1297858E+00
         -1   -1    0    0    0  501 -0.00000000000E+00  0.00000000000E+00  0.16838390074E+03  0.16838390074E+03  0.00000000000E+00 0.  1.
          1   -1    0    0  501    0  0.00000000000E+00 -0.00000000000E+00 -0.12592252187E+02  0.12592252187E+02  0.00000000000E+00 0. -1.
         23    2    1    2    0    0  0.00000000000E+00  0.00000000000E+00  0.15579164855E+03  0.18097615292E+03  0.92094137541E+02 0.  0.
        -13    1    3    3    0    0  0.29608921676E+02 -0.27717972444E+02  0.35050847768E+02  0.53605374436E+02  0.00000000000E+00 0. -1.
         13    1    3    3    0    0 -0.29608921676E+02  0.27717972444E+02  0.12074080078E+03  0.12737077849E+03  0.00000000000E+00 0.  1.
<mgrwt>
<rscale>  0 0.92094138E+02</rscale>
<asrwt>0</asrwt>
<pdfrwt beam="2">  1        1 0.19372697E-02 0.92094138E+02</pdfrwt>
<pdfrwt beam="1">  1       -1 0.25905214E-01 0.92094138E+02</pdfrwt>
<totfact> 0.70844312E+04</totfact>
</mgrwt>
</event>
<event>
 5    1  0.1197825E+001  0.9083366E+02  0.7546771E-02  0.1300845E+00
          1   -1    0    0  501    0  0.00000000000E+00  0.00000000000E+00  0.14794595964E+02  0.14794595964E+02  0.00000000000E+00 0. -1.
         -1   -1    0    0    0  501 -0.00000000000E+00 -0.00000000000E+00 -0.13942173836E+03  0.13942173836E+03  0.00000000000E+00 0.  1.
         23    2    1    2    0    0  0.00000000000E+00  0.00000000000E+00 -0.12462714239E+03  0.15421633432E+03  0.90833656484E+02 0.  0.
        -11    1    3    3    0    0 -0.48164799726E+01 -0.29259859068E+02 -0.12071725890E+03  0.12430605146E+03  0.00000000000E+00 0.  1.
         11    1    3    3    0    0  0.48164799726E+01  0.29259859068E+02 -0.39098834893E+01  0.29910282862E+02  0.00000000000E+00 0. -1.
<mgrwt>
<rscale>  0 0.90833656E+02</rscale>
<asrwt>0</asrwt>
<pdfrwt beam="1">  1        1 0.22760917E-02 0.90833656E+02</pdfrwt>
<pdfrwt beam="2">  1       -1 0.21449498E-01 0.90833656E+02</pdfrwt>
<totfact> 0.76797481E+04</totfact>
</mgrwt>
</event>
<event>
 5    1  0.1197825E+001  0.9138706E+02  0.7546771E-02  0.1299527E+00
          1   -1    0    0  501    0  0.00000000000E+00  0.00000000000E+00  0.40512771824E+02  0.40512771824E+02  0.00000000000E+00 0. -1.
         -1   -1    0    0    0  501 -0.00000000000E+00 -0.00000000000E+00 -0.51536803402E+02  0.51536803402E+02  0.00000000000E+00 0.  1.
         23    2    1    2    0    0  0.00000000000E+00  0.00000000000E+00 -0.11024031578E+02  0.92049575226E+02  0.91387061596E+02 0.  0.
        -13    1    3    3    0    0  0.16676366809E+02  0.42480738151E+02 -0.78054574995E+01  0.46299454539E+02  0.00000000000E+00 0.  1.
         13    1    3    3    0    0 -0.16676366809E+02 -0.42480738151E+02 -0.32185740786E+01  0.45750120687E+02  0.00000000000E+00 0. -1.
<mgrwt>
<rscale>  0 0.91387062E+02</rscale>
<asrwt>0</asrwt>
<pdfrwt beam="1">  1        1 0.62327342E-02 0.91387062E+02</pdfrwt>
<pdfrwt beam="2">  1       -1 0.79287389E-02 0.91387062E+02</pdfrwt>
<totfact> 0.90249904E+04</totfact>
</mgrwt>
</event>
<event>
 5    1  0.1197825E+001  0.9229684E+02  0.7546771E-02  0.1297383E+00
          3   -1    0    0  501    0  0.00000000000E+00  0.00000000000E+00  0.67594134613E+01  0.67594134613E+01  0.00000000000E+00 0. -1.
         -3   -1    0    0    0  501 -0.00000000000E+00 -0.00000000000E+00 -0.31506827551E+03  0.31506827551E+03  0.00000000000E+00 0.  1.
         23    2    1    2    0    0  0.00000000000E+00  0.00000000000E+00 -0.30830886205E+03  0.32182768897E+03  0.92296841608E+02 0.  0.
        -13    1    3    3    0    0  0.28934242016E+02 -0.35550158018E+02 -0.13548330726E+03  0.14302702766E+03  0.00000000000E+00 0.  1.
         13    1    3    3    0    0 -0.28934242016E+02  0.35550158018E+02 -0.17282555479E+03  0.17880066131E+03  0.00000000000E+00 0. -1.
<mgrwt>
<rscale>  0 0.92296842E+02</rscale>
<asrwt>0</asrwt>
<pdfrwt beam="1">  1        3 0.10399097E-02 0.92296842E+02</pdfrwt>
<pdfrwt beam="2">  1       -3 0.48472047E-01 0.92296842E+02</pdfrwt>
<totfact> 0.22452541E+04</totfact>
</mgrwt>
</event>
<event>
 5    1  0.1197825E+001  0.9118924E+02  0.7546771E-02  0.1299997E+00
         -1   -1    0    0    0  501 -0.00000000000E+00  0.00000000000E+00  0.18756308946E+03  0.18756308946E+03  0.00000000000E+00 0.  1.
          1   -1    0    0  501    0  0.00000000000E+00 -0.00000000000E+00 -0.11083574313E+02  0.11083574313E+02  0.00000000000E+00 0. -1.
         23    2    1    2    0    0  0.00000000000E+00  0.00000000000E+00  0.17647951514E+03  0.19864666377E+03  0.91189241480E+02 0.  0.
        -13    1    3    3    0    0 -0.37357955430E+02 -0.26123010542E+02  0.90237395419E+02  0.10109805164E+03  0.00000000000E+00 0.  1.
         13    1    3    3    0    0  0.37357955430E+02  0.26123010542E+02  0.86242119725E+02  0.97548612130E+02  0.00000000000E+00 0. -1.
<mgrwt>
<rscale>  0 0.91189241E+02</rscale>
<asrwt>0</asrwt>
<pdfrwt beam="2">  1        1 0.17051654E-02 0.91189241E+02</pdfrwt>
<pdfrwt beam="1">  1       -1 0.28855857E-01 0.91189241E+02</pdfrwt>
<totfact> 0.70656745E+04</totfact>
</mgrwt>
</event>
<event>
 5    1  0.1197825E+001  0.9364058E+02  0.7546771E-02  0.1294268E+00
         -3   -1    0    0    0  501 -0.00000000000E+00  0.00000000000E+00  0.15340052107E+03  0.15340052107E+03  0.00000000000E+00 0.  1.
          3   -1    0    0  501    0  0.00000000000E+00 -0.00000000000E+00 -0.14290301041E+02  0.14290301041E+02  0.00000000000E+00 0. -1.
         23    2    1    2    0    0  0.00000000000E+00  0.00000000000E+00  0.13911022003E+03  0.16769082211E+03  0.93640581500E+02 0.  0.
        -13    1    3    3    0    0  0.28333289150E+02  0.13255510211E+02  0.71682741078E+01  0.32091556190E+02  0.00000000000E+00 0. -1.
         13    1    3    3    0    0 -0.28333289150E+02 -0.13255510211E+02  0.13194194592E+03  0.13559926592E+03  0.00000000000E+00 0.  1.
<mgrwt>
<rscale>  0 0.93640581E+02</rscale>
<asrwt>0</asrwt>
<pdfrwt beam="2">  1        3 0.21985080E-02 0.93640581E+02</pdfrwt>
<pdfrwt beam="1">  1       -3 0.23600079E-01 0.93640581E+02</pdfrwt>
<totfact> 0.28147753E+04</totfact>
</mgrwt>
</event>
<event>
 5    1  0.1197825E+001  0.8670363E+02  0.7546771E-02  0.1311037E+00
          1   -1    0    0  501    0  0.00000000000E+00  0.00000000000E+00  0.76383658997E+02  0.76383658997E+02  0.00000000000E+00 0. -1.
         -1   -1    0    0    0  501 -0.00000000000E+00 -0.00000000000E+00 -0.24604474566E+02  0.24604474566E+02  0.00000000000E+00 0.  1.
         23    2    1    2    0    0  0.00000000000E+00  0.00000000000E+00  0.51779184431E+02  0.10098813356E+03  0.86703628413E+02 0.  0.
        -11    1    3    3    0    0 -0.18398086174E+02 -0.15811440668E+02 -0.15958672101E+02  0.29037397371E+02  0.00000000000E+00 0.  1.
         11    1    3    3    0    0  0.18398086174E+02  0.15811440668E+02  0.67737856533E+02  0.71950736191E+02  0.00000000000E+00 0. -1.
<mgrwt>
<rscale>  0 0.86703628E+02</rscale>
<asrwt>0</asrwt>
<pdfrwt beam="1">  1        1 0.11751332E-01 0.86703628E+02</pdfrwt>
<pdfrwt beam="2">  1       -1 0.37853038E-02 0.86703628E+02</pdfrwt>
<totfact> 0.11477946E+05</totfact>
</mgrwt>
</event>
<event>
 5    1  0.1197825E+001  0.9012075E+02  0.7546771E-02  0.1302560E+00
         -2   -1    0    0    0  501 -0.00000000000E+00  0.00000000000E+00  0.19024284173E+03  0.19024284173E+03  0.00000000000E+00 0.  1.
          2   -1    0    0  501    0  0.00000000000E+00 -0.00000000000E+00 -0.10672870575E+02  0.10672870575E+02  0.00000000000E+00 0. -1.
         23    2    1    2    0    0  0.00000000000E+00  0.00000000000E+00  0.17956997116E+03  0.20091571230E+03  0.90120746280E+02 0.  0.
        -13    1    3    3    0    0  0.34534697783E+02 -0.28875515402E+02  0.85328132541E+02  0.96474509295E+02  0.00000000000E+00 0.  1.
         13    1    3    3    0    0 -0.34534697783E+02  0.28875515402E+02  0.94241838614E+02  0.10444120301E+03  0.00000000000E+00 0. -1.
<mgrwt>
<rscale>  0 0.90120746E+02</rscale>
<asrwt>0</asrwt>
<pdfrwt beam="2">  1        2 0.16419802E-02 0.90120746E+02</pdfrwt>
<pdfrwt beam="1">  1       -2 0.29268127E-01 0.90120746E+02</pdfrwt>
<totfact> 0.65580668E+04</totfact>
</mgrwt>
</event>
<event>
 5    1  0.1197825E+001  0.9286325E+02  0.7546771E-02  0.1296062E+00
         -2   -1    0    0    0  501 -0.00000000000E+00  0.00000000000E+00  0.10038162451E+03  0.10038162451E+03  0.00000000000E+00 0.  1.
          2   -1    0    0  501    0  0.00000000000E+00 -0.00000000000E+00 -0.21476994557E+02  0.21476994557E+02  0.00000000000E+00 0. -1.
         23    2    1    2    0    0  0.00000000000E+00  0.00000000000E+00  0.78904629955E+02  0.12185861907E+03  0.92863245760E+02 0.  0.
        -11    1    3    3    0    0 -0.25079984239E+02  0.33586483868E+02  0.13245713169E+02  0.43960282363E+02  0.00000000000E+00 0. -1.
         11    1    3    3    0    0  0.25079984239E+02 -0.33586483868E+02  0.65658916787E+02  0.77898336707E+02  0.00000000000E+00 0.  1.
<mgrwt>
<rscale>  0 0.92863246E+02</rscale>
<asrwt>0</asrwt>
<pdfrwt beam="2">  1        2 0.33041531E-02 0.92863246E+02</pdfrwt>
<pdfrwt beam="1">  1       -2 0.15443327E-01 0.92863246E+02</pdfrwt>
<totfact> 0.76158372E+04</totfact>
</mgrwt>
</event>
<event>
 5    1  0.1197825E+001  0.9030212E+02  0.7546771E-02  0.1302122E+00
         -1   -1    0    0    0  501 -0.00000000000E+00  0.00000000000E+00  0.44150561140E+02  0.44150561140E+02  0.00000000000E+00 0.  1.
          1   -1    0    0  501    0  0.00000000000E+00 -0.00000000000E+00 -0.46174226378E+02  0.46174226378E+02  0.00000000000E+00 0. -1.
         23    2    1    2    0    0  0.00000000000E+00  0.00000000000E+00 -0.20236652381E+01  0.90324787517E+02  0.90302115252E+02 0.  0.
        -13    1    3    3    0    0 -0.11821718122E+02 -0.43409491848E+02  0.27945140974E+01  0.45077115157E+02  0.00000000000E+00 0.  1.
         13    1    3    3    0    0  0.11821718122E+02  0.43409491848E+02 -0.48181793355E+01  0.45247672360E+02  0.00000000000E+00 0. -1.
<mgrwt>
<rscale>  0 0.90302115E+02</rscale>
<asrwt>0</asrwt>
<pdfrwt beam="2">  1        1 0.71037271E-02 0.90302115E+02</pdfrwt>
<pdfrwt beam="1">  1       -1 0.67923940E-02 0.90302115E+02</pdfrwt>
<totfact> 0.95185849E+04</totfact>
</mgrwt>
</event>
<event>
 5    1  0.1197825E+001  0.8953447E+02  0.7546771E-02  0.1303983E+00
         -3   -1    0    0    0  501 -0.00000000000E+00  0.00000000000E+00  0.10465036715E+03  0.10465036715E+03  0.00000000000E+00 0.  1.
          3   -1    0    0  501    0  0.00000000000E+00 -0.00000000000E+00 -0.19150486272E+02  0.19150486272E+02  0.00000000000E+00 0. -1.
         23    2    1    2    0    0  0.00000000000E+00  0.00000000000E+00  0.85499880879E+02  0.12380085342E+03  0.89534472009E+02 0.  0.
        -11    1    3    3    0    0 -0.35039683963E+02  0.56437142522E+01  0.80477460818E+02  0.87955970022E+02  0.00000000000E+00 0.  1.
         11    1    3    3    0    0  0.35039683963E+02 -0.56437142522E+01  0.50224200606E+01  0.35844883401E+02  0.00000000000E+00 0. -1.
<mgrwt>
<rscale>  0 0.89534472E+02</rscale>
<asrwt>0</asrwt>
<pdfrwt beam="2">  1        3 0.29462287E-02 0.89534472E+02</pdfrwt>
<pdfrwt beam="1">  1       -3 0.16100056E-01 0.89534472E+02</pdfrwt>
<totfact> 0.34654754E+04</totfact>
</mgrwt>
</event>
<event>
 5    1  0.1197825E+001  0.9218203E+02  0.7546771E-02  0.1297652E+00
          1   -1    0    0  501    0  0.00000000000E+00  0.00000000000E+00  0.33680462411E+02  0.33680462411E+02  0.00000000000E+00 0. -1.
         -1   -1    0    0    0  501 -0.00000000000E+00 -0.00000000000E+00 -0.63074595828E+02  0.63074595828E+02  0.00000000000E+00 0.  1.
         23    2    1    2    0    0  0.00000000000E+00  0.00000000000E+00 -0.29394133416E+02  0.96755058239E+02  0.92182027617E+02 0.  0.
        -11    1    3    3    0    0 -0.55021681512E+01  0.43874397218E+02 -0.10463025453E+01  0.44230434483E+02  0.00000000000E+00 0.  1.
         11    1    3    3    0    0  0.55021681512E+01 -0.43874397218E+02 -0.28347830871E+02  0.52524623756E+02  0.00000000000E+00 0. -1.
<mgrwt>
<rscale>  0 0.92182028E+02</rscale>
<asrwt>0</asrwt>
<pdfrwt beam="1">  1        1 0.51816096E-02 0.92182028E+02</pdfrwt>
<pdfrwt beam="2">  1       -1 0.97037839E-02 0.92182028E+02</pdfrwt>
<totfact> 0.85569989E+04</totfact>
</mgrwt>
</event>
<event>
 5    1  0.1197825E+001  0.9599494E+02  0.7546771E-02  0.1288951E+00
          1   -1    0    0  501    0  0.00000000000E+00  0.00000000000E+00  0.23765147218E+03  0.23765147218E+03  0.00000000000E+00 0. -1.
         -1   -1    0    0    0  501 -0.00000000000E+00 -0.00000000000E+00 -0.96938477971E+01  0.96938477971E+01  0.00000000000E+00 0.  1.
         23    2    1    2    0    0  0.00000000000E+00  0.00000000000E+00  0.22795762438E+03  0.24734531998E+03  0.95994941535E+02 0.  0.
        -11    1    3    3    0    0 -0.28284040598E+02  0.26444738374E+02  0.18705969980E+03  0.19102524030E+03  0.00000000000E+00 0. -1.
         11    1    3    3    0    0  0.28284040598E+02 -0.26444738374E+02  0.40897924582E+02  0.56320079681E+02  0.00000000000E+00 0.  1.
<mgrwt>
<rscale>  0 0.95994942E+02</rscale>
<asrwt>0</asrwt>
<pdfrwt beam="1">  1        1 0.36561761E-01 0.95994942E+02</pdfrwt>
<pdfrwt beam="2">  1       -1 0.14913614E-02 0.95994942E+02</pdfrwt>
<totfact> 0.10665375E+05</totfact>
</mgrwt>
</event>
<event>
 5    1  0.1197825E+001  0.8552712E+02  0.7546771E-02  0.1314060E+00
          2   -1    0    0  501    0  0.00000000000E+00  0.00000000000E+00  0.80958028924E+02  0.80958028924E+02  0.00000000000E+00 0. -1.
         -2   -1    0    0    0  501 -0.00000000000E+00 -0.00000000000E+00 -0.22588522188E+02  0.22588522188E+02  0.00000000000E+00 0.  1.
         23    2    1    2    0    0  0.00000000000E+00  0.00000000000E+00  0.58369506736E+02  0.10354655111E+03  0.85527123947E+02 0.  0.
        -13    1    3    3    0    0 -0.30719703446E+02  0.20694948450E+02  0.55058948321E+02  0.66358638181E+02  0.00000000000E+00 0. -1.
         13    1    3    3    0    0  0.30719703446E+02 -0.20694948450E+02  0.33105584159E+01  0.37187912931E+02  0.00000000000E+00 0.  1.
<mgrwt>
<rscale>  0 0.85527124E+02</rscale>
<asrwt>0</asrwt>
<pdfrwt beam="1">  1        2 0.12455081E-01 0.85527124E+02</pdfrwt>
<pdfrwt beam="2">  1       -2 0.34751573E-02 0.85527124E+02</pdfrwt>
<totfact> 0.13751678E+05</totfact>
</mgrwt>
</event>
<event>
 5    1  0.1197825E+001  0.9035315E+02  0.7546771E-02  0.1301999E+00
          1   -1    0    0  501    0  0.00000000000E+00  0.00000000000E+00  0.70330540451E+02  0.70330540451E+02  0.00000000000E+00 0.  1.
         -1   -1    0    0    0  501 -0.00000000000E+00 -0.00000000000E+00 -0.29019012159E+02  0.29019012159E+02  0.00000000000E+00 0. -1.
         23    2    1    2    0    0  0.00000000000E+00  0.00000000000E+00  0.41311528293E+02  0.99349552610E+02  0.90353147339E+02 0.  0.
        -11    1    3    3    0    0  0.32456982933E+02 -0.27752320852E+02  0.44478075848E+01  0.42935184244E+02  0.00000000000E+00 0. -1.
         11    1    3    3    0    0 -0.32456982933E+02  0.27752320852E+02  0.36863720708E+02  0.56414368366E+02  0.00000000000E+00 0.  1.
<mgrwt>
<rscale>  0 0.90353147E+02</rscale>
<asrwt>0</asrwt>
<pdfrwt beam="1">  1        1 0.10820083E-01 0.90353147E+02</pdfrwt>
<pdfrwt beam="2">  1       -1 0.44644634E-02 0.90353147E+02</pdfrwt>
<totfact> 0.10123744E+05</totfact>
</mgrwt>
</event>
<event>
 5    1  0.1197825E+001  0.8547940E+02  0.7546771E-02  0.1314184E+00
         -3   -1    0    0    0  501 -0.00000000000E+00  0.00000000000E+00  0.24284238401E+02  0.24284238401E+02  0.00000000000E+00 0.  1.
          3   -1    0    0  501    0  0.00000000000E+00 -0.00000000000E+00 -0.75220885923E+02  0.75220885923E+02  0.00000000000E+00 0. -1.
         23    2    1    2    0    0  0.00000000000E+00  0.00000000000E+00 -0.50936647522E+02  0.99505124324E+02  0.85479399307E+02 0.  0.
        -13    1    3    3    0    0 -0.14317553955E+02 -0.36805658564E+02 -0.64458711064E+01  0.40014973546E+02  0.00000000000E+00 0.  1.
         13    1    3    3    0    0  0.14317553955E+02  0.36805658564E+02 -0.44490776415E+02  0.59490150778E+02  0.00000000000E+00 0. -1.
<mgrwt>
<rscale>  0 0.85479399E+02</rscale>
<asrwt>0</asrwt>
<pdfrwt beam="2">  1        3 0.11572444E-01 0.85479399E+02</pdfrwt>
<pdfrwt beam="1">  1       -3 0.37360367E-02 0.85479399E+02</pdfrwt>
<totfact> 0.41333085E+04</totfact>
</mgrwt>
</event>
<event>
 5    1  0.1197825E+001  0.8802094E+02  0.7546771E-02  0.1307716E+00
         -1   -1    0    0    0  501 -0.00000000000E+00  0.00000000000E+00  0.44869605811E+02  0.44869605811E+02  0.00000000000E+00 0.  1.
          1   -1    0    0  501    0  0.00000000000E+00 -0.00000000000E+00 -0.43167782093E+02  0.43167782093E+02  0.00000000000E+00 0. -1.
         23    2    1    2    0    0  0.00000000000E+00  0.00000000000E+00  0.17018237178E+01  0.88037387904E+02  0.88020937651E+02 0.  0.
        -11    1    3    3    0    0  0.13327142701E+02  0.40856046609E+02 -0.86425473060E+01  0.43835178807E+02  0.00000000000E+00 0. -1.
         11    1    3    3    0    0 -0.13327142701E+02 -0.40856046609E+02  0.10344371024E+02  0.44202209097E+02  0.00000000000E+00 0.  1.
<mgrwt>
<rscale>  0 0.88020938E+02</rscale>
<asrwt>0</asrwt>
<pdfrwt beam="2">  1        1 0.66411972E-02 0.88020938E+02</pdfrwt>
<pdfrwt beam="1">  1       -1 0.69030163E-02 0.88020938E+02</pdfrwt>
<totfact> 0.10123569E+05</totfact>
</mgrwt>
</event>
<event>
 5    1  0.1197825E+001  0.6250955E+02  0.7546771E-02  0.1387592E+00
          1   -1    0    0  501    0  0.00000000000E+00  0.00000000000E+00  0.41281845960E+02  0.41281845960E+02  0.00000000000E+00 0. -1.
         -1   -1    0    0    0  501 -0.00000000000E+00 -0.00000000000E+00 -0.23663206580E+02  0.23663206580E+02  0.00000000000E+00 0.  1.
         23    2    1    2    0    0  0.00000000000E+00  0.00000000000E+00  0.17618639380E+02  0.64945052541E+02  0.62509546438E+02 0.  0.
        -11    1    3    3    0    0 -0.15488005937E+02 -0.26719827066E+02  0.38230197683E+01  0.31119816299E+02  0.00000000000E+00 0. -1.
         11    1    3    3    0    0  0.15488005937E+02  0.26719827066E+02  0.13795619612E+02  0.33825236242E+02  0.00000000000E+00 0.  1.
<mgrwt>
<rscale>  0 0.62509546E+02</rscale>
<asrwt>0</asrwt>
<pdfrwt beam="1">  1        1 0.63510532E-02 0.62509546E+02</pdfrwt>
<pdfrwt beam="2">  1       -1 0.36404933E-02 0.62509546E+02</pdfrwt>
<totfact> 0.25567634E+05</totfact>
</mgrwt>
</event>
<event>
 5    1  0.1197825E+001  0.9174757E+02  0.7546771E-02  0.1298674E+00
          1   -1    0    0  501    0  0.00000000000E+00  0.00000000000E+00  0.21926615584E+03  0.21926615584E+03  0.00000000000E+00 0. -1.
         -1   -1    0    0    0  501 -0.00000000000E+00 -0.00000000000E+00 -0.95974863793E+01  0.95974863793E+01  0.00000000000E+00 0.  1.
         23    2    1    2    0    0  0.00000000000E+00  0.00000000000E+00  0.20966866946E+03  0.22886364222E+03  0.91747565506E+02 0.  0.
        -13    1    3    3    0    0  0.20262593458E+02  0.38658204861E+02  0.14005657734E+03  0.14669994667E+03  0.00000000000E+00 0. -1.
         13    1    3    3    0    0 -0.20262593458E+02 -0.38658204861E+02  0.69612092113E+02  0.82163695542E+02  0.00000000000E+00 0.  1.
<mgrwt>
<rscale>  0 0.91747566E+02</rscale>
<asrwt>0</asrwt>
<pdfrwt beam="1">  1        1 0.33733251E-01 0.91747566E+02</pdfrwt>
<pdfrwt beam="2">  1       -1 0.14765365E-02 0.91747566E+02</pdfrwt>
<totfact> 0.11854519E+05</totfact>
</mgrwt>
</event>
<event>
 5    1  0.1197825E+001  0.9095742E+02  0.7546771E-02  0.1300550E+00
          2   -1    0    0  501    0  0.00000000000E+00  0.00000000000E+00  0.17628151399E+02  0.17628151399E+02  0.00000000000E+00 0. -1.
         -2   -1    0    0    0  501 -0.00000000000E+00 -0.00000000000E+00 -0.11733011459E+03  0.11733011459E+03  0.00000000000E+00 0.  1.
         23    2    1    2    0    0  0.00000000000E+00  0.00000000000E+00 -0.99701963186E+02  0.13495826599E+03  0.90957419128E+02 0.  0.
        -13    1    3    3    0    0  0.73160598240E+01 -0.41671921299E+02 -0.74600717624E+02  0.85763283671E+02  0.00000000000E+00 0.  1.
         13    1    3    3    0    0 -0.73160598240E+01  0.41671921299E+02 -0.25101245562E+02  0.49194982314E+02  0.00000000000E+00 0. -1.
<mgrwt>
<rscale>  0 0.90957419E+02</rscale>
<asrwt>0</asrwt>
<pdfrwt beam="1">  1        2 0.27120233E-02 0.90957419E+02</pdfrwt>
<pdfrwt beam="2">  1       -2 0.18050787E-01 0.90957419E+02</pdfrwt>
<totfact> 0.76424890E+04</totfact>
</mgrwt>
</event>
<event>
 5    1  0.1197825E+001  0.9284083E+02  0.7546771E-02  0.1296114E+00
         -1   -1    0    0    0  501 -0.00000000000E+00  0.00000000000E+00  0.63217835073E+02  0.63217835073E+02  0.00000000000E+00 0.  1.
          1   -1    0    0  501    0  0.00000000000E+00 -0.00000000000E+00 -0.34086187949E+02  0.34086187949E+02  0.00000000000E+00 0. -1.
         23    2    1    2    0    0  0.00000000000E+00  0.00000000000E+00  0.29131647123E+02  0.97304023022E+02  0.92840831708E+02 0.  0.
        -11    1    3    3    0    0 -0.60914680870E+01  0.45389277840E+02  0.66140953223E+01  0.46271360291E+02  0.00000000000E+00 0. -1.
         11    1    3    3    0    0  0.60914680870E+01 -0.45389277840E+02  0.22517551801E+02  0.51032662731E+02  0.00000000000E+00 0.  1.
<mgrwt>
<rscale>  0 0.92840832E+02</rscale>
<asrwt>0</asrwt>
<pdfrwt beam="2">  1        1 0.52440289E-02 0.92840832E+02</pdfrwt>
<pdfrwt beam="1">  1       -1 0.97258208E-02 0.92840832E+02</pdfrwt>
<totfact> 0.84004053E+04</totfact>
</mgrwt>
</event>
<event>
 5    1  0.1197825E+001  0.8640599E+02  0.7546771E-02  0.1311796E+00
         -1   -1    0    0    0  501 -0.00000000000E+00  0.00000000000E+00  0.16315262364E+02  0.16315262364E+02  0.00000000000E+00 0.  1.
          1   -1    0    0  501    0  0.00000000000E+00 -0.00000000000E+00 -0.11440201539E+03  0.11440201539E+03  0.00000000000E+00 0. -1.
         23    2    1    2    0    0  0.00000000000E+00  0.00000000000E+00 -0.98086753027E+02  0.13071727776E+03  0.86405992758E+02 0.  0.
        -13    1    3    3    0    0  0.51438227944E+01  0.27333224536E+02 -0.99056762928E+02  0.10288734790E+03  0.00000000000E+00 0. -1.
         13    1    3    3    0    0 -0.51438227944E+01 -0.27333224536E+02  0.97000990101E+00  0.27829929854E+02  0.00000000000E+00 0.  1.
<mgrwt>
<rscale>  0 0.86405993E+02</rscale>
<asrwt>0</asrwt>
<pdfrwt beam="2">  1        1 0.17600310E-01 0.86405993E+02</pdfrwt>
<pdfrwt beam="1">  1       -1 0.25100404E-02 0.86405993E+02</pdfrwt>
<totfact> 0.12356948E+05</totfact>
</mgrwt>
</event>
<event>
 5    1  0.1197825E+001  0.9059318E+02  0.7546771E-02  0.1301422E+00
          3   -1    0    0  501    0  0.00000000000E+00  0.00000000000E+00  0.31609782221E+03  0.31609782221E+03  0.00000000000E+00 0. -1.
         -3   -1    0    0    0  501 -0.00000000000E+00 -0.00000000000E+00 -0.64909691769E+01  0.64909691769E+01  0.00000000000E+00 0.  1.
         23    2    1    2    0    0  0.00000000000E+00  0.00000000000E+00  0.30960685303E+03  0.32258879138E+03  0.90593183427E+02 0.  0.
        -11    1    3    3    0    0 -0.18027251004E+02 -0.39074786406E+02  0.10445036634E+03  0.11296769334E+03  0.00000000000E+00 0.  1.
         11    1    3    3    0    0  0.18027251004E+02  0.39074786406E+02  0.20515648669E+03  0.20962109804E+03  0.00000000000E+00 0. -1.
<mgrwt>
<rscale>  0 0.90593183E+02</rscale>
<asrwt>0</asrwt>
<pdfrwt beam="1">  1        3 0.48630422E-01 0.90593183E+02</pdfrwt>
<pdfrwt beam="2">  1       -3 0.99861089E-03 0.90593183E+02</pdfrwt>
<totfact> 0.23585084E+04</totfact>
</mgrwt>
</event>
<event>
 5    1  0.1197825E+001  0.9134141E+02  0.7546771E-02  0.1299635E+00
          2   -1    0    0  501    0  0.00000000000E+00  0.00000000000E+00  0.23307064425E+03  0.23307064425E+03  0.00000000000E+00 0. -1.
         -2   -1    0    0    0  501 -0.00000000000E+00 -0.00000000000E+00 -0.89492754214E+01  0.89492754214E+01  0.00000000000E+00 0.  1.
         23    2    1    2    0    0  0.00000000000E+00  0.00000000000E+00  0.22412136883E+03  0.24201991967E+03  0.91341412032E+02 0.  0.
        -13    1    3    3    0    0  0.30641941129E+02 -0.17656620784E+02  0.35490434737E+02  0.50102452749E+02  0.00000000000E+00 0.  1.
         13    1    3    3    0    0 -0.30641941129E+02  0.17656620784E+02  0.18863093409E+03  0.19191746692E+03  0.00000000000E+00 0. -1.
<mgrwt>
<rscale>  0 0.91341412E+02</rscale>
<asrwt>0</asrwt>
<pdfrwt beam="1">  1        2 0.35857018E-01 0.91341412E+02</pdfrwt>
<pdfrwt beam="2">  1       -2 0.13768118E-02 0.91341412E+02</pdfrwt>
<totfact> 0.16278090E+05</totfact>
</mgrwt>
</event>
<event>
 5    1  0.1197825E+001  0.9051455E+02  0.7546771E-02  0.1301610E+00
          2   -1    0    0  501    0  0.00000000000E+00  0.00000000000E+00  0.46567412782E+02  0.46567412782E+02  0.00000000000E+00 0. -1.
         -2   -1    0    0    0  501 -0.00000000000E+00 -0.00000000000E+00 -0.43983996851E+02  0.43983996851E+02  0.00000000000E+00 0.  1.
         23    2    1    2    0    0  0.00000000000E+00  0.00000000000E+00  0.25834159314E+01  0.90551409633E+02  0.90514549928E+02 0.  0.
        -13    1    3    3    0    0  0.12279028909E+02  0.38641254339E+02  0.21407104995E+02  0.45849593587E+02  0.00000000000E+00 0. -1.
         13    1    3    3    0    0 -0.12279028909E+02 -0.38641254339E+02 -0.18823689064E+02  0.44701816046E+02  0.00000000000E+00 0.  1.
<mgrwt>
<rscale>  0 0.90514550E+02</rscale>
<asrwt>0</asrwt>
<pdfrwt beam="1">  1        2 0.71642173E-02 0.90514550E+02</pdfrwt>
<pdfrwt beam="2">  1       -2 0.67667688E-02 0.90514550E+02</pdfrwt>
<totfact> 0.10131257E+05</totfact>
</mgrwt>
</event>
<event>
 5    1  0.1197825E+001  0.9100802E+02  0.7546771E-02  0.1300429E+00
          2   -1    0    0  501    0  0.00000000000E+00  0.00000000000E+00  0.25270722245E+03  0.25270722245E+03  0.00000000000E+00 0.  1.
         -2   -1    0    0    0  501 -0.00000000000E+00 -0.00000000000E+00 -0.81937310551E+01  0.81937310551E+01  0.00000000000E+00 0. -1.
         23    2    1    2    0    0  0.00000000000E+00  0.00000000000E+00  0.24451349139E+03  0.26090095350E+03  0.91008021985E+02 0.  0.
        -13    1    3    3    0    0  0.37206356704E+02  0.25687539667E+02  0.10751231310E+03  0.11663215741E+03  0.00000000000E+00 0.  1.
         13    1    3    3    0    0 -0.37206356704E+02 -0.25687539667E+02  0.13700117829E+03  0.14426879609E+03  0.00000000000E+00 0. -1.
<mgrwt>
<rscale>  0 0.91008022E+02</rscale>
<asrwt>0</asrwt>
<pdfrwt beam="1">  1        2 0.38878028E-01 0.91008022E+02</pdfrwt>
<pdfrwt beam="2">  1       -2 0.12605742E-02 0.91008022E+02</pdfrwt>
<totfact> 0.16936972E+05</totfact>
</mgrwt>
</event>
<event>
 5    1  0.1197825E+001  0.9113939E+02  0.7546771E-02  0.1300116E+00
         -1   -1    0    0    0  501 -0.00000000000E+00  0.00000000000E+00  0.34620136500E+02  0.34620136500E+02  0.00000000000E+00 0. -1.
          1   -1    0    0  501    0  0.00000000000E+00 -0.00000000000E+00 -0.59982355235E+02  0.59982355235E+02  0.00000000000E+00 0.  1.
         23    2    1    2    0    0  0.00000000000E+00  0.00000000000E+00 -0.25362218735E+02  0.94602491735E+02  0.91139394903E+02 0.  0.
        -13    1    3    3    0    0  0.25358137829E+02 -0.37836479399E+02 -0.11226801337E+02  0.46911356788E+02  0.00000000000E+00 0.  1.
         13    1    3    3    0    0 -0.25358137829E+02  0.37836479399E+02 -0.14135417398E+02  0.47691134946E+02  0.00000000000E+00 0. -1.
<mgrwt>
<rscale>  0 0.91139395E+02</rscale>
<asrwt>0</asrwt>
<pdfrwt beam="2">  1        1 0.92280546E-02 0.91139395E+02</pdfrwt>
<pdfrwt beam="1">  1       -1 0.53261749E-02 0.91139395E+02</pdfrwt>
<totfact> 0.96476945E+04</totfact>
</mgrwt>
</event>
<event>
 5    1  0.1197825E+001  0.9464832E+02  0.7546771E-02  0.1291970E+00
         -3   -1    0    0    0  501 -0.00000000000E+00  0.00000000000E+00  0.75594727485E+01  0.75594727485E+01  0.00000000000E+00 0.  1.
          3   -1    0    0  501    0  0.00000000000E+00 -0.00000000000E+00 -0.29626086295E+03  0.29626086295E+03  0.00000000000E+00 0. -1.
         23    2    1    2    0    0  0.00000000000E+00  0.00000000000E+00 -0.28870139020E+03  0.30382033570E+03  0.94648315778E+02 0.  0.
        -11    1    3    3    0    0  0.26078112742E+01 -0.40987397377E+02 -0.68877748901E+02  0.80192965508E+02  0.00000000000E+00 0.  1.
         11    1    3    3    0    0 -0.26078112742E+01  0.40987397377E+02 -0.21982364130E+03  0.22362737019E+03  0.00000000000E+00 0. -1.
<mgrwt>
<rscale>  0 0.94648316E+02</rscale>
<asrwt>0</asrwt>
<pdfrwt beam="2">  1        3 0.45578598E-01 0.94648316E+02</pdfrwt>
<pdfrwt beam="1">  1       -3 0.11629957E-02 0.94648316E+02</pdfrwt>
<totfact> 0.21598003E+04</totfact>
</mgrwt>
</event>
<event>
 5    1  0.1197825E+001  0.8854442E+02  0.7546771E-02  0.1306415E+00
          3   -1    0    0  501    0  0.00000000000E+00  0.00000000000E+00  0.21888855029E+02  0.21888855029E+02  0.00000000000E+00 0. -1.
         -3   -1    0    0    0  501 -0.00000000000E+00 -0.00000000000E+00 -0.89544582587E+02  0.89544582587E+02  0.00000000000E+00 0.  1.
         23    2    1    2    0    0  0.00000000000E+00  0.00000000000E+00 -0.67655727558E+02  0.11143343762E+03  0.88544415676E+02 0.  0.
        -13    1    3    3    0    0  0.82112714948E+01 -0.42285482018E+02 -0.46695493194E+02  0.63529174823E+02  0.00000000000E+00 0.  1.
         13    1    3    3    0    0 -0.82112714948E+01  0.42285482018E+02 -0.20960234364E+02  0.47904262792E+02  0.00000000000E+00 0. -1.
<mgrwt>
<rscale>  0 0.88544416E+02</rscale>
<asrwt>0</asrwt>
<pdfrwt beam="1">  1        3 0.33675162E-02 0.88544416E+02</pdfrwt>
<pdfrwt beam="2">  1       -3 0.13776090E-01 0.88544416E+02</pdfrwt>
<totfact> 0.36640397E+04</totfact>
</mgrwt>
</event>
<event>
 5    1  0.1197825E+001  0.9141322E+02  0.7546771E-02  0.1299465E+00
         -3   -1    0    0    0  501 -0.00000000000E+00  0.00000000000E+00  0.23135852640E+02  0.23135852640E+02  0.00000000000E+00 0.  1.
          3   -1    0    0  501    0  0.00000000000E+00 -0.00000000000E+00 -0.90296824018E+02  0.90296824018E+02  0.00000000000E+00 0. -1.
         23    2    1    2    0    0  0.00000000000E+00  0.00000000000E+00 -0.67160971378E+02  0.11343267666E+03  0.91413215988E+02 0.  0.
        -11    1    3    3    0    0 -0.21027668945E+02  0.29464043374E+02 -0.68209691090E+02  0.77219522608E+02  0.00000000000E+00 0. -1.
         11    1    3    3    0    0  0.21027668945E+02 -0.29464043374E+02  0.10487197123E+01  0.36213154050E+02  0.00000000000E+00 0.  1.
<mgrwt>
<rscale>  0 0.91413216E+02</rscale>
<asrwt>0</asrwt>
<pdfrwt beam="2">  1        3 0.13891819E-01 0.91413216E+02</pdfrwt>
<pdfrwt beam="1">  1       -3 0.35593619E-02 0.91413216E+02</pdfrwt>
<totfact> 0.33464910E+04</totfact>
</mgrwt>
</event>
<event>
 5    1  0.1197825E+001  0.9194752E+02  0.7546771E-02  0.1298203E+00
         -1   -1    0    0    0  501 -0.00000000000E+00  0.00000000000E+00  0.11367542534E+03  0.11367542534E+03  0.00000000000E+00 0.  1.
          1   -1    0    0  501    0  0.00000000000E+00 -0.00000000000E+00 -0.18593170337E+02  0.18593170337E+02  0.00000000000E+00 0. -1.
         23    2    1    2    0    0  0.00000000000E+00  0.00000000000E+00  0.95082255000E+02  0.13226859568E+03  0.91947518650E+02 0.  0.
        -13    1    3    3    0    0 -0.26591260214E+02 -0.32100157771E+02  0.19644492296E+02  0.46080595985E+02  0.00000000000E+00 0. -1.
         13    1    3    3    0    0  0.26591260214E+02  0.32100157771E+02  0.75437762705E+02  0.86187999690E+02  0.00000000000E+00 0.  1.
<mgrwt>
<rscale>  0 0.91947519E+02</rscale>
<asrwt>0</asrwt>
<pdfrwt beam="2">  1        1 0.28604878E-02 0.91947519E+02</pdfrwt>
<pdfrwt beam="1">  1       -1 0.17488526E-01 0.91947519E+02</pdfrwt>
<totfact> 0.77683160E+04</totfact>
</mgrwt>
</event>
<event>
 5    1  0.1197825E+001  0.9094588E+02  0.7546771E-02  0.1300577E+00
         -3   -1    0    0    0  501 -0.00000000000E+00  0.00000000000E+00  0.20209811331E+02  0.20209811331E+02  0.00000000000E+00 0.  1.
          3   -1    0    0  501    0  0.00000000000E+00 -0.00000000000E+00 -0.10231605679E+03  0.10231605679E+03  0.00000000000E+00 0. -1.
         23    2    1    2    0    0  0.00000000000E+00  0.00000000000E+00 -0.82106245458E+02  0.12252586812E+03  0.90945878496E+02 0.  0.
        -13    1    3    3    0    0 -0.27590615469E+02  0.34649871967E+02 -0.27186860579E+02  0.51970963792E+02  0.00000000000E+00 0.  1.
         13    1    3    3    0    0  0.27590615469E+02 -0.34649871967E+02 -0.54919384879E+02  0.70554904328E+02  0.00000000000E+00 0. -1.
<mgrwt>
<rscale>  0 0.90945878E+02</rscale>
<asrwt>0</asrwt>
<pdfrwt beam="2">  1        3 0.15740932E-01 0.90945878E+02</pdfrwt>
<pdfrwt beam="1">  1       -3 0.31092018E-02 0.90945878E+02</pdfrwt>
<totfact> 0.33303033E+04</totfact>
</mgrwt>
</event>
<event>
 5    1  0.1197825E+001  0.9097081E+02  0.7546771E-02  0.1300518E+00
          2   -1    0    0  501    0  0.00000000000E+00  0.00000000000E+00  0.13367678172E+03  0.13367678172E+03  0.00000000000E+00 0. -1.
         -2   -1    0    0    0  501 -0.00000000000E+00 -0.00000000000E+00 -0.15477048985E+02  0.15477048985E+02  0.00000000000E+00 0.  1.
         23    2    1    2    0    0  0.00000000000E+00  0.00000000000E+00  0.11819973273E+03  0.14915383070E+03  0.90970810677E+02 0.  0.
        -13    1    3    3    0    0  0.15429493831E+02  0.21451588035E+02  0.11980154927E+03  0.12268109519E+03  0.00000000000E+00 0. -1.
         13    1    3    3    0    0 -0.15429493831E+02 -0.21451588035E+02 -0.16018165425E+01  0.26472735509E+02  0.00000000000E+00 0.  1.
<mgrwt>
<rscale>  0 0.90970811E+02</rscale>
<asrwt>0</asrwt>
<pdfrwt beam="1">  1        2 0.20565658E-01 0.90970811E+02</pdfrwt>
<pdfrwt beam="2">  1       -2 0.23810845E-02 0.90970811E+02</pdfrwt>
<totfact> 0.13534204E+05</totfact>
</mgrwt>
</event>
<event>
 5    1  0.1197825E+001  0.8698611E+02  0.7546771E-02  0.1310319E+00
         -2   -1    0    0    0  501 -0.00000000000E+00  0.00000000000E+00  0.21598514149E+02  0.21598514149E+02  0.00000000000E+00 0.  1.
          2   -1    0    0  501    0  0.00000000000E+00 -0.00000000000E+00 -0.87582226886E+02  0.87582226886E+02  0.00000000000E+00 0. -1.
         23    2    1    2    0    0  0.00000000000E+00  0.00000000000E+00 -0.65983712737E+02  0.10918074104E+03  0.86986113067E+02 0.  0.
        -13    1    3    3    0    0 -0.18927182053E+02  0.39219099921E+01  0.15911173824E+02  0.25035675564E+02  0.00000000000E+00 0.  1.
         13    1    3    3    0    0  0.18927182053E+02 -0.39219099921E+01 -0.81894886561E+02  0.84145065472E+02  0.00000000000E+00 0. -1.
<mgrwt>
<rscale>  0 0.86986113E+02</rscale>
<asrwt>0</asrwt>
<pdfrwt beam="2">  1        2 0.13474189E-01 0.86986113E+02</pdfrwt>
<pdfrwt beam="1">  1       -2 0.33228483E-02 0.86986113E+02</pdfrwt>
<totfact> 0.13423401E+05</totfact>
</mgrwt>
</event>
<event>
 5    1  0.1197825E+001  0.9222066E+02  0.7546771E-02  0.1297561E+00
          1   -1    0    0  501    0  0.00000000000E+00  0.00000000000E+00  0.47061765923E+02  0.47061765923E+02  0.00000000000E+00 0. -1.
         -1   -1    0    0    0  501 -0.00000000000E+00 -0.00000000000E+00 -0.45178131402E+02  0.45178131402E+02  0.00000000000E+00 0.  1.
         23    2    1    2    0    0  0.00000000000E+00  0.00000000000E+00  0.18836345209E+01  0.92239897324E+02  0.92220662432E+02 0.  0.
        -11    1    3    3    0    0 -0.19407744159E+02  0.30866372422E+02 -0.27291170030E+02  0.45543401734E+02  0.00000000000E+00 0.  1.
         11    1    3    3    0    0  0.19407744159E+02 -0.30866372422E+02  0.29174804551E+02  0.46696495591E+02  0.00000000000E+00 0. -1.
<mgrwt>
<rscale>  0 0.92220662E+02</rscale>
<asrwt>0</asrwt>
<pdfrwt beam="1">  1        1 0.72402717E-02 0.92220662E+02</pdfrwt>
<pdfrwt beam="2">  1       -1 0.69504818E-02 0.92220662E+02</pdfrwt>
<totfact> 0.89992154E+04</totfact>
</mgrwt>
</event>
<event>
 5    1  0.1197825E+001  0.9881084E+02  0.7546771E-02  0.1282817E+00
          2   -1    0    0  501    0  0.00000000000E+00  0.00000000000E+00  0.24445996551E+03  0.24445996551E+03  0.00000000000E+00 0.  1.
         -2   -1    0    0    0  501 -0.00000000000E+00 -0.00000000000E+00 -0.99848477979E+01  0.99848477979E+01  0.00000000000E+00 0. -1.
         23    2    1    2    0    0  0.00000000000E+00  0.00000000000E+00  0.23447511771E+03  0.25444481330E+03  0.98810840463E+02 0.  0.
        -13    1    3    3    0    0  0.29822923345E+02 -0.35510906991E+02  0.16112450608E+03  0.16766495678E+03  0.00000000000E+00 0. -1.
         13    1    3    3    0    0 -0.29822923345E+02  0.35510906991E+02  0.73350611623E+02  0.86779856520E+02  0.00000000000E+00 0.  1.
<mgrwt>
<rscale>  0 0.98810840E+02</rscale>
<asrwt>0</asrwt>
<pdfrwt beam="1">  1        2 0.37609221E-01 0.98810840E+02</pdfrwt>
<pdfrwt beam="2">  1       -2 0.15361306E-02 0.98810840E+02</pdfrwt>
<totfact> 0.13405814E+05</totfact>
</mgrwt>
</event>
<event>
 5    1  0.1197825E+001  0.9336134E+02  0.7546771E-02  0.1294910E+00
         -2   -1    0    0    0  501 -0.00000000000E+00  0.00000000000E+00  0.49718671544E+02  0.49718671544E+02  0.00000000000E+00 0. -1.
          2   -1    0    0  501    0  0.00000000000E+00 -0.00000000000E+00 -0.43828299186E+02  0.43828299186E+02  0.00000000000E+00 0.  1.
         23    2    1    2    0    0  0.00000000000E+00  0.00000000000E+00  0.58903723585E+01  0.93546970730E+02  0.93361336999E+02 0.  0.
        -11    1    3    3    0    0  0.30903209081E+02  0.34842825517E+02 -0.23192117890E+00  0.46573432437E+02  0.00000000000E+00 0.  1.
         11    1    3    3    0    0 -0.30903209081E+02 -0.34842825517E+02  0.61222935374E+01  0.46973538293E+02  0.00000000000E+00 0. -1.
<mgrwt>
<rscale>  0 0.93361337E+02</rscale>
<asrwt>0</asrwt>
<pdfrwt beam="2">  1        2 0.67428153E-02 0.93361337E+02</pdfrwt>
<pdfrwt beam="1">  1       -2 0.76490264E-02 0.93361337E+02</pdfrwt>
<totfact> 0.91218346E+04</totfact>
</mgrwt>
</event>
<event>
 5    1  0.1197825E+001  0.9329100E+02  0.7546771E-02  0.1295072E+00
         -2   -1    0    0    0  501 -0.00000000000E+00  0.00000000000E+00  0.26247264214E+02  0.26247264214E+02  0.00000000000E+00 0.  1.
          2   -1    0    0  501    0  0.00000000000E+00 -0.00000000000E+00 -0.82896354226E+02  0.82896354226E+02  0.00000000000E+00 0. -1.
         23    2    1    2    0    0  0.00000000000E+00  0.00000000000E+00 -0.56649090013E+02  0.10914361844E+03  0.93290996602E+02 0.  0.
        -11    1    3    3    0    0  0.39064238586E+02  0.21044905693E+02 -0.45152779946E+02  0.63306210823E+02  0.00000000000E+00 0. -1.
         11    1    3    3    0    0 -0.39064238586E+02 -0.21044905693E+02 -0.11496310067E+02  0.45837407617E+02  0.00000000000E+00 0.  1.
<mgrwt>
<rscale>  0 0.93290997E+02</rscale>
<asrwt>0</asrwt>
<pdfrwt beam="2">  1        2 0.12753285E-01 0.93290997E+02</pdfrwt>
<pdfrwt beam="1">  1       -2 0.40380407E-02 0.93290997E+02</pdfrwt>
<totfact> 0.10886618E+05</totfact>
</mgrwt>
</event>
<event>
 5    1  0.1197825E+001  0.8003219E+02  0.7546771E-02  0.1328960E+00
          1   -1    0    0  501    0  0.00000000000E+00  0.00000000000E+00  0.35717592327E+02  0.35717592327E+02  0.00000000000E+00 0. -1.
         -1   -1    0    0    0  501 -0.00000000000E+00 -0.00000000000E+00 -0.44831906064E+02  0.44831906064E+02  0.00000000000E+00 0.  1.
         23    2    1    2    0    0  0.00000000000E+00  0.00000000000E+00 -0.91143137370E+01  0.80549498392E+02  0.80032187127E+02 0.  0.
        -11    1    3    3    0    0 -0.25947252165E+02  0.23130902784E+02 -0.24509249594E+02  0.42532362669E+02  0.00000000000E+00 0.  1.
         11    1    3    3    0    0  0.25947252165E+02 -0.23130902784E+02  0.15394935857E+02  0.38017135723E+02  0.00000000000E+00 0. -1.
<mgrwt>
<rscale>  0 0.80032187E+02</rscale>
<asrwt>0</asrwt>
<pdfrwt beam="1">  1        1 0.54950142E-02 0.80032187E+02</pdfrwt>
<pdfrwt beam="2">  1       -1 0.68972163E-02 0.80032187E+02</pdfrwt>
<totfact> 0.12849020E+05</totfact>
</mgrwt>
</event>
<event>
 5    1  0.1197825E+001  0.8985417E+02  0.7546771E-02  0.1303205E+00
          1   -1    0    0  501    0  0.00000000000E+00  0.00000000000E+00  0.14939833113E+03  0.14939833113E+03  0.00000000000E+00 0. -1.
         -1   -1    0    0    0  501 -0.00000000000E+00 -0.00000000000E+00 -0.13510478229E+02  0.13510478229E+02  0.00000000000E+00 0.  1.
         23    2    1    2    0    0  0.00000000000E+00  0.00000000000E+00  0.13588785291E+03  0.16290880936E+03  0.89854168524E+02 0.  0.
        -11    1    3    3    0    0 -0.43171644821E+02  0.18536943728E+01  0.45649057347E+02  0.62857485918E+02  0.00000000000E+00 0.  1.
         11    1    3    3    0    0  0.43171644821E+02 -0.18536943728E+01  0.90238795559E+02  0.10005132345E+03  0.00000000000E+00 0. -1.
<mgrwt>
<rscale>  0 0.89854169E+02</rscale>
<asrwt>0</asrwt>
<pdfrwt beam="1">  1        1 0.22984357E-01 0.89854169E+02</pdfrwt>
<pdfrwt beam="2">  1       -1 0.20785352E-02 0.89854169E+02</pdfrwt>
<totfact> 0.11654879E+05</totfact>
</mgrwt>
</event>
<event>
 5    1  0.1197825E+001  0.9129843E+02  0.7546771E-02  0.1299737E+00
         -3   -1    0    0    0  501 -0.00000000000E+00  0.00000000000E+00  0.67464201308E+01  0.67464201308E+01  0.00000000000E+00 0.  1.
          3   -1    0    0  501    0  0.00000000000E+00 -0.00000000000E+00 -0.30888246967E+03  0.30888246967E+03  0.00000000000E+00 0. -1.
         23    2    1    2    0    0  0.00000000000E+00  0.00000000000E+00 -0.30213604954E+03  0.31562888980E+03  0.91298431781E+02 0.  0.
        -11    1    3    3    0    0  0.88374009444E+01 -0.42837573612E+02 -0.10590094876E+03  0.11457821921E+03  0.00000000000E+00 0.  1.
         11    1    3    3    0    0 -0.88374009444E+01  0.42837573612E+02 -0.19623510078E+03  0.20105067059E+03  0.00000000000E+00 0. -1.
<mgrwt>
<rscale>  0 0.91298432E+02</rscale>
<asrwt>0</asrwt>
<pdfrwt beam="2">  1        3 0.47520372E-01 0.91298432E+02</pdfrwt>
<pdfrwt beam="1">  1       -3 0.10379110E-02 0.91298432E+02</pdfrwt>
<totfact> 0.23355161E+04</totfact>
</mgrwt>
</event>
<event>
 5    1  0.1197825E+001  0.9026541E+02  0.7546771E-02  0.1302210E+00
          1   -1    0    0  501    0  0.00000000000E+00  0.00000000000E+00  0.25338039077E+02  0.25338039077E+02  0.00000000000E+00 0.  1.
         -1   -1    0    0    0  501 -0.00000000000E+00 -0.00000000000E+00 -0.80391416794E+02  0.80391416794E+02  0.00000000000E+00 0. -1.
         23    2    1    2    0    0  0.00000000000E+00  0.00000000000E+00 -0.55053377717E+02  0.10572945587E+03  0.90265405558E+02 0.  0.
        -11    1    3    3    0    0  0.32112887048E+02 -0.63810688759E+01  0.88597463702E+01  0.33918293889E+02  0.00000000000E+00 0.  1.
         11    1    3    3    0    0 -0.32112887048E+02  0.63810688759E+01 -0.63913124087E+02  0.71811161982E+02  0.00000000000E+00 0. -1.
<mgrwt>
<rscale>  0 0.90265406E+02</rscale>
<asrwt>0</asrwt>
<pdfrwt beam="1">  1        1 0.38981599E-02 0.90265406E+02</pdfrwt>
<pdfrwt beam="2">  1       -1 0.12367910E-01 0.90265406E+02</pdfrwt>
<totfact> 0.86782561E+04</totfact>
</mgrwt>
</event>
<event>
 5    1  0.1197825E+001  0.9191314E+02  0.7546771E-02  0.1298284E+00
          1   -1    0    0  501    0  0.00000000000E+00  0.00000000000E+00  0.34965297245E+02  0.34965297245E+02  0.00000000000E+00 0. -1.
         -1   -1    0    0    0  501 -0.00000000000E+00 -0.00000000000E+00 -0.60402922170E+02  0.60402922170E+02  0.00000000000E+00 0.  1.
         23    2    1    2    0    0  0.00000000000E+00  0.00000000000E+00 -0.25437624925E+02  0.95368219414E+02  0.91913135690E+02 0.  0.
        -13    1    3    3    0    0 -0.25311393142E+02 -0.22727734225E+02  0.19342399250E+02  0.39132402617E+02  0.00000000000E+00 0. -1.
         13    1    3    3    0    0  0.25311393142E+02  0.22727734225E+02 -0.44780024175E+02  0.56235816798E+02  0.00000000000E+00 0.  1.
<mgrwt>
<rscale>  0 0.91913136E+02</rscale>
<asrwt>0</asrwt>
<pdfrwt beam="1">  1        1 0.53792765E-02 0.91913136E+02</pdfrwt>
<pdfrwt beam="2">  1       -1 0.92927572E-02 0.91913136E+02</pdfrwt>
<totfact> 0.86797487E+04</totfact>
</mgrwt>
</event>
<event>
 5    1  0.1197825E+001  0.9145439E+02  0.7546771E-02  0.1299367E+00
          2   -1    0    0  501    0  0.00000000000E+00  0.00000000000E+00  0.57259750653E+02  0.57259750653E+02  0.00000000000E+00 0. -1.
         -2   -1    0    0    0  501 -0.00000000000E+00 -0.00000000000E+00 -0.36517386078E+02  0.36517386078E+02  0.00000000000E+00 0.  1.
         23    2    1    2    0    0  0.00000000000E+00  0.00000000000E+00  0.20742364575E+02  0.93777136731E+02  0.91454391285E+02 0.  0.
        -11    1    3    3    0    0 -0.45010886484E+02 -0.80525146089E+01  0.99694046650E+01  0.46799700031E+02  0.00000000000E+00 0. -1.
         11    1    3    3    0    0  0.45010886484E+02  0.80525146089E+01  0.10772959910E+02  0.46977436700E+02  0.00000000000E+00 0.  1.
<mgrwt>
<rscale>  0 0.91454391E+02</rscale>
<asrwt>0</asrwt>
<pdfrwt beam="1">  1        2 0.88091924E-02 0.91454391E+02</pdfrwt>
<pdfrwt beam="2">  1       -2 0.56180594E-02 0.91454391E+02</pdfrwt>
<totfact> 0.10385511E+05</totfact>
</mgrwt>
</event>
<event>
 5    1  0.1197825E+001  0.1035326E+03  0.7546771E-02  0.1273038E+00
          2   -1    0    0  501    0  0.00000000000E+00  0.00000000000E+00  0.19088890942E+02  0.19088890942E+02  0.00000000000E+00 0. -1.
         -2   -1    0    0    0  501 -0.00000000000E+00 -0.00000000000E+00 -0.14038278940E+03  0.14038278940E+03  0.00000000000E+00 0.  1.
         23    2    1    2    0    0  0.00000000000E+00  0.00000000000E+00 -0.12129389846E+03  0.15947168034E+03  0.10353263750E+03 0.  0.
        -11    1    3    3    0    0 -0.47212372517E+02 -0.21227970642E+02 -0.60120307891E+02  0.79335277633E+02  0.00000000000E+00 0.  1.
         11    1    3    3    0    0  0.47212372517E+02  0.21227970642E+02 -0.61173590565E+02  0.80136402707E+02  0.00000000000E+00 0. -1.
<mgrwt>
<rscale>  0 0.10353264E+03</rscale>
<asrwt>0</asrwt>
<pdfrwt beam="1">  1        2 0.29367524E-02 0.10353264E+03</pdfrwt>
<pdfrwt beam="2">  1       -2 0.21597353E-01 0.10353264E+03</pdfrwt>
<totfact> 0.51885357E+04</totfact>
</mgrwt>
</event>
<event>
 5    1  0.1197825E+001  0.9990274E+02  0.7546771E-02  0.1280501E+00
          3   -1    0    0  501    0  0.00000000000E+00  0.00000000000E+00  0.13488571504E+03  0.13488571504E+03  0.00000000000E+00 0. -1.
         -3   -1    0    0    0  501 -0.00000000000E+00 -0.00000000000E+00 -0.18498174602E+02  0.18498174602E+02  0.00000000000E+00 0.  1.
         23    2    1    2    0    0  0.00000000000E+00  0.00000000000E+00  0.11638754043E+03  0.15338388964E+03  0.99902742865E+02 0.  0.
        -13    1    3    3    0    0  0.47158705950E+02 -0.14774797092E+02  0.69360747648E+02  0.85165436007E+02  0.00000000000E+00 0.  1.
         13    1    3    3    0    0 -0.47158705950E+02  0.14774797092E+02  0.47026792786E+02  0.68218453630E+02  0.00000000000E+00 0. -1.
<mgrwt>
<rscale>  0 0.99902743E+02</rscale>
<asrwt>0</asrwt>
<pdfrwt beam="1">  1        3 0.20751648E-01 0.99902743E+02</pdfrwt>
<pdfrwt beam="2">  1       -3 0.28458731E-02 0.99902743E+02</pdfrwt>
<totfact> 0.24244927E+04</totfact>
</mgrwt>
</event>
<event>
 5    1  0.1197825E+001  0.9106905E+02  0.7546771E-02  0.1300283E+00
          2   -1    0    0  501    0  0.00000000000E+00  0.00000000000E+00  0.40818379015E+03  0.40818379015E+03  0.00000000000E+00 0. -1.
         -2   -1    0    0    0  501 -0.00000000000E+00 -0.00000000000E+00 -0.50795574670E+01  0.50795574670E+01  0.00000000000E+00 0.  1.
         23    2    1    2    0    0  0.00000000000E+00  0.00000000000E+00  0.40310423269E+03  0.41326334762E+03  0.91069051147E+02 0.  0.
        -11    1    3    3    0    0 -0.22937991590E+02 -0.39044307165E+02  0.22321257376E+03  0.22775965943E+03  0.00000000000E+00 0. -1.
         11    1    3    3    0    0  0.22937991590E+02  0.39044307165E+02  0.17989165893E+03  0.18550368819E+03  0.00000000000E+00 0.  1.
<mgrwt>
<rscale>  0 0.91069051E+02</rscale>
<asrwt>0</asrwt>
<pdfrwt beam="1">  1        2 0.62797481E-01 0.91069051E+02</pdfrwt>
<pdfrwt beam="2">  1       -2 0.78147070E-03 0.91069051E+02</pdfrwt>
<totfact> 0.20170372E+05</totfact>
</mgrwt>
</event>
<event>
 5    1  0.1197825E+001  0.9156529E+02  0.7546771E-02  0.1299105E+00
          2   -1    0    0  501    0  0.00000000000E+00  0.00000000000E+00  0.66983888193E+02  0.66983888193E+02  0.00000000000E+00 0. -1.
         -2   -1    0    0    0  501 -0.00000000000E+00 -0.00000000000E+00 -0.31291860228E+02  0.31291860228E+02  0.00000000000E+00 0.  1.
         23    2    1    2    0    0  0.00000000000E+00  0.00000000000E+00  0.35692027964E+02  0.98275748421E+02  0.91565287459E+02 0.  0.
        -11    1    3    3    0    0  0.15207646851E+02 -0.10394671505E+02  0.62831027048E+02  0.65475641871E+02  0.00000000000E+00 0. -1.
         11    1    3    3    0    0 -0.15207646851E+02  0.10394671505E+02 -0.27138999084E+02  0.32800106550E+02  0.00000000000E+00 0.  1.
<mgrwt>
<rscale>  0 0.91565287E+02</rscale>
<asrwt>0</asrwt>
<pdfrwt beam="1">  1        2 0.10305214E-01 0.91565287E+02</pdfrwt>
<pdfrwt beam="2">  1       -2 0.48141324E-02 0.91565287E+02</pdfrwt>
<totfact> 0.10798786E+05</totfact>
</mgrwt>
</event>
<event>
 5    1  0.1197825E+001  0.9133814E+02  0.7546771E-02  0.1299643E+00
         -1   -1    0    0    0  501 -0.00000000000E+00  0.00000000000E+00  0.58478997505E+02  0.58478997505E+02  0.00000000000E+00 0.  1.
          1   -1    0    0  501    0  0.00000000000E+00 -0.00000000000E+00 -0.35665178870E+02  0.35665178870E+02  0.00000000000E+00 0. -1.
         23    2    1    2    0    0  0.00000000000E+00  0.00000000000E+00  0.22813818635E+02  0.94144176374E+02  0.91338138937E+02 0.  0.
        -13    1    3    3    0    0  0.30287711266E+02 -0.12826319985E+02  0.44063117501E+02  0.54985618684E+02  0.00000000000E+00 0.  1.
         13    1    3    3    0    0 -0.30287711266E+02  0.12826319985E+02 -0.21249298867E+02  0.39158557691E+02  0.00000000000E+00 0. -1.
<mgrwt>
<rscale>  0 0.91338139E+02</rscale>
<asrwt>0</asrwt>
<pdfrwt beam="2">  1        1 0.54869506E-02 0.91338139E+02</pdfrwt>
<pdfrwt beam="1">  1       -1 0.89967688E-02 0.91338139E+02</pdfrwt>
<totfact> 0.88636867E+04</totfact>
</mgrwt>
</event>
<event>
 5    1  0.1197825E+001  0.9283997E+02  0.7546771E-02  0.1296116E+00
         -2   -1    0    0    0  501 -0.00000000000E+00  0.00000000000E+00  0.13959717957E+02  0.13959717957E+02  0.00000000000E+00 0.  1.
          2   -1    0    0  501    0  0.00000000000E+00 -0.00000000000E+00 -0.15435949765E+03  0.15435949765E+03  0.00000000000E+00 0. -1.
         23    2    1    2    0    0  0.00000000000E+00  0.00000000000E+00 -0.14039977970E+03  0.16831921561E+03  0.92839970943E+02 0.  0.
        -13    1    3    3    0    0  0.12054923829E+02 -0.38868035470E+02 -0.11068997833E+03  0.11793352650E+03  0.00000000000E+00 0. -1.
         13    1    3    3    0    0 -0.12054923829E+02  0.38868035470E+02 -0.29709801365E+02  0.50385689109E+02  0.00000000000E+00 0.  1.
<mgrwt>
<rscale>  0 0.92839971E+02</rscale>
<asrwt>0</asrwt>
<pdfrwt beam="2">  1        2 0.23747615E-01 0.92839971E+02</pdfrwt>
<pdfrwt beam="1">  1       -2 0.21476489E-02 0.92839971E+02</pdfrwt>
<totfact> 0.13441641E+05</totfact>
</mgrwt>
</event>
<event>
 5    1  0.1197825E+001  0.8941633E+02  0.7546771E-02  0.1304271E+00
         -2   -1    0    0    0  501 -0.00000000000E+00  0.00000000000E+00  0.17548903012E+02  0.17548903012E+02  0.00000000000E+00 0.  1.
          2   -1    0    0  501    0  0.00000000000E+00 -0.00000000000E+00 -0.11389998908E+03  0.11389998908E+03  0.00000000000E+00 0. -1.
         23    2    1    2    0    0  0.00000000000E+00  0.00000000000E+00 -0.96351086066E+02  0.13144889209E+03  0.89416326504E+02 0.  0.
        -11    1    3    3    0    0  0.32052829568E+02  0.29544309566E+02 -0.33580279717E+02  0.55026223720E+02  0.00000000000E+00 0.  1.
         11    1    3    3    0    0 -0.32052829568E+02 -0.29544309566E+02 -0.62770806348E+02  0.76422668369E+02  0.00000000000E+00 0. -1.
<mgrwt>
<rscale>  0 0.89416327E+02</rscale>
<asrwt>0</asrwt>
<pdfrwt beam="2">  1        2 0.17523075E-01 0.89416327E+02</pdfrwt>
<pdfrwt beam="1">  1       -2 0.26998312E-02 0.89416327E+02</pdfrwt>
<totfact> 0.13471950E+05</totfact>
</mgrwt>
</event>
<event>
 5    1  0.1197825E+001  0.9417535E+02  0.7546771E-02  0.1293044E+00
          2   -1    0    0  501    0  0.00000000000E+00  0.00000000000E+00  0.15531689603E+03  0.15531689603E+03  0.00000000000E+00 0. -1.
         -2   -1    0    0    0  501 -0.00000000000E+00 -0.00000000000E+00 -0.14275647445E+02  0.14275647445E+02  0.00000000000E+00 0.  1.
         23    2    1    2    0    0  0.00000000000E+00  0.00000000000E+00  0.14104124858E+03  0.16959254347E+03  0.94175352401E+02 0.  0.
        -13    1    3    3    0    0 -0.87112577502E+01 -0.33075906988E+02  0.12241244189E+02  0.36328359363E+02  0.00000000000E+00 0.  1.
         13    1    3    3    0    0  0.87112577502E+01  0.33075906988E+02  0.12880000439E+03  0.13326418411E+03  0.00000000000E+00 0. -1.
<mgrwt>
<rscale>  0 0.94175352E+02</rscale>
<asrwt>0</asrwt>
<pdfrwt beam="1">  1        2 0.23894906E-01 0.94175352E+02</pdfrwt>
<pdfrwt beam="2">  1       -2 0.21962536E-02 0.94175352E+02</pdfrwt>
<totfact> 0.12956664E+05</totfact>
</mgrwt>
</event>
<event>
 5    1  0.1197825E+001  0.9000545E+02  0.7546771E-02  0.1302838E+00
         -3   -1    0    0    0  501 -0.00000000000E+00  0.00000000000E+00  0.10144625454E+03  0.10144625454E+03  0.00000000000E+00 0.  1.
          3   -1    0    0  501    0  0.00000000000E+00 -0.00000000000E+00 -0.19963726972E+02  0.19963726972E+02  0.00000000000E+00 0. -1.
         23    2    1    2    0    0  0.00000000000E+00  0.00000000000E+00  0.81482527563E+02  0.12140998151E+03  0.90005451566E+02 0.  0.
        -11    1    3    3    0    0  0.22718322196E+02  0.97169447782E+01 -0.99949893411E+01  0.26654098956E+02  0.00000000000E+00 0. -1.
         11    1    3    3    0    0 -0.22718322196E+02 -0.97169447782E+01  0.91477516904E+02  0.94755882552E+02  0.00000000000E+00 0.  1.
<mgrwt>
<rscale>  0 0.90005452E+02</rscale>
<asrwt>0</asrwt>
<pdfrwt beam="2">  1        3 0.30713427E-02 0.90005452E+02</pdfrwt>
<pdfrwt beam="1">  1       -3 0.15607116E-01 0.90005452E+02</pdfrwt>
<totfact> 0.34334143E+04</totfact>
</mgrwt>
</event>
<event>
 5    1  0.1197825E+001  0.9156550E+02  0.7546771E-02  0.1299104E+00
         -1   -1    0    0    0  501 -0.00000000000E+00  0.00000000000E+00  0.98570486518E+01  0.98570486518E+01  0.00000000000E+00 0.  1.
          1   -1    0    0  501    0  0.00000000000E+00 -0.00000000000E+00 -0.21264582153E+03  0.21264582153E+03  0.00000000000E+00 0. -1.
         23    2    1    2    0    0  0.00000000000E+00  0.00000000000E+00 -0.20278877287E+03  0.22250287018E+03  0.91565500237E+02 0.  0.
        -13    1    3    3    0    0  0.24782033825E+02  0.25323328747E+02 -0.17184889310E+03  0.17546356385E+03  0.00000000000E+00 0. -1.
         13    1    3    3    0    0 -0.24782033825E+02 -0.25323328747E+02 -0.30939879774E+02  0.47039306328E+02  0.00000000000E+00 0.  1.
<mgrwt>
<rscale>  0 0.91565500E+02</rscale>
<asrwt>0</asrwt>
<pdfrwt beam="2">  1        1 0.32714744E-01 0.91565500E+02</pdfrwt>
<pdfrwt beam="1">  1       -1 0.15164689E-02 0.91565500E+02</pdfrwt>
<totfact> 0.11846700E+05</totfact>
</mgrwt>
</event>
<event>
 5    1  0.1197825E+001  0.8742772E+02  0.7546771E-02  0.1309203E+00
          1   -1    0    0  501    0  0.00000000000E+00  0.00000000000E+00  0.20653699023E+02  0.20653699023E+02  0.00000000000E+00 0. -1.
         -1   -1    0    0    0  501 -0.00000000000E+00 -0.00000000000E+00 -0.92521042799E+02  0.92521042799E+02  0.00000000000E+00 0.  1.
         23    2    1    2    0    0  0.00000000000E+00  0.00000000000E+00 -0.71867343776E+02  0.11317474182E+03  0.87427724923E+02 0.  0.
        -13    1    3    3    0    0 -0.27766122626E+02  0.31441276010E+02 -0.51861239533E+02  0.66701570962E+02  0.00000000000E+00 0.  1.
         13    1    3    3    0    0  0.27766122626E+02 -0.31441276010E+02 -0.20006104242E+02  0.46473170860E+02  0.00000000000E+00 0. -1.
<mgrwt>
<rscale>  0 0.87427725E+02</rscale>
<asrwt>0</asrwt>
<pdfrwt beam="1">  1        1 0.31774922E-02 0.87427725E+02</pdfrwt>
<pdfrwt beam="2">  1       -1 0.14234007E-01 0.87427725E+02</pdfrwt>
<totfact> 0.91924645E+04</totfact>
</mgrwt>
</event>
<event>
 5    1  0.1197825E+001  0.9075104E+02  0.7546771E-02  0.1301043E+00
          4   -1    0    0  501    0  0.00000000000E+00  0.00000000000E+00  0.80831211087E+01  0.80831211087E+01  0.00000000000E+00 0. -1.
         -4   -1    0    0    0  501 -0.00000000000E+00 -0.00000000000E+00 -0.25472065039E+03  0.25472065039E+03  0.00000000000E+00 0.  1.
         23    2    1    2    0    0  0.00000000000E+00  0.00000000000E+00 -0.24663752928E+03  0.26280377150E+03  0.90751041118E+02 0.  0.
        -13    1    3    3    0    0  0.45323288411E+02  0.76858750623E+00 -0.11742178606E+03  0.12586765685E+03  0.00000000000E+00 0.  1.
         13    1    3    3    0    0 -0.45323288411E+02 -0.76858750623E+00 -0.12921574323E+03  0.13693611466E+03  0.00000000000E+00 0. -1.
<mgrwt>
<rscale>  0 0.90751041E+02</rscale>
<asrwt>0</asrwt>
<pdfrwt beam="1">  1        4 0.12435572E-02 0.90751041E+02</pdfrwt>
<pdfrwt beam="2">  1       -4 0.39187789E-01 0.90751041E+02</pdfrwt>
<totfact> 0.19257446E+04</totfact>
</mgrwt>
</event>
<event>
 5    1  0.1197825E+001  0.9040719E+02  0.7546771E-02  0.1301869E+00
         -1   -1    0    0    0  501 -0.00000000000E+00  0.00000000000E+00  0.70316541836E+01  0.70316541836E+01  0.00000000000E+00 0.  1.
          1   -1    0    0  501    0  0.00000000000E+00 -0.00000000000E+00 -0.29059518179E+03  0.29059518179E+03  0.00000000000E+00 0. -1.
         23    2    1    2    0    0  0.00000000000E+00  0.00000000000E+00 -0.28356352760E+03  0.29762683597E+03  0.90407186125E+02 0.  0.
        -13    1    3    3    0    0 -0.28238700528E+02 -0.30277059102E+02 -0.82047208292E+02  0.91901408606E+02  0.00000000000E+00 0.  1.
         13    1    3    3    0    0  0.28238700528E+02  0.30277059102E+02 -0.20151631931E+03  0.20572542737E+03  0.00000000000E+00 0. -1.
<mgrwt>
<rscale>  0 0.90407186E+02</rscale>
<asrwt>0</asrwt>
<pdfrwt beam="2">  1        1 0.44706947E-01 0.90407186E+02</pdfrwt>
<pdfrwt beam="1">  1       -1 0.10817930E-02 0.90407186E+02</pdfrwt>
<totfact> 0.13025080E+05</totfact>
</mgrwt>
</event>
<event>
 5    1  0.1197825E+001  0.9062603E+02  0.7546771E-02  0.1301343E+00
          1   -1    0    0  501    0  0.00000000000E+00  0.00000000000E+00  0.64569131408E+01  0.64569131408E+01  0.00000000000E+00 0. -1.
         -1   -1    0    0    0  501 -0.00000000000E+00 -0.00000000000E+00 -0.31799552200E+03  0.31799552200E+03  0.00000000000E+00 0.  1.
         23    2    1    2    0    0  0.00000000000E+00  0.00000000000E+00 -0.31153860886E+03  0.32445243514E+03  0.90626033008E+02 0.  0.
        -13    1    3    3    0    0  0.38237889813E+02 -0.14991488790E+02 -0.22429745190E+03  0.22802681395E+03  0.00000000000E+00 0. -1.
         13    1    3    3    0    0 -0.38237889813E+02  0.14991488790E+02 -0.87241156959E+02  0.96425621186E+02  0.00000000000E+00 0.  1.
<mgrwt>
<rscale>  0 0.90626033E+02</rscale>
<asrwt>0</asrwt>
<pdfrwt beam="1">  1        1 0.99337102E-03 0.90626033E+02</pdfrwt>
<pdfrwt beam="2">  1       -1 0.48922400E-01 0.90626033E+02</pdfrwt>
<totfact> 0.60124601E+04</totfact>
</mgrwt>
</event>
<event>
 5    1  0.1197825E+001  0.9316516E+02  0.7546771E-02  0.1295363E+00
          1   -1    0    0  501    0  0.00000000000E+00  0.00000000000E+00  0.13879783874E+03  0.13879783874E+03  0.00000000000E+00 0. -1.
         -1   -1    0    0    0  501 -0.00000000000E+00 -0.00000000000E+00 -0.15633795092E+02  0.15633795092E+02  0.00000000000E+00 0.  1.
         23    2    1    2    0    0  0.00000000000E+00  0.00000000000E+00  0.12316404365E+03  0.15443163384E+03  0.93165164523E+02 0.  0.
        -13    1    3    3    0    0  0.31750577905E+02 -0.17327185877E+02  0.11023810774E+03  0.11602056269E+03  0.00000000000E+00 0. -1.
         13    1    3    3    0    0 -0.31750577905E+02  0.17327185877E+02  0.12925935912E+02  0.38411071151E+02  0.00000000000E+00 0.  1.
<mgrwt>
<rscale>  0 0.93165165E+02</rscale>
<asrwt>0</asrwt>
<pdfrwt beam="1">  1        1 0.21353513E-01 0.93165165E+02</pdfrwt>
<pdfrwt beam="2">  1       -1 0.24051993E-02 0.93165165E+02</pdfrwt>
<totfact> 0.10428313E+05</totfact>
</mgrwt>
</event>
<event>
 5    1  0.1197825E+001  0.9026182E+02  0.7546771E-02  0.1302219E+00
          2   -1    0    0  501    0  0.00000000000E+00  0.00000000000E+00  0.43595255077E+02  0.43595255077E+02  0.00000000000E+00 0. -1.
         -2   -1    0    0    0  501 -0.00000000000E+00 -0.00000000000E+00 -0.46720654352E+02  0.46720654352E+02  0.00000000000E+00 0.  1.
         23    2    1    2    0    0  0.00000000000E+00  0.00000000000E+00 -0.31253992755E+01  0.90315909429E+02  0.90261815710E+02 0.  0.
        -13    1    3    3    0    0 -0.43390853214E+02 -0.24198705144E+01  0.10617390073E+02  0.44736460386E+02  0.00000000000E+00 0. -1.
         13    1    3    3    0    0  0.43390853214E+02  0.24198705144E+01 -0.13742789349E+02  0.45579449042E+02  0.00000000000E+00 0.  1.
<mgrwt>
<rscale>  0 0.90261816E+02</rscale>
<asrwt>0</asrwt>
<pdfrwt beam="1">  1        2 0.67069623E-02 0.90261816E+02</pdfrwt>
<pdfrwt beam="2">  1       -2 0.71877930E-02 0.90261816E+02</pdfrwt>
<totfact> 0.10040595E+05</totfact>
</mgrwt>
</event>
<event>
 5    1  0.1197825E+001  0.9036326E+02  0.7546771E-02  0.1301974E+00
         -2   -1    0    0    0  501 -0.00000000000E+00  0.00000000000E+00  0.79035808497E+02  0.79035808497E+02  0.00000000000E+00 0.  1.
          2   -1    0    0  501    0  0.00000000000E+00 -0.00000000000E+00 -0.25828540441E+02  0.25828540441E+02  0.00000000000E+00 0. -1.
         23    2    1    2    0    0  0.00000000000E+00  0.00000000000E+00  0.53207268056E+02  0.10486434894E+03  0.90363257490E+02 0.  0.
        -13    1    3    3    0    0  0.63769666346E+01  0.44725524940E+02  0.27281585600E+02  0.52776161262E+02  0.00000000000E+00 0. -1.
         13    1    3    3    0    0 -0.63769666346E+01 -0.44725524940E+02  0.25925682455E+02  0.52088187676E+02  0.00000000000E+00 0.  1.
<mgrwt>
<rscale>  0 0.90363257E+02</rscale>
<asrwt>0</asrwt>
<pdfrwt beam="2">  1        2 0.39736216E-02 0.90363257E+02</pdfrwt>
<pdfrwt beam="1">  1       -2 0.12159355E-01 0.90363257E+02</pdfrwt>
<totfact> 0.87261794E+04</totfact>
</mgrwt>
</event>
<event>
 5    1  0.1197825E+001  0.9208049E+02  0.7546771E-02  0.1297890E+00
          1   -1    0    0  501    0  0.00000000000E+00  0.00000000000E+00  0.27462436628E+03  0.27462436628E+03  0.00000000000E+00 0. -1.
         -1   -1    0    0    0  501 -0.00000000000E+00 -0.00000000000E+00 -0.77185583409E+01  0.77185583409E+01  0.00000000000E+00 0.  1.
         23    2    1    2    0    0  0.00000000000E+00  0.00000000000E+00  0.26690580794E+03  0.28234292462E+03  0.92080490722E+02 0.  0.
        -13    1    3    3    0    0 -0.13888116363E+02 -0.43821416712E+02  0.12563071704E+03  0.13377695393E+03  0.00000000000E+00 0.  1.
         13    1    3    3    0    0  0.13888116363E+02  0.43821416712E+02  0.14127509089E+03  0.14856597068E+03  0.00000000000E+00 0. -1.
<mgrwt>
<rscale>  0 0.92080491E+02</rscale>
<asrwt>0</asrwt>
<pdfrwt beam="1">  1        1 0.42249895E-01 0.92080491E+02</pdfrwt>
<pdfrwt beam="2">  1       -1 0.11874707E-02 0.92080491E+02</pdfrwt>
<totfact> 0.12268359E+05</totfact>
</mgrwt>
</event>
<event>
 5    1  0.1197825E+001  0.8643724E+02  0.7546771E-02  0.1311716E+00
         -2   -1    0    0    0  501 -0.00000000000E+00  0.00000000000E+00  0.23281377236E+02  0.23281377236E+02  0.00000000000E+00 0. -1.
          2   -1    0    0  501    0  0.00000000000E+00 -0.00000000000E+00 -0.80229322252E+02  0.80229322252E+02  0.00000000000E+00 0.  1.
         23    2    1    2    0    0  0.00000000000E+00  0.00000000000E+00 -0.56947945016E+02  0.10351069949E+03  0.86437240046E+02 0.  0.
        -11    1    3    3    0    0 -0.31932777093E+02  0.22318944720E+02 -0.50877971922E+02  0.64081241976E+02  0.00000000000E+00 0.  1.
         11    1    3    3    0    0  0.31932777093E+02 -0.22318944720E+02 -0.60699730939E+01  0.39429457511E+02  0.00000000000E+00 0. -1.
<mgrwt>
<rscale>  0 0.86437240E+02</rscale>
<asrwt>0</asrwt>
<pdfrwt beam="2">  1        2 0.12342973E-01 0.86437240E+02</pdfrwt>
<pdfrwt beam="1">  1       -2 0.35817504E-02 0.86437240E+02</pdfrwt>
<totfact> 0.13323282E+05</totfact>
</mgrwt>
</event>
<event>
 5    1  0.1197825E+001  0.8061541E+02  0.7546771E-02  0.1327314E+00
         -1   -1    0    0    0  501 -0.00000000000E+00  0.00000000000E+00  0.57749966390E+02  0.57749966390E+02  0.00000000000E+00 0.  1.
          1   -1    0    0  501    0  0.00000000000E+00 -0.00000000000E+00 -0.28133538197E+02  0.28133538197E+02  0.00000000000E+00 0. -1.
         23    2    1    2    0    0  0.00000000000E+00  0.00000000000E+00  0.29616428193E+02  0.85883504587E+02  0.80615405111E+02 0.  0.
        -13    1    3    3    0    0  0.31760385791E+02 -0.10477427624E+02 -0.91612354028E+01  0.34676026723E+02  0.00000000000E+00 0. -1.
         13    1    3    3    0    0 -0.31760385791E+02  0.10477427624E+02  0.38777663596E+02  0.51207477864E+02  0.00000000000E+00 0.  1.
<mgrwt>
<rscale>  0 0.80615405E+02</rscale>
<asrwt>0</asrwt>
<pdfrwt beam="2">  1        1 0.43282366E-02 0.80615405E+02</pdfrwt>
<pdfrwt beam="1">  1       -1 0.88846102E-02 0.80615405E+02</pdfrwt>
<totfact> 0.12178931E+05</totfact>
</mgrwt>
</event>
<event>
 5    1  0.1197825E+001  0.8764740E+02  0.7546771E-02  0.1308651E+00
         -2   -1    0    0    0  501 -0.00000000000E+00  0.00000000000E+00  0.12047451872E+02  0.12047451872E+02  0.00000000000E+00 0.  1.
          2   -1    0    0  501    0  0.00000000000E+00 -0.00000000000E+00 -0.15941269572E+03  0.15941269572E+03  0.00000000000E+00 0. -1.
         23    2    1    2    0    0  0.00000000000E+00  0.00000000000E+00 -0.14736524385E+03  0.17146014759E+03  0.87647402231E+02 0.  0.
        -13    1    3    3    0    0  0.25170086187E+02 -0.16317221419E+02 -0.11182628356E+02  0.32013061873E+02  0.00000000000E+00 0.  1.
         13    1    3    3    0    0 -0.25170086187E+02  0.16317221419E+02 -0.13618261549E+03  0.13944708572E+03  0.00000000000E+00 0. -1.
<mgrwt>
<rscale>  0 0.87647402E+02</rscale>
<asrwt>0</asrwt>
<pdfrwt beam="2">  1        2 0.24525030E-01 0.87647402E+02</pdfrwt>
<pdfrwt beam="1">  1       -2 0.18534541E-02 0.87647402E+02</pdfrwt>
<totfact> 0.15881403E+05</totfact>
</mgrwt>
</event>
<event>
 5    1  0.1197825E+001  0.8951732E+02  0.7546771E-02  0.1304025E+00
          1   -1    0    0  501    0  0.00000000000E+00  0.00000000000E+00  0.20298226108E+02  0.20298226108E+02  0.00000000000E+00 0. -1.
         -1   -1    0    0    0  501 -0.00000000000E+00 -0.00000000000E+00 -0.98695207022E+02  0.98695207022E+02  0.00000000000E+00 0.  1.
         23    2    1    2    0    0  0.00000000000E+00  0.00000000000E+00 -0.78396980914E+02  0.11899343313E+03  0.89517319618E+02 0.  0.
        -13    1    3    3    0    0  0.16183983857E+02 -0.23213320241E+02  0.68981156398E+01  0.29126681401E+02  0.00000000000E+00 0. -1.
         13    1    3    3    0    0 -0.16183983857E+02  0.23213320241E+02 -0.85295096554E+02  0.89866751729E+02  0.00000000000E+00 0.  1.
<mgrwt>
<rscale>  0 0.89517320E+02</rscale>
<asrwt>0</asrwt>
<pdfrwt beam="1">  1        1 0.31228041E-02 0.89517320E+02</pdfrwt>
<pdfrwt beam="2">  1       -1 0.15183878E-01 0.89517320E+02</pdfrwt>
<totfact> 0.85514193E+04</totfact>
</mgrwt>
</event>
<event>
 5    1  0.1197825E+001  0.8858303E+02  0.7546771E-02  0.1306320E+00
         -2   -1    0    0    0  501 -0.00000000000E+00  0.00000000000E+00  0.82238327601E+02  0.82238327601E+02  0.00000000000E+00 0. -1.
          2   -1    0    0  501    0  0.00000000000E+00 -0.00000000000E+00 -0.23854309186E+02  0.23854309186E+02  0.00000000000E+00 0.  1.
         23    2    1    2    0    0  0.00000000000E+00  0.00000000000E+00  0.58384018415E+02  0.10609263679E+03  0.88583034347E+02 0.  0.
        -13    1    3    3    0    0 -0.43002651170E+02 -0.77686281046E+01  0.20542351604E+02  0.48286310686E+02  0.00000000000E+00 0.  1.
         13    1    3    3    0    0  0.43002651170E+02  0.77686281046E+01  0.37841666811E+02  0.57806326101E+02  0.00000000000E+00 0. -1.
<mgrwt>
<rscale>  0 0.88583034E+02</rscale>
<asrwt>0</asrwt>
<pdfrwt beam="2">  1        2 0.36698938E-02 0.88583034E+02</pdfrwt>
<pdfrwt beam="1">  1       -2 0.12652050E-01 0.88583034E+02</pdfrwt>
<totfact> 0.90642747E+04</totfact>
</mgrwt>
</event>
<event>
 5    1  0.1197825E+001  0.9086789E+02  0.7546771E-02  0.1300763E+00
          1   -1    0    0  501    0  0.00000000000E+00  0.00000000000E+00  0.52098110476E+02  0.52098110476E+02  0.00000000000E+00 0. -1.
         -1   -1    0    0    0  501 -0.00000000000E+00 -0.00000000000E+00 -0.39622233538E+02  0.39622233538E+02  0.00000000000E+00 0.  1.
         23    2    1    2    0    0  0.00000000000E+00  0.00000000000E+00  0.12475876938E+02  0.91720344014E+02  0.90867893123E+02 0.  0.
        -13    1    3    3    0    0 -0.31335122104E+02 -0.27242938242E+02 -0.12378946376E+02  0.43327887956E+02  0.00000000000E+00 0.  1.
         13    1    3    3    0    0  0.31335122104E+02  0.27242938242E+02  0.24854823315E+02  0.48392456058E+02  0.00000000000E+00 0. -1.
<mgrwt>
<rscale>  0 0.90867893E+02</rscale>
<asrwt>0</asrwt>
<pdfrwt beam="1">  1        1 0.80150939E-02 0.90867893E+02</pdfrwt>
<pdfrwt beam="2">  1       -1 0.60957283E-02 0.90867893E+02</pdfrwt>
<totfact> 0.95241610E+04</totfact>
</mgrwt>
</event>
<event>
 5    1  0.1197825E+001  0.9749422E+02  0.7546771E-02  0.1285655E+00
          1   -1    0    0  501    0  0.00000000000E+00  0.00000000000E+00  0.26422438335E+02  0.26422438335E+02  0.00000000000E+00 0. -1.
         -1   -1    0    0    0  501 -0.00000000000E+00 -0.00000000000E+00 -0.89934199449E+02  0.89934199449E+02  0.00000000000E+00 0.  1.
         23    2    1    2    0    0  0.00000000000E+00  0.00000000000E+00 -0.63511761114E+02  0.11635663778E+03  0.97494222170E+02 0.  0.
        -13    1    3    3    0    0 -0.14309373603E+02 -0.45394264043E+02 -0.44323287146E+02  0.65038074728E+02  0.00000000000E+00 0.  1.
         13    1    3    3    0    0  0.14309373603E+02  0.45394264043E+02 -0.19188473967E+02  0.51318563056E+02  0.00000000000E+00 0. -1.
<mgrwt>
<rscale>  0 0.97494222E+02</rscale>
<asrwt>0</asrwt>
<pdfrwt beam="1">  1        1 0.40649905E-02 0.97494222E+02</pdfrwt>
<pdfrwt beam="2">  1       -1 0.13836031E-01 0.97494222E+02</pdfrwt>
<totfact> 0.69821564E+04</totfact>
</mgrwt>
</event>
<event>
 5    1  0.1197825E+001  0.9290717E+02  0.7546771E-02  0.1295960E+00
          1   -1    0    0  501    0  0.00000000000E+00  0.00000000000E+00  0.46973599471E+01  0.46973599471E+01  0.00000000000E+00 0. -1.
         -1   -1    0    0    0  501 -0.00000000000E+00 -0.00000000000E+00 -0.45939327577E+03  0.45939327577E+03  0.00000000000E+00 0.  1.
         23    2    1    2    0    0  0.00000000000E+00  0.00000000000E+00 -0.45469591582E+03  0.46409063572E+03  0.92907170305E+02 0.  0.
        -13    1    3    3    0    0  0.39845539446E+02 -0.23631302197E+02 -0.21016697209E+03  0.21521213166E+03  0.00000000000E+00 0.  1.
         13    1    3    3    0    0 -0.39845539446E+02  0.23631302197E+02 -0.24452894373E+03  0.24887850405E+03  0.00000000000E+00 0. -1.
<mgrwt>
<rscale>  0 0.92907170E+02</rscale>
<asrwt>0</asrwt>
<pdfrwt beam="1">  1        1 0.72267102E-03 0.92907170E+02</pdfrwt>
<pdfrwt beam="2">  1       -1 0.70675863E-01 0.92907170E+02</pdfrwt>
<totfact> 0.47086782E+04</totfact>
</mgrwt>
</event>
<event>
 5    1  0.1197825E+001  0.9076919E+02  0.7546771E-02  0.1301000E+00
         -1   -1    0    0    0  501 -0.00000000000E+00  0.00000000000E+00  0.14286741498E+03  0.14286741498E+03  0.00000000000E+00 0.  1.
          1   -1    0    0  501    0  0.00000000000E+00 -0.00000000000E+00 -0.14417293227E+02  0.14417293227E+02  0.00000000000E+00 0. -1.
         23    2    1    2    0    0  0.00000000000E+00  0.00000000000E+00  0.12845012175E+03  0.15728470820E+03  0.90769188918E+02 0.  0.
        -11    1    3    3    0    0 -0.31498497234E+02  0.31832928882E+02  0.51459765808E+02  0.68217286564E+02  0.00000000000E+00 0. -1.
         11    1    3    3    0    0  0.31498497234E+02 -0.31832928882E+02  0.76990355941E+02  0.89067421637E+02  0.00000000000E+00 0.  1.
<mgrwt>
<rscale>  0 0.90769189E+02</rscale>
<asrwt>0</asrwt>
<pdfrwt beam="2">  1        1 0.22180452E-02 0.90769189E+02</pdfrwt>
<pdfrwt beam="1">  1       -1 0.21979601E-01 0.90769189E+02</pdfrwt>
<totfact> 0.76517044E+04</totfact>
</mgrwt>
</event>
<event>
 5    1  0.1197825E+001  0.8950230E+02  0.7546771E-02  0.1304061E+00
         -2   -1    0    0    0  501 -0.00000000000E+00  0.00000000000E+00  0.14052624033E+02  0.14052624033E+02  0.00000000000E+00 0.  1.
          2   -1    0    0  501    0  0.00000000000E+00 -0.00000000000E+00 -0.14251185396E+03  0.14251185396E+03  0.00000000000E+00 0. -1.
         23    2    1    2    0    0  0.00000000000E+00  0.00000000000E+00 -0.12845922993E+03  0.15656447799E+03  0.89502301734E+02 0.  0.
        -13    1    3    3    0    0  0.25853101718E+02  0.23606923047E+02 -0.15469090158E+02  0.38274827687E+02  0.00000000000E+00 0.  1.
         13    1    3    3    0    0 -0.25853101718E+02 -0.23606923047E+02 -0.11299013977E+03  0.11828965031E+03  0.00000000000E+00 0. -1.
<mgrwt>
<rscale>  0 0.89502302E+02</rscale>
<asrwt>0</asrwt>
<pdfrwt beam="2">  1        2 0.21924900E-01 0.89502302E+02</pdfrwt>
<pdfrwt beam="1">  1       -2 0.21619422E-02 0.89502302E+02</pdfrwt>
<totfact> 0.14449775E+05</totfact>
</mgrwt>
</event>
<event>
 5    1  0.1197825E+001  0.7964886E+02  0.7546771E-02  0.1330051E+00
          2   -1    0    0  501    0  0.00000000000E+00  0.00000000000E+00  0.16079492816E+03  0.16079492816E+03  0.00000000000E+00 0. -1.
         -2   -1    0    0    0  501 -0.00000000000E+00 -0.00000000000E+00 -0.98634033936E+01  0.98634033936E+01  0.00000000000E+00 0.  1.
         23    2    1    2    0    0  0.00000000000E+00  0.00000000000E+00  0.15093152476E+03  0.17065833155E+03  0.79648860383E+02 0.  0.
        -11    1    3    3    0    0  0.84295024117E+01 -0.25004930600E+02  0.13937525561E+03  0.14185120705E+03  0.00000000000E+00 0. -1.
         11    1    3    3    0    0 -0.84295024117E+01  0.25004930600E+02  0.11556269152E+02  0.28807124500E+02  0.00000000000E+00 0.  1.
<mgrwt>
<rscale>  0 0.79648860E+02</rscale>
<asrwt>0</asrwt>
<pdfrwt beam="1">  1        2 0.24737679E-01 0.79648860E+02</pdfrwt>
<pdfrwt beam="2">  1       -2 0.15174468E-02 0.79648860E+02</pdfrwt>
<totfact> 0.20580796E+05</totfact>
</mgrwt>
</event>
<event>
 5    1  0.1197825E+001  0.9132733E+02  0.7546771E-02  0.1299669E+00
          2   -1    0    0  501    0  0.00000000000E+00  0.00000000000E+00  0.79957986399E+01  0.79957986399E+01  0.00000000000E+00 0. -1.
         -2   -1    0    0    0  501 -0.00000000000E+00 -0.00000000000E+00 -0.26078322730E+03  0.26078322730E+03  0.00000000000E+00 0.  1.
         23    2    1    2    0    0  0.00000000000E+00  0.00000000000E+00 -0.25278742866E+03  0.26877902594E+03  0.91327327217E+02 0.  0.
        -11    1    3    3    0    0 -0.41864413424E+02  0.14820209785E+02 -0.95122388043E+02  0.10497874278E+03  0.00000000000E+00 0. -1.
         11    1    3    3    0    0  0.41864413424E+02 -0.14820209785E+02 -0.15766504062E+03  0.16380028316E+03  0.00000000000E+00 0.  1.
<mgrwt>
<rscale>  0 0.91327327E+02</rscale>
<asrwt>0</asrwt>
<pdfrwt beam="1">  1        2 0.12301230E-02 0.91327327E+02</pdfrwt>
<pdfrwt beam="2">  1       -2 0.40120491E-01 0.91327327E+02</pdfrwt>
<totfact> 0.54756554E+04</totfact>
</mgrwt>
</event>
<event>
 5    1  0.1197825E+001  0.9366263E+02  0.7546771E-02  0.1294217E+00
         -3   -1    0    0    0  501 -0.00000000000E+00  0.00000000000E+00  0.27091564152E+03  0.27091564152E+03  0.00000000000E+00 0.  1.
          3   -1    0    0  501    0  0.00000000000E+00 -0.00000000000E+00 -0.80954059857E+01  0.80954059857E+01  0.00000000000E+00 0. -1.
         23    2    1    2    0    0  0.00000000000E+00  0.00000000000E+00  0.26282023554E+03  0.27901104751E+03  0.93662630883E+02 0.  0.
        -11    1    3    3    0    0  0.13906155699E+02  0.43819899031E+02  0.15798869541E+03  0.16454176550E+03  0.00000000000E+00 0.  1.
         11    1    3    3    0    0 -0.13906155699E+02 -0.43819899031E+02  0.10483154012E+03  0.11446928200E+03  0.00000000000E+00 0. -1.
<mgrwt>
<rscale>  0 0.93662631E+02</rscale>
<asrwt>0</asrwt>
<pdfrwt beam="2">  1        3 0.12454473E-02 0.93662631E+02</pdfrwt>
<pdfrwt beam="1">  1       -3 0.41679323E-01 0.93662631E+02</pdfrwt>
<totfact> 0.23122592E+04</totfact>
</mgrwt>
</event>
<event>
 5    1  0.1197825E+001  0.9135876E+02  0.7546771E-02  0.1299594E+00
          1   -1    0    0  501    0  0.00000000000E+00  0.00000000000E+00  0.14821341706E+02  0.14821341706E+02  0.00000000000E+00 0. -1.
         -1   -1    0    0    0  501 -0.00000000000E+00 -0.00000000000E+00 -0.14078387654E+03  0.14078387654E+03  0.00000000000E+00 0.  1.
         23    2    1    2    0    0  0.00000000000E+00  0.00000000000E+00 -0.12596253483E+03  0.15560521824E+03  0.91358764020E+02 0.  0.
        -13    1    3    3    0    0 -0.12510259444E+02 -0.43885395178E+02 -0.59502567905E+02  0.74986599393E+02  0.00000000000E+00 0. -1.
         13    1    3    3    0    0  0.12510259444E+02  0.43885395178E+02 -0.66459966925E+02  0.80618618849E+02  0.00000000000E+00 0.  1.
<mgrwt>
<rscale>  0 0.91358764E+02</rscale>
<asrwt>0</asrwt>
<pdfrwt beam="1">  1        1 0.22802065E-02 0.91358764E+02</pdfrwt>
<pdfrwt beam="2">  1       -1 0.21659057E-01 0.91358764E+02</pdfrwt>
<totfact> 0.75493281E+04</totfact>
</mgrwt>
</event>
<event>
 5    1  0.1197825E+001  0.8983066E+02  0.7546771E-02  0.1303262E+00
          1   -1    0    0  501    0  0.00000000000E+00  0.00000000000E+00  0.32276009349E+02  0.32276009349E+02  0.00000000000E+00 0. -1.
         -1   -1    0    0    0  501 -0.00000000000E+00 -0.00000000000E+00 -0.62504216811E+02  0.62504216811E+02  0.00000000000E+00 0.  1.
         23    2    1    2    0    0  0.00000000000E+00  0.00000000000E+00 -0.30228207461E+02  0.94780226160E+02  0.89830655929E+02 0.  0.
        -13    1    3    3    0    0 -0.46458281002E+01  0.20727741574E+02 -0.56869416994E+02  0.60707113082E+02  0.00000000000E+00 0.  1.
         13    1    3    3    0    0  0.46458281002E+01 -0.20727741574E+02  0.26641209533E+02  0.34073113078E+02  0.00000000000E+00 0. -1.
<mgrwt>
<rscale>  0 0.89830656E+02</rscale>
<asrwt>0</asrwt>
<pdfrwt beam="1">  1        1 0.49655399E-02 0.89830656E+02</pdfrwt>
<pdfrwt beam="2">  1       -1 0.96160333E-02 0.89830656E+02</pdfrwt>
<totfact> 0.91503750E+04</totfact>
</mgrwt>
</event>
<event>
 5    1  0.1197825E+001  0.8604115E+02  0.7546771E-02  0.1312732E+00
         -4   -1    0    0    0  501 -0.00000000000E+00  0.00000000000E+00  0.11581888864E+03  0.11581888864E+03  0.00000000000E+00 0.  1.
          4   -1    0    0  501    0  0.00000000000E+00 -0.00000000000E+00 -0.15979861001E+02  0.15979861001E+02  0.00000000000E+00 0. -1.
         23    2    1    2    0    0  0.00000000000E+00  0.00000000000E+00  0.99839027642E+02  0.13179874964E+03  0.86041146941E+02 0.  0.
        -11    1    3    3    0    0  0.40671728952E+02  0.13902090296E+02  0.52707279339E+02  0.68011138396E+02  0.00000000000E+00 0. -1.
         11    1    3    3    0    0 -0.40671728952E+02 -0.13902090296E+02  0.47131748303E+02  0.63787611248E+02  0.00000000000E+00 0.  1.
<mgrwt>
<rscale>  0 0.86041147E+02</rscale>
<asrwt>0</asrwt>
<pdfrwt beam="2">  1        4 0.24584402E-02 0.86041147E+02</pdfrwt>
<pdfrwt beam="1">  1       -4 0.17818290E-01 0.86041147E+02</pdfrwt>
<totfact> 0.28761669E+04</totfact>
</mgrwt>
</event>
<event>
 5    1  0.1197825E+001  0.9324114E+02  0.7546771E-02  0.1295187E+00
          2   -1    0    0  501    0  0.00000000000E+00  0.00000000000E+00  0.12619058066E+03  0.12619058066E+03  0.00000000000E+00 0. -1.
         -2   -1    0    0    0  501 -0.00000000000E+00 -0.00000000000E+00 -0.17223771215E+02  0.17223771215E+02  0.00000000000E+00 0.  1.
         23    2    1    2    0    0  0.00000000000E+00  0.00000000000E+00  0.10896680944E+03  0.14341435187E+03  0.93241143080E+02 0.  0.
        -11    1    3    3    0    0  0.50959935282E+01  0.43513441719E+02  0.29965807956E+02  0.53078605923E+02  0.00000000000E+00 0.  1.
         11    1    3    3    0    0 -0.50959935282E+01 -0.43513441719E+02  0.79001001486E+02  0.90335745949E+02  0.00000000000E+00 0. -1.
<mgrwt>
<rscale>  0 0.93241143E+02</rscale>
<asrwt>0</asrwt>
<pdfrwt beam="1">  1        2 0.19413935E-01 0.93241143E+02</pdfrwt>
<pdfrwt beam="2">  1       -2 0.26498110E-02 0.93241143E+02</pdfrwt>
<totfact> 0.12414993E+05</totfact>
</mgrwt>
</event>
<event>
 5    1  0.1197825E+001  0.9138890E+02  0.7546771E-02  0.1299523E+00
          2   -1    0    0  501    0  0.00000000000E+00  0.00000000000E+00  0.15725374418E+03  0.15725374418E+03  0.00000000000E+00 0. -1.
         -2   -1    0    0    0  501 -0.00000000000E+00 -0.00000000000E+00 -0.13277794265E+02  0.13277794265E+02  0.00000000000E+00 0.  1.
         23    2    1    2    0    0  0.00000000000E+00  0.00000000000E+00  0.14397594992E+03  0.17053153845E+03  0.91388902231E+02 0.  0.
        -13    1    3    3    0    0  0.22713021161E+02  0.37665155003E+02  0.48873864099E+02  0.65751044277E+02  0.00000000000E+00 0.  1.
         13    1    3    3    0    0 -0.22713021161E+02 -0.37665155003E+02  0.95102085819E+02  0.10478049417E+03  0.00000000000E+00 0. -1.
<mgrwt>
<rscale>  0 0.91388902E+02</rscale>
<asrwt>0</asrwt>
<pdfrwt beam="1">  1        2 0.24192882E-01 0.91388902E+02</pdfrwt>
<pdfrwt beam="2">  1       -2 0.20427377E-02 0.91388902E+02</pdfrwt>
<totfact> 0.14119360E+05</totfact>
</mgrwt>
</event>
<event>
 5    1  0.1197825E+001  0.9115724E+02  0.7546771E-02  0.1300073E+00
         -3   -1    0    0    0  501 -0.00000000000E+00  0.00000000000E+00  0.95353328980E+01  0.95353328980E+01  0.00000000000E+00 0.  1.
          3   -1    0    0  501    0  0.00000000000E+00 -0.00000000000E+00 -0.21786450501E+03  0.21786450501E+03  0.00000000000E+00 0. -1.
         23    2    1    2    0    0  0.00000000000E+00  0.00000000000E+00 -0.20832917211E+03  0.22739983790E+03  0.91157239578E+02 0.  0.
        -11    1    3    3    0    0  0.29100041192E+02  0.34489824327E+02 -0.88181647246E+02  0.99057373731E+02  0.00000000000E+00 0. -1.
         11    1    3    3    0    0 -0.29100041192E+02 -0.34489824327E+02 -0.12014752486E+03  0.12834246417E+03  0.00000000000E+00 0.  1.
<mgrwt>
<rscale>  0 0.91157240E+02</rscale>
<asrwt>0</asrwt>
<pdfrwt beam="2">  1        3 0.33517612E-01 0.91157240E+02</pdfrwt>
<pdfrwt beam="1">  1       -3 0.14669745E-02 0.91157240E+02</pdfrwt>
<totfact> 0.27157138E+04</totfact>
</mgrwt>
</event>
<event>
 5    1  0.1197825E+001  0.9096133E+02  0.7546771E-02  0.1300540E+00
         -2   -1    0    0    0  501 -0.00000000000E+00  0.00000000000E+00  0.75009474134E+02  0.75009474134E+02  0.00000000000E+00 0.  1.
          2   -1    0    0  501    0  0.00000000000E+00 -0.00000000000E+00 -0.27576396342E+02  0.27576396342E+02  0.00000000000E+00 0. -1.
         23    2    1    2    0    0  0.00000000000E+00  0.00000000000E+00  0.47433077793E+02  0.10258587048E+03  0.90961332182E+02 0.  0.
        -13    1    3    3    0    0  0.13737965230E+02  0.30968373499E+02  0.57937666995E+02  0.67115907970E+02  0.00000000000E+00 0.  1.
         13    1    3    3    0    0 -0.13737965230E+02 -0.30968373499E+02 -0.10504589202E+02  0.35469962506E+02  0.00000000000E+00 0. -1.
<mgrwt>
<rscale>  0 0.90961332E+02</rscale>
<asrwt>0</asrwt>
<pdfrwt beam="2">  1        2 0.42425225E-02 0.90961332E+02</pdfrwt>
<pdfrwt beam="1">  1       -2 0.11539919E-01 0.90961332E+02</pdfrwt>
<totfact> 0.87095938E+04</totfact>
</mgrwt>
</event>
<event>
 5    1  0.1197825E+001  0.1042612E+03  0.7546771E-02  0.1271582E+00
         -1   -1    0    0    0  501 -0.00000000000E+00  0.00000000000E+00  0.17945454279E+03  0.17945454279E+03  0.00000000000E+00 0.  1.
          1   -1    0    0  501    0  0.00000000000E+00 -0.00000000000E+00 -0.15143654379E+02  0.15143654379E+02  0.00000000000E+00 0. -1.
         23    2    1    2    0    0  0.00000000000E+00  0.00000000000E+00  0.16431088841E+03  0.19459819717E+03  0.10426116387E+03 0.  0.
        -13    1    3    3    0    0 -0.13683458628E+02 -0.25765895458E+02  0.16279122896E+03  0.16538471101E+03  0.00000000000E+00 0.  1.
         13    1    3    3    0    0  0.13683458628E+02  0.25765895458E+02  0.15196594491E+01  0.29213486160E+02  0.00000000000E+00 0. -1.
<mgrwt>
<rscale>  0 0.10426116E+03</rscale>
<asrwt>0</asrwt>
<pdfrwt beam="2">  1        1 0.23297931E-02 0.10426116E+03</pdfrwt>
<pdfrwt beam="1">  1       -1 0.27608390E-01 0.10426116E+03</pdfrwt>
<totfact> 0.50389653E+04</totfact>
</mgrwt>
</event>
<event>
 5    1  0.1197825E+001  0.9913767E+02  0.7546771E-02  0.1282120E+00
          1   -1    0    0  501    0  0.00000000000E+00  0.00000000000E+00  0.56234868983E+02  0.56234868983E+02  0.00000000000E+00 0. -1.
         -1   -1    0    0    0  501 -0.00000000000E+00 -0.00000000000E+00 -0.43692985112E+02  0.43692985112E+02  0.00000000000E+00 0.  1.
         23    2    1    2    0    0  0.00000000000E+00  0.00000000000E+00  0.12541883871E+02  0.99927854096E+02  0.99137667781E+02 0.  0.
        -13    1    3    3    0    0 -0.12203615934E+02  0.63386137678E+01 -0.41731778262E+02  0.43939134985E+02  0.00000000000E+00 0.  1.
         13    1    3    3    0    0  0.12203615934E+02 -0.63386137678E+01  0.54273662132E+02  0.55988719110E+02  0.00000000000E+00 0. -1.
<mgrwt>
<rscale>  0 0.99137668E+02</rscale>
<asrwt>0</asrwt>
<pdfrwt beam="1">  1        1 0.86515183E-02 0.99137668E+02</pdfrwt>
<pdfrwt beam="2">  1       -1 0.67219977E-02 0.99137668E+02</pdfrwt>
<totfact> 0.75484944E+04</totfact>
</mgrwt>
</event>
<event>
 5    1  0.1197825E+001  0.8891605E+02  0.7546771E-02  0.1305498E+00
          1   -1    0    0  501    0  0.00000000000E+00  0.00000000000E+00  0.11893136141E+02  0.11893136141E+02  0.00000000000E+00 0. -1.
         -1   -1    0    0    0  501 -0.00000000000E+00 -0.00000000000E+00 -0.16618965437E+03  0.16618965437E+03  0.00000000000E+00 0.  1.
         23    2    1    2    0    0  0.00000000000E+00  0.00000000000E+00 -0.15429651823E+03  0.17808279051E+03  0.88916054448E+02 0.  0.
        -11    1    3    3    0    0 -0.24925430112E+02  0.16476908821E+02 -0.14308180665E+03  0.14616828994E+03  0.00000000000E+00 0.  1.
         11    1    3    3    0    0  0.24925430112E+02 -0.16476908821E+02 -0.11214711574E+02  0.31914500564E+02  0.00000000000E+00 0. -1.
<mgrwt>
<rscale>  0 0.88916054E+02</rscale>
<asrwt>0</asrwt>
<pdfrwt beam="1">  1        1 0.18297132E-02 0.88916054E+02</pdfrwt>
<pdfrwt beam="2">  1       -1 0.25567640E-01 0.88916054E+02</pdfrwt>
<totfact> 0.77867440E+04</totfact>
</mgrwt>
</event>
<event>
 5    1  0.1197825E+001  0.9055795E+02  0.7546771E-02  0.1301506E+00
          3   -1    0    0  501    0  0.00000000000E+00  0.00000000000E+00  0.20471528385E+02  0.20471528385E+02  0.00000000000E+00 0. -1.
         -3   -1    0    0    0  501 -0.00000000000E+00 -0.00000000000E+00 -0.10014813859E+03  0.10014813859E+03  0.00000000000E+00 0.  1.
         23    2    1    2    0    0  0.00000000000E+00  0.00000000000E+00 -0.79676610208E+02  0.12061966698E+03  0.90557947456E+02 0.  0.
        -13    1    3    3    0    0 -0.18174784620E+02  0.35127185951E+02 -0.10476386440E+02  0.40914504294E+02  0.00000000000E+00 0. -1.
         13    1    3    3    0    0  0.18174784620E+02 -0.35127185951E+02 -0.69200223768E+02  0.79705162683E+02  0.00000000000E+00 0.  1.
<mgrwt>
<rscale>  0 0.90557947E+02</rscale>
<asrwt>0</asrwt>
<pdfrwt beam="1">  1        3 0.31494659E-02 0.90557947E+02</pdfrwt>
<pdfrwt beam="2">  1       -3 0.15407406E-01 0.90557947E+02</pdfrwt>
<totfact> 0.33824756E+04</totfact>
</mgrwt>
</event>
<event>
 5    1  0.1197825E+001  0.9150756E+02  0.7546771E-02  0.1299241E+00
         -3   -1    0    0    0  501 -0.00000000000E+00  0.00000000000E+00  0.20382677691E+02  0.20382677691E+02  0.00000000000E+00 0.  1.
          3   -1    0    0  501    0  0.00000000000E+00 -0.00000000000E+00 -0.10270527274E+03  0.10270527274E+03  0.00000000000E+00 0. -1.
         23    2    1    2    0    0  0.00000000000E+00  0.00000000000E+00 -0.82322595045E+02  0.12308795043E+03  0.91507561904E+02 0.  0.
        -11    1    3    3    0    0 -0.19177817247E+02  0.41190572859E+02 -0.33923080114E+02  0.56702974624E+02  0.00000000000E+00 0.  1.
         11    1    3    3    0    0  0.19177817247E+02 -0.41190572859E+02 -0.48399514931E+02  0.66384975803E+02  0.00000000000E+00 0. -1.
<mgrwt>
<rscale>  0 0.91507562E+02</rscale>
<asrwt>0</asrwt>
<pdfrwt beam="2">  1        3 0.15800811E-01 0.91507562E+02</pdfrwt>
<pdfrwt beam="1">  1       -3 0.31357966E-02 0.91507562E+02</pdfrwt>
<totfact> 0.32712636E+04</totfact>
</mgrwt>
</event>
<event>
 5    1  0.1197825E+001  0.8849057E+02  0.7546771E-02  0.1306549E+00
          4   -1    0    0  501    0  0.00000000000E+00  0.00000000000E+00  0.23513925579E+02  0.23513925579E+02  0.00000000000E+00 0.  1.
         -4   -1    0    0    0  501 -0.00000000000E+00 -0.00000000000E+00 -0.83254716286E+02  0.83254716286E+02  0.00000000000E+00 0. -1.
         23    2    1    2    0    0  0.00000000000E+00  0.00000000000E+00 -0.59740790707E+02  0.10676864186E+03  0.88490569052E+02 0.  0.
        -11    1    3    3    0    0 -0.12915320161E+02 -0.32567386597E+02  0.27334739108E+01  0.35141315346E+02  0.00000000000E+00 0.  1.
         11    1    3    3    0    0  0.12915320161E+02  0.32567386597E+02 -0.62474264618E+02  0.71627326518E+02  0.00000000000E+00 0. -1.
<mgrwt>
<rscale>  0 0.88490569E+02</rscale>
<asrwt>0</asrwt>
<pdfrwt beam="1">  1        4 0.36175270E-02 0.88490569E+02</pdfrwt>
<pdfrwt beam="2">  1       -4 0.12808418E-01 0.88490569E+02</pdfrwt>
<totfact> 0.28232951E+04</totfact>
</mgrwt>
</event>
<event>
 5    1  0.1197825E+001  0.9416786E+02  0.7546771E-02  0.1293061E+00
          1   -1    0    0  501    0  0.00000000000E+00  0.00000000000E+00  0.60806193663E+02  0.60806193663E+02  0.00000000000E+00 0. -1.
         -1   -1    0    0    0  501 -0.00000000000E+00 -0.00000000000E+00 -0.36458396119E+02  0.36458396119E+02  0.00000000000E+00 0.  1.
         23    2    1    2    0    0  0.00000000000E+00  0.00000000000E+00  0.24347797544E+02  0.97264589782E+02  0.94167856407E+02 0.  0.
        -11    1    3    3    0    0 -0.22200640891E+02  0.35230102967E+02 -0.10522980396E+02  0.42950689488E+02  0.00000000000E+00 0.  1.
         11    1    3    3    0    0  0.22200640891E+02 -0.35230102967E+02  0.34870777940E+02  0.54313900294E+02  0.00000000000E+00 0. -1.
<mgrwt>
<rscale>  0 0.94167856E+02</rscale>
<asrwt>0</asrwt>
<pdfrwt beam="1">  1        1 0.93547990E-02 0.94167856E+02</pdfrwt>
<pdfrwt beam="2">  1       -1 0.56089840E-02 0.94167856E+02</pdfrwt>
<totfact> 0.88274017E+04</totfact>
</mgrwt>
</event>
<event>
 5    1  0.1197825E+001  0.8611458E+02  0.7546771E-02  0.1312543E+00
         -1   -1    0    0    0  501 -0.00000000000E+00  0.00000000000E+00  0.27741150705E+02  0.27741150705E+02  0.00000000000E+00 0.  1.
          1   -1    0    0  501    0  0.00000000000E+00 -0.00000000000E+00 -0.66829611502E+02  0.66829611502E+02  0.00000000000E+00 0. -1.
         23    2    1    2    0    0  0.00000000000E+00  0.00000000000E+00 -0.39088460797E+02  0.94570762207E+02  0.86114582371E+02 0.  0.
        -11    1    3    3    0    0  0.94071723134E+01 -0.19880025753E+02 -0.60195614980E+02  0.64087614854E+02  0.00000000000E+00 0. -1.
         11    1    3    3    0    0 -0.94071723134E+01  0.19880025753E+02  0.21107154182E+02  0.30483147353E+02  0.00000000000E+00 0.  1.
<mgrwt>
<rscale>  0 0.86114582E+02</rscale>
<asrwt>0</asrwt>
<pdfrwt beam="2">  1        1 0.10281479E-01 0.86114582E+02</pdfrwt>
<pdfrwt beam="1">  1       -1 0.42678694E-02 0.86114582E+02</pdfrwt>
<totfact> 0.11462278E+05</totfact>
</mgrwt>
</event>
<event>
 5    1  0.1197825E+001  0.9275337E+02  0.7546771E-02  0.1296318E+00
          1   -1    0    0  501    0  0.00000000000E+00  0.00000000000E+00  0.12516136704E+03  0.12516136704E+03  0.00000000000E+00 0. -1.
         -1   -1    0    0    0  501 -0.00000000000E+00 -0.00000000000E+00 -0.17184192978E+02  0.17184192978E+02  0.00000000000E+00 0.  1.
         23    2    1    2    0    0  0.00000000000E+00  0.00000000000E+00  0.10797717407E+03  0.14234556002E+03  0.92753373733E+02 0.  0.
        -11    1    3    3    0    0 -0.32532972175E+02  0.20309524575E+02  0.13971539776E+02  0.40817581883E+02  0.00000000000E+00 0.  1.
         11    1    3    3    0    0  0.32532972175E+02 -0.20309524575E+02  0.94005634290E+02  0.10152797814E+03  0.00000000000E+00 0. -1.
<mgrwt>
<rscale>  0 0.92753374E+02</rscale>
<asrwt>0</asrwt>
<pdfrwt beam="1">  1        1 0.19255594E-01 0.92753374E+02</pdfrwt>
<pdfrwt beam="2">  1       -1 0.26437221E-02 0.92753374E+02</pdfrwt>
<totfact> 0.10360098E+05</totfact>
</mgrwt>
</event>
<event>
 5    1  0.1197825E+001  0.9174814E+02  0.7546771E-02  0.1298673E+00
         -2   -1    0    0    0  501 -0.00000000000E+00  0.00000000000E+00  0.20587036175E+02  0.20587036175E+02  0.00000000000E+00 0.  1.
          2   -1    0    0  501    0  0.00000000000E+00 -0.00000000000E+00 -0.10222114365E+03  0.10222114365E+03  0.00000000000E+00 0. -1.
         23    2    1    2    0    0  0.00000000000E+00  0.00000000000E+00 -0.81634107472E+02  0.12280817982E+03  0.91748141825E+02 0.  0.
        -13    1    3    3    0    0 -0.23846556458E+02  0.39071856510E+02 -0.44868675158E+02  0.64097318481E+02  0.00000000000E+00 0. -1.
         13    1    3    3    0    0  0.23846556458E+02 -0.39071856510E+02 -0.36765432314E+02  0.58710861340E+02  0.00000000000E+00 0.  1.
<mgrwt>
<rscale>  0 0.91748142E+02</rscale>
<asrwt>0</asrwt>
<pdfrwt beam="2">  1        2 0.15726330E-01 0.91748142E+02</pdfrwt>
<pdfrwt beam="1">  1       -2 0.31672364E-02 0.91748142E+02</pdfrwt>
<totfact> 0.12139544E+05</totfact>
</mgrwt>
</event>
<event>
 5    1  0.1197825E+001  0.9137976E+02  0.7546771E-02  0.1299544E+00
          1   -1    0    0  501    0  0.00000000000E+00  0.00000000000E+00  0.59490260974E+02  0.59490260974E+02  0.00000000000E+00 0. -1.
         -1   -1    0    0    0  501 -0.00000000000E+00 -0.00000000000E+00 -0.35090872706E+02  0.35090872706E+02  0.00000000000E+00 0.  1.
         23    2    1    2    0    0  0.00000000000E+00  0.00000000000E+00  0.24399388267E+02  0.94581133680E+02  0.91379760890E+02 0.  0.
        -13    1    3    3    0    0  0.23597412019E+01 -0.36987538978E+02  0.39855027259E+02  0.54424898861E+02  0.00000000000E+00 0. -1.
         13    1    3    3    0    0 -0.23597412019E+01  0.36987538978E+02 -0.15455638992E+02  0.40156234819E+02  0.00000000000E+00 0.  1.
<mgrwt>
<rscale>  0 0.91379761E+02</rscale>
<asrwt>0</asrwt>
<pdfrwt beam="1">  1        1 0.91523478E-02 0.91379761E+02</pdfrwt>
<pdfrwt beam="2">  1       -1 0.53985958E-02 0.91379761E+02</pdfrwt>
<totfact> 0.95654384E+04</totfact>
</mgrwt>
</event>
<event>
 5    1  0.1197825E+001  0.9223615E+02  0.7546771E-02  0.1297525E+00
         -1   -1    0    0    0  501 -0.00000000000E+00  0.00000000000E+00  0.11435637680E+03  0.11435637680E+03  0.00000000000E+00 0. -1.
          1   -1    0    0  501    0  0.00000000000E+00 -0.00000000000E+00 -0.18598671811E+02  0.18598671811E+02  0.00000000000E+00 0.  1.
         23    2    1    2    0    0  0.00000000000E+00  0.00000000000E+00  0.95757704984E+02  0.13295504861E+03  0.92236147395E+02 0.  0.
        -11    1    3    3    0    0 -0.35297734491E+02  0.21386453197E+02  0.18212485265E+02  0.45111030359E+02  0.00000000000E+00 0.  1.
         11    1    3    3    0    0  0.35297734491E+02 -0.21386453197E+02  0.77545219719E+02  0.87844018248E+02  0.00000000000E+00 0. -1.
<mgrwt>
<rscale>  0 0.92236147E+02</rscale>
<asrwt>0</asrwt>
<pdfrwt beam="2">  1        1 0.28613342E-02 0.92236147E+02</pdfrwt>
<pdfrwt beam="1">  1       -1 0.17593288E-01 0.92236147E+02</pdfrwt>
<totfact> 0.76964405E+04</totfact>
</mgrwt>
</event>
<event>
 5    1  0.1197825E+001  0.9571882E+02  0.7546771E-02  0.1289565E+00
         -4   -1    0    0    0  501 -0.00000000000E+00  0.00000000000E+00  0.10519318891E+03  0.10519318891E+03  0.00000000000E+00 0.  1.
          4   -1    0    0  501    0  0.00000000000E+00 -0.00000000000E+00 -0.21774443078E+02  0.21774443078E+02  0.00000000000E+00 0. -1.
         23    2    1    2    0    0  0.00000000000E+00  0.00000000000E+00  0.83418745835E+02  0.12696763199E+03  0.95718819554E+02 0.  0.
        -13    1    3    3    0    0 -0.78654307469E+01  0.20284582412E+02  0.98254646721E+02  0.10063451141E+03  0.00000000000E+00 0.  1.
         13    1    3    3    0    0  0.78654307469E+01 -0.20284582412E+02 -0.14835900886E+02  0.26333120581E+02  0.00000000000E+00 0. -1.
<mgrwt>
<rscale>  0 0.95718820E+02</rscale>
<asrwt>0</asrwt>
<pdfrwt beam="2">  1        4 0.33499144E-02 0.95718820E+02</pdfrwt>
<pdfrwt beam="1">  1       -4 0.16183567E-01 0.95718820E+02</pdfrwt>
<totfact> 0.21809261E+04</totfact>
</mgrwt>
</event>
<event>
 5    1  0.1197825E+001  0.7297411E+02  0.7546771E-02  0.1350262E+00
          1   -1    0    0  501    0  0.00000000000E+00  0.00000000000E+00  0.12568387752E+03  0.12568387752E+03  0.00000000000E+00 0. -1.
         -1   -1    0    0    0  501 -0.00000000000E+00 -0.00000000000E+00 -0.10592489261E+02  0.10592489261E+02  0.00000000000E+00 0.  1.
         23    2    1    2    0    0  0.00000000000E+00  0.00000000000E+00  0.11509138826E+03  0.13627636678E+03  0.72974108363E+02 0.  0.
        -13    1    3    3    0    0  0.15620807544E+02  0.31722775462E+02  0.40742582520E+02  0.53947216255E+02  0.00000000000E+00 0. -1.
         13    1    3    3    0    0 -0.15620807544E+02 -0.31722775462E+02  0.74348805739E+02  0.82329150524E+02  0.00000000000E+00 0.  1.
<mgrwt>
<rscale>  0 0.72974108E+02</rscale>
<asrwt>0</asrwt>
<pdfrwt beam="1">  1        1 0.19335980E-01 0.72974108E+02</pdfrwt>
<pdfrwt beam="2">  1       -1 0.16296138E-02 0.72974108E+02</pdfrwt>
<totfact> 0.19690962E+05</totfact>
</mgrwt>
</event>
<event>
 5    1  0.1197825E+001  0.8612142E+02  0.7546771E-02  0.1312526E+00
         -4   -1    0    0    0  501 -0.00000000000E+00  0.00000000000E+00  0.62696040988E+02  0.62696040988E+02  0.00000000000E+00 0. -1.
          4   -1    0    0  501    0  0.00000000000E+00 -0.00000000000E+00 -0.29574826861E+02  0.29574826861E+02  0.00000000000E+00 0.  1.
         23    2    1    2    0    0  0.00000000000E+00  0.00000000000E+00  0.33121214127E+02  0.92270867849E+02  0.86121415619E+02 0.  0.
        -13    1    3    3    0    0 -0.12018510489E+02  0.27467860061E+02 -0.16554225803E+02  0.34248654318E+02  0.00000000000E+00 0.  1.
         13    1    3    3    0    0  0.12018510489E+02 -0.27467860061E+02  0.49675439930E+02  0.58022213530E+02  0.00000000000E+00 0. -1.
<mgrwt>
<rscale>  0 0.86121416E+02</rscale>
<asrwt>0</asrwt>
<pdfrwt beam="2">  1        4 0.45499734E-02 0.86121416E+02</pdfrwt>
<pdfrwt beam="1">  1       -4 0.96455447E-02 0.86121416E+02</pdfrwt>
<totfact> 0.31429958E+04</totfact>
</mgrwt>
</event>
<event>
 5    1  0.1197825E+001  0.9050352E+02  0.7546771E-02  0.1301637E+00
          1   -1    0    0  501    0  0.00000000000E+00  0.00000000000E+00  0.24453341503E+03  0.24453341503E+03  0.00000000000E+00 0. -1.
         -1   -1    0    0    0  501 -0.00000000000E+00 -0.00000000000E+00 -0.83739962297E+01  0.83739962297E+01  0.00000000000E+00 0.  1.
         23    2    1    2    0    0  0.00000000000E+00  0.00000000000E+00  0.23615941880E+03  0.25290741126E+03  0.90503522484E+02 0.  0.
        -13    1    3    3    0    0  0.44034558028E+02 -0.39436624603E+01  0.14504680424E+03  0.15163499001E+03  0.00000000000E+00 0. -1.
         13    1    3    3    0    0 -0.44034558028E+02  0.39436624603E+01  0.91112614561E+02  0.10127242125E+03  0.00000000000E+00 0.  1.
<mgrwt>
<rscale>  0 0.90503522E+02</rscale>
<asrwt>0</asrwt>
<pdfrwt beam="1">  1        1 0.37620520E-01 0.90503522E+02</pdfrwt>
<pdfrwt beam="2">  1       -1 0.12883073E-02 0.90503522E+02</pdfrwt>
<totfact> 0.12559986E+05</totfact>
</mgrwt>
</event>
<event>
 5    1  0.1197825E+001  0.8891839E+02  0.7546771E-02  0.1305492E+00
         -1   -1    0    0    0  501 -0.00000000000E+00  0.00000000000E+00  0.48548061833E+01  0.48548061833E+01  0.00000000000E+00 0.  1.
          1   -1    0    0  501    0  0.00000000000E+00 -0.00000000000E+00 -0.40714708997E+03  0.40714708997E+03  0.00000000000E+00 0. -1.
         23    2    1    2    0    0  0.00000000000E+00  0.00000000000E+00 -0.40229228379E+03  0.41200189615E+03  0.88918394270E+02 0.  0.
        -13    1    3    3    0    0 -0.19061675406E+02  0.39291905889E+02 -0.23975139288E+03  0.24369639252E+03  0.00000000000E+00 0. -1.
         13    1    3    3    0    0  0.19061675406E+02 -0.39291905889E+02 -0.16254089091E+03  0.16830550364E+03  0.00000000000E+00 0.  1.
<mgrwt>
<rscale>  0 0.88918394E+02</rscale>
<asrwt>0</asrwt>
<pdfrwt beam="2">  1        1 0.62638026E-01 0.88918394E+02</pdfrwt>
<pdfrwt beam="1">  1       -1 0.74689312E-03 0.88918394E+02</pdfrwt>
<totfact> 0.14457882E+05</totfact>
</mgrwt>
</event>
<event>
 5    1  0.1197825E+001  0.8758103E+02  0.7546771E-02  0.1308818E+00
         -1   -1    0    0    0  501 -0.00000000000E+00  0.00000000000E+00  0.31422420014E+02  0.31422420014E+02  0.00000000000E+00 0.  1.
          1   -1    0    0  501    0  0.00000000000E+00 -0.00000000000E+00 -0.61026777094E+02  0.61026777094E+02  0.00000000000E+00 0. -1.
         23    2    1    2    0    0  0.00000000000E+00  0.00000000000E+00 -0.29604357080E+02  0.92449197108E+02  0.87581025844E+02 0.  0.
        -13    1    3    3    0    0 -0.29546176431E+02  0.27625868967E+02 -0.32510972824E+02  0.51895361372E+02  0.00000000000E+00 0.  1.
         13    1    3    3    0    0  0.29546176431E+02 -0.27625868967E+02  0.29066157440E+01  0.40553835737E+02  0.00000000000E+00 0. -1.
<mgrwt>
<rscale>  0 0.87581026E+02</rscale>
<asrwt>0</asrwt>
<pdfrwt beam="2">  1        1 0.93887349E-02 0.87581026E+02</pdfrwt>
<pdfrwt beam="1">  1       -1 0.48342185E-02 0.87581026E+02</pdfrwt>
<totfact> 0.10797359E+05</totfact>
</mgrwt>
</event>
<event>
 5    1  0.1197825E+001  0.9013740E+02  0.7546771E-02  0.1302519E+00
          3   -1    0    0  501    0  0.00000000000E+00  0.00000000000E+00  0.60185672866E+02  0.60185672866E+02  0.00000000000E+00 0. -1.
         -3   -1    0    0    0  501 -0.00000000000E+00 -0.00000000000E+00 -0.33748693705E+02  0.33748693705E+02  0.00000000000E+00 0.  1.
         23    2    1    2    0    0  0.00000000000E+00  0.00000000000E+00  0.26436979161E+02  0.93934366570E+02  0.90137402646E+02 0.  0.
        -13    1    3    3    0    0  0.23174474253E+02 -0.35232189578E+02 -0.33517567216E+01  0.42303637107E+02  0.00000000000E+00 0.  1.
         13    1    3    3    0    0 -0.23174474253E+02  0.35232189578E+02  0.29788735883E+02  0.51630729463E+02  0.00000000000E+00 0. -1.
<mgrwt>
<rscale>  0 0.90137403E+02</rscale>
<asrwt>0</asrwt>
<pdfrwt beam="1">  1        3 0.92593343E-02 0.90137403E+02</pdfrwt>
<pdfrwt beam="2">  1       -3 0.51921067E-02 0.90137403E+02</pdfrwt>
<totfact> 0.36239394E+04</totfact>
</mgrwt>
</event>
<event>
 5    1  0.1197825E+001  0.1011780E+03  0.7546771E-02  0.1277838E+00
          1   -1    0    0  501    0  0.00000000000E+00  0.00000000000E+00  0.48550495255E+02  0.48550495255E+02  0.00000000000E+00 0. -1.
         -1   -1    0    0    0  501 -0.00000000000E+00 -0.00000000000E+00 -0.52713056972E+02  0.52713056972E+02  0.00000000000E+00 0.  1.
         23    2    1    2    0    0  0.00000000000E+00  0.00000000000E+00 -0.41625617176E+01  0.10126355223E+03  0.10117796247E+03 0.  0.
        -13    1    3    3    0    0  0.25860580632E+01  0.27183091292E+02 -0.44704122171E+02  0.52383839947E+02  0.00000000000E+00 0.  1.
         13    1    3    3    0    0 -0.25860580632E+01 -0.27183091292E+02  0.40541560454E+02  0.48879712279E+02  0.00000000000E+00 0. -1.
<mgrwt>
<rscale>  0 0.10117796E+03</rscale>
<asrwt>0</asrwt>
<pdfrwt beam="1">  1        1 0.74693070E-02 0.10117796E+03</pdfrwt>
<pdfrwt beam="2">  1       -1 0.81097011E-02 0.10117796E+03</pdfrwt>
<totfact> 0.69572771E+04</totfact>
</mgrwt>
</event>
<event>
 5    1  0.1197825E+001  0.8809069E+02  0.7546771E-02  0.1307542E+00
         -1   -1    0    0    0  501 -0.00000000000E+00  0.00000000000E+00  0.32613210634E+02  0.32613210634E+02  0.00000000000E+00 0. -1.
          1   -1    0    0  501    0  0.00000000000E+00 -0.00000000000E+00 -0.59484866842E+02  0.59484866842E+02  0.00000000000E+00 0.  1.
         23    2    1    2    0    0  0.00000000000E+00  0.00000000000E+00 -0.26871656208E+02  0.92098077476E+02  0.88090691719E+02 0.  0.
        -11    1    3    3    0    0 -0.34531803736E+02 -0.21034341110E+02 -0.31697652023E+02  0.51377330789E+02  0.00000000000E+00 0.  1.
         11    1    3    3    0    0  0.34531803736E+02  0.21034341110E+02  0.48259958150E+01  0.40720746688E+02  0.00000000000E+00 0. -1.
<mgrwt>
<rscale>  0 0.88090692E+02</rscale>
<asrwt>0</asrwt>
<pdfrwt beam="2">  1        1 0.91515180E-02 0.88090692E+02</pdfrwt>
<pdfrwt beam="1">  1       -1 0.50174170E-02 0.88090692E+02</pdfrwt>
<totfact> 0.10586049E+05</totfact>
</mgrwt>
</event>
<event>
 5    1  0.1197825E+001  0.9003351E+02  0.7546771E-02  0.1302771E+00
         -1   -1    0    0    0  501 -0.00000000000E+00  0.00000000000E+00  0.61357671613E+02  0.61357671613E+02  0.00000000000E+00 0.  1.
          1   -1    0    0  501    0  0.00000000000E+00 -0.00000000000E+00 -0.33027788221E+02  0.33027788221E+02  0.00000000000E+00 0. -1.
         23    2    1    2    0    0  0.00000000000E+00  0.00000000000E+00  0.28329883392E+02  0.94385459835E+02  0.90033508958E+02 0.  0.
        -13    1    3    3    0    0 -0.14162492289E+02  0.15855138023E+02 -0.27433654770E+02  0.34706872570E+02  0.00000000000E+00 0. -1.
         13    1    3    3    0    0  0.14162492289E+02 -0.15855138023E+02  0.55763538162E+02  0.59678587264E+02  0.00000000000E+00 0.  1.
<mgrwt>
<rscale>  0 0.90033509E+02</rscale>
<asrwt>0</asrwt>
<pdfrwt beam="2">  1        1 0.50811982E-02 0.90033509E+02</pdfrwt>
<pdfrwt beam="1">  1       -1 0.94396417E-02 0.90033509E+02</pdfrwt>
<totfact> 0.91244273E+04</totfact>
</mgrwt>
</event>
<event>
 5    1  0.1197825E+001  0.9307839E+02  0.7546771E-02  0.1295564E+00
         -1   -1    0    0    0  501 -0.00000000000E+00  0.00000000000E+00  0.17344072114E+03  0.17344072114E+03  0.00000000000E+00 0.  1.
          1   -1    0    0  501    0  0.00000000000E+00 -0.00000000000E+00 -0.12487821200E+02  0.12487821200E+02  0.00000000000E+00 0. -1.
         23    2    1    2    0    0  0.00000000000E+00  0.00000000000E+00  0.16095289995E+03  0.18592854234E+03  0.93078390927E+02 0.  0.
        -11    1    3    3    0    0 -0.42166652903E+02 -0.23318017673E+01  0.11954027473E+03  0.12678068149E+03  0.00000000000E+00 0.  1.
         11    1    3    3    0    0  0.42166652903E+02  0.23318017673E+01  0.41412625217E+02  0.59147860857E+02  0.00000000000E+00 0. -1.
<mgrwt>
<rscale>  0 0.93078391E+02</rscale>
<asrwt>0</asrwt>
<pdfrwt beam="2">  1        1 0.19212034E-02 0.93078391E+02</pdfrwt>
<pdfrwt beam="1">  1       -1 0.26683186E-01 0.93078391E+02</pdfrwt>
<totfact> 0.68389816E+04</totfact>
</mgrwt>
</event>
<event>
 5    1  0.1197825E+001  0.9120323E+02  0.7546771E-02  0.1299964E+00
         -2   -1    0    0    0  501 -0.00000000000E+00  0.00000000000E+00  0.83859927704E+01  0.83859927704E+01  0.00000000000E+00 0.  1.
          2   -1    0    0  501    0  0.00000000000E+00 -0.00000000000E+00 -0.24797386828E+03  0.24797386828E+03  0.00000000000E+00 0. -1.
         23    2    1    2    0    0  0.00000000000E+00  0.00000000000E+00 -0.23958787551E+03  0.25635986105E+03  0.91203225089E+02 0.  0.
        -11    1    3    3    0    0 -0.26668732968E+02 -0.32470096474E+02 -0.16960087590E+03  0.17472831937E+03  0.00000000000E+00 0. -1.
         11    1    3    3    0    0  0.26668732968E+02  0.32470096474E+02 -0.69986999610E+02  0.81631541683E+02  0.00000000000E+00 0.  1.
<mgrwt>
<rscale>  0 0.91203225E+02</rscale>
<asrwt>0</asrwt>
<pdfrwt beam="2">  1        2 0.38149832E-01 0.91203225E+02</pdfrwt>
<pdfrwt beam="1">  1       -2 0.12901525E-02 0.91203225E+02</pdfrwt>
<totfact> 0.16722605E+05</totfact>
</mgrwt>
</event>
<event>
 5    1  0.1197825E+001  0.8577849E+02  0.7546771E-02  0.1313409E+00
         -2   -1    0    0    0  501 -0.00000000000E+00  0.00000000000E+00  0.25701195034E+02  0.25701195034E+02  0.00000000000E+00 0. -1.
          2   -1    0    0  501    0  0.00000000000E+00 -0.00000000000E+00 -0.71572052093E+02  0.71572052093E+02  0.00000000000E+00 0.  1.
         23    2    1    2    0    0  0.00000000000E+00  0.00000000000E+00 -0.45870857059E+02  0.97273247126E+02  0.85778488441E+02 0.  0.
        -13    1    3    3    0    0 -0.93764666250E+01  0.26397625761E+02 -0.59764146407E+02  0.66003832979E+02  0.00000000000E+00 0.  1.
         13    1    3    3    0    0  0.93764666250E+01 -0.26397625761E+02  0.13893289348E+02  0.31269414147E+02  0.00000000000E+00 0. -1.
<mgrwt>
<rscale>  0 0.85778488E+02</rscale>
<asrwt>0</asrwt>
<pdfrwt beam="2">  1        2 0.11011085E-01 0.85778488E+02</pdfrwt>
<pdfrwt beam="1">  1       -2 0.39540300E-02 0.85778488E+02</pdfrwt>
<totfact> 0.13187014E+05</totfact>
</mgrwt>
</event>
<event>
 5    1  0.1197825E+001  0.9324934E+02  0.7546771E-02  0.1295168E+00
         -3   -1    0    0    0  501 -0.00000000000E+00  0.00000000000E+00  0.29193397381E+02  0.29193397381E+02  0.00000000000E+00 0.  1.
          3   -1    0    0  501    0  0.00000000000E+00 -0.00000000000E+00 -0.74464089820E+02  0.74464089820E+02  0.00000000000E+00 0. -1.
         23    2    1    2    0    0  0.00000000000E+00  0.00000000000E+00 -0.45270692439E+02  0.10365748720E+03  0.93249338115E+02 0.  0.
        -13    1    3    3    0    0  0.27630614931E+02  0.36996749753E+02 -0.15461381338E+02  0.48695633137E+02  0.00000000000E+00 0.  1.
         13    1    3    3    0    0 -0.27630614931E+02 -0.36996749753E+02 -0.29809311101E+02  0.54961854063E+02  0.00000000000E+00 0. -1.
<mgrwt>
<rscale>  0 0.93249338E+02</rscale>
<asrwt>0</asrwt>
<pdfrwt beam="2">  1        3 0.11456014E-01 0.93249338E+02</pdfrwt>
<pdfrwt beam="1">  1       -3 0.44912919E-02 0.93249338E+02</pdfrwt>
<totfact> 0.32355550E+04</totfact>
</mgrwt>
</event>
<event>
 5    1  0.1197825E+001  0.9179593E+02  0.7546771E-02  0.1298560E+00
         -1   -1    0    0    0  501 -0.00000000000E+00  0.00000000000E+00  0.31524123779E+02  0.31524123779E+02  0.00000000000E+00 0.  1.
          1   -1    0    0  501    0  0.00000000000E+00 -0.00000000000E+00 -0.66825749793E+02  0.66825749793E+02  0.00000000000E+00 0. -1.
         23    2    1    2    0    0  0.00000000000E+00  0.00000000000E+00 -0.35301626015E+02  0.98349873572E+02  0.91795930369E+02 0.  0.
        -13    1    3    3    0    0 -0.18763285673E+02 -0.25095800730E+02  0.18281147115E+02  0.36277547373E+02  0.00000000000E+00 0.  1.
         13    1    3    3    0    0  0.18763285673E+02  0.25095800730E+02 -0.53582773129E+02  0.62072326199E+02  0.00000000000E+00 0. -1.
<mgrwt>
<rscale>  0 0.91795930E+02</rscale>
<asrwt>0</asrwt>
<pdfrwt beam="2">  1        1 0.10280884E-01 0.91795930E+02</pdfrwt>
<pdfrwt beam="1">  1       -1 0.48498653E-02 0.91795930E+02</pdfrwt>
<totfact> 0.96148202E+04</totfact>
</mgrwt>
</event>
<event>
 5    1  0.1197825E+001  0.9066833E+02  0.7546771E-02  0.1301241E+00
          1   -1    0    0  501    0  0.00000000000E+00  0.00000000000E+00  0.40982984639E+03  0.40982984639E+03  0.00000000000E+00 0. -1.
         -1   -1    0    0    0  501 -0.00000000000E+00 -0.00000000000E+00 -0.50147314040E+01  0.50147314040E+01  0.00000000000E+00 0.  1.
         23    2    1    2    0    0  0.00000000000E+00  0.00000000000E+00  0.40481511499E+03  0.41484457780E+03  0.90668331870E+02 0.  0.
        -13    1    3    3    0    0 -0.38594051494E+02 -0.22200608284E+02  0.16336380977E+03  0.16932247979E+03  0.00000000000E+00 0.  1.
         13    1    3    3    0    0  0.38594051494E+02  0.22200608284E+02  0.24145130522E+03  0.24552209801E+03  0.00000000000E+00 0. -1.
<mgrwt>
<rscale>  0 0.90668332E+02</rscale>
<asrwt>0</asrwt>
<pdfrwt beam="1">  1        1 0.63050719E-01 0.90668332E+02</pdfrwt>
<pdfrwt beam="2">  1       -1 0.77149746E-03 0.90668332E+02</pdfrwt>
<totfact> 0.13744727E+05</totfact>
</mgrwt>
</event>
<event>
 5    1  0.1197825E+001  0.9157115E+02  0.7546771E-02  0.1299091E+00
          2   -1    0    0  501    0  0.00000000000E+00  0.00000000000E+00  0.22419489634E+03  0.22419489634E+03  0.00000000000E+00 0. -1.
         -2   -1    0    0    0  501 -0.00000000000E+00 -0.00000000000E+00 -0.93504305314E+01  0.93504305314E+01  0.00000000000E+00 0.  1.
         23    2    1    2    0    0  0.00000000000E+00  0.00000000000E+00  0.21484446581E+03  0.23354532687E+03  0.91571148376E+02 0.  0.
        -11    1    3    3    0    0 -0.44122317950E+02  0.34755402888E+01  0.13732431658E+03  0.14428037374E+03  0.00000000000E+00 0. -1.
         11    1    3    3    0    0  0.44122317950E+02 -0.34755402888E+01  0.77520149224E+02  0.89264953130E+02  0.00000000000E+00 0.  1.
<mgrwt>
<rscale>  0 0.91571148E+02</rscale>
<asrwt>0</asrwt>
<pdfrwt beam="1">  1        2 0.34491518E-01 0.91571148E+02</pdfrwt>
<pdfrwt beam="2">  1       -2 0.14385279E-02 0.91571148E+02</pdfrwt>
<totfact> 0.15939344E+05</totfact>
</mgrwt>
</event>
<event>
 5    1  0.1197825E+001  0.8085067E+02  0.7546771E-02  0.1326655E+00
          1   -1    0    0  501    0  0.00000000000E+00  0.00000000000E+00  0.76225312020E+02  0.76225312020E+02  0.00000000000E+00 0. -1.
         -1   -1    0    0    0  501 -0.00000000000E+00 -0.00000000000E+00 -0.21439172693E+02  0.21439172693E+02  0.00000000000E+00 0.  1.
         23    2    1    2    0    0  0.00000000000E+00  0.00000000000E+00  0.54786139327E+02  0.97664484713E+02  0.80850667974E+02 0.  0.
        -13    1    3    3    0    0 -0.18258556238E+02  0.18808888049E+02  0.64567254143E+02  0.69685575646E+02  0.00000000000E+00 0. -1.
         13    1    3    3    0    0  0.18258556238E+02 -0.18808888049E+02 -0.97811148159E+01  0.27978909067E+02  0.00000000000E+00 0.  1.
<mgrwt>
<rscale>  0 0.80850668E+02</rscale>
<asrwt>0</asrwt>
<pdfrwt beam="1">  1        1 0.11726971E-01 0.80850668E+02</pdfrwt>
<pdfrwt beam="2">  1       -1 0.32983343E-02 0.80850668E+02</pdfrwt>
<totfact> 0.13872856E+05</totfact>
</mgrwt>
</event>
<event>
 5    1  0.1197825E+001  0.8978669E+02  0.7546771E-02  0.1303369E+00
          2   -1    0    0  501    0  0.00000000000E+00  0.00000000000E+00  0.30889818740E+02  0.30889818740E+02  0.00000000000E+00 0. -1.
         -2   -1    0    0    0  501 -0.00000000000E+00 -0.00000000000E+00 -0.65245201811E+02  0.65245201811E+02  0.00000000000E+00 0.  1.
         23    2    1    2    0    0  0.00000000000E+00  0.00000000000E+00 -0.34355383072E+02  0.96135020551E+02  0.89786690720E+02 0.  0.
        -11    1    3    3    0    0  0.21323122933E+02 -0.34819135831E+01 -0.59312510452E+02  0.63125059920E+02  0.00000000000E+00 0.  1.
         11    1    3    3    0    0 -0.21323122933E+02  0.34819135831E+01  0.24957127380E+02  0.33009960631E+02  0.00000000000E+00 0. -1.
<mgrwt>
<rscale>  0 0.89786691E+02</rscale>
<asrwt>0</asrwt>
<pdfrwt beam="1">  1        2 0.47522798E-02 0.89786691E+02</pdfrwt>
<pdfrwt beam="2">  1       -2 0.10037723E-01 0.89786691E+02</pdfrwt>
<totfact> 0.93294303E+04</totfact>
</mgrwt>
</event>
<event>
 5    1  0.1197825E+001  0.9191730E+02  0.7546771E-02  0.1298274E+00
         -2   -1    0    0    0  501 -0.00000000000E+00  0.00000000000E+00  0.12848107608E+02  0.12848107608E+02  0.00000000000E+00 0.  1.
          2   -1    0    0  501    0  0.00000000000E+00 -0.00000000000E+00 -0.16439754563E+03  0.16439754563E+03  0.00000000000E+00 0. -1.
         23    2    1    2    0    0  0.00000000000E+00  0.00000000000E+00 -0.15154943802E+03  0.17724565323E+03  0.91917296670E+02 0.  0.
        -13    1    3    3    0    0  0.32943351236E+02 -0.25994674200E+01 -0.13736551901E+03  0.14128449113E+03  0.00000000000E+00 0.  1.
         13    1    3    3    0    0 -0.32943351236E+02  0.25994674200E+01 -0.14183919012E+02  0.35961162107E+02  0.00000000000E+00 0. -1.
<mgrwt>
<rscale>  0 0.91917297E+02</rscale>
<asrwt>0</asrwt>
<pdfrwt beam="2">  1        2 0.25291929E-01 0.91917297E+02</pdfrwt>
<pdfrwt beam="1">  1       -2 0.19766320E-02 0.91917297E+02</pdfrwt>
<totfact> 0.14115570E+05</totfact>
</mgrwt>
</event>
<event>
 5    1  0.1197825E+001  0.9008729E+02  0.7546771E-02  0.1302640E+00
          2   -1    0    0  501    0  0.00000000000E+00  0.00000000000E+00  0.44236683535E+03  0.44236683535E+03  0.00000000000E+00 0.  1.
         -2   -1    0    0    0  501 -0.00000000000E+00 -0.00000000000E+00 -0.45865322821E+01  0.45865322821E+01  0.00000000000E+00 0. -1.
         23    2    1    2    0    0  0.00000000000E+00  0.00000000000E+00  0.43778030307E+03  0.44695336763E+03  0.90087285915E+02 0.  0.
        -11    1    3    3    0    0  0.27231473084E+02 -0.35060083571E+02  0.18105131865E+03  0.18641443767E+03  0.00000000000E+00 0. -1.
         11    1    3    3    0    0 -0.27231473084E+02  0.35060083571E+02  0.25672898442E+03  0.26053892996E+03  0.00000000000E+00 0.  1.
<mgrwt>
<rscale>  0 0.90087286E+02</rscale>
<asrwt>0</asrwt>
<pdfrwt beam="1">  1        2 0.68056402E-01 0.90087286E+02</pdfrwt>
<pdfrwt beam="2">  1       -2 0.70562070E-03 0.90087286E+02</pdfrwt>
<totfact> 0.21350993E+05</totfact>
</mgrwt>
</event>
<event>
 5    1  0.1197825E+001  0.9760966E+02  0.7546771E-02  0.1285404E+00
         -1   -1    0    0    0  501 -0.00000000000E+00  0.00000000000E+00  0.10092219401E+02  0.10092219401E+02  0.00000000000E+00 0.  1.
          1   -1    0    0  501    0  0.00000000000E+00 -0.00000000000E+00 -0.23601463531E+03  0.23601463531E+03  0.00000000000E+00 0. -1.
         23    2    1    2    0    0  0.00000000000E+00  0.00000000000E+00 -0.22592241591E+03  0.24610685471E+03  0.97609661024E+02 0.  0.
        -13    1    3    3    0    0  0.16190154814E+02 -0.29611812750E+02 -0.24070902113E+02  0.41453454570E+02  0.00000000000E+00 0.  1.
         13    1    3    3    0    0 -0.16190154814E+02  0.29611812750E+02 -0.20185151380E+03  0.20465340014E+03  0.00000000000E+00 0. -1.
<mgrwt>
<rscale>  0 0.97609661E+02</rscale>
<asrwt>0</asrwt>
<pdfrwt beam="2">  1        1 0.36309946E-01 0.97609661E+02</pdfrwt>
<pdfrwt beam="1">  1       -1 0.15526490E-02 0.97609661E+02</pdfrwt>
<totfact> 0.10183010E+05</totfact>
</mgrwt>
</event>
<event>
 5    1  0.1197825E+001  0.8880259E+02  0.7546771E-02  0.1305778E+00
          4   -1    0    0  501    0  0.00000000000E+00  0.00000000000E+00  0.38960073059E+02  0.38960073059E+02  0.00000000000E+00 0.  1.
         -4   -1    0    0    0  501 -0.00000000000E+00 -0.00000000000E+00 -0.50602446987E+02  0.50602446987E+02  0.00000000000E+00 0. -1.
         23    2    1    2    0    0  0.00000000000E+00  0.00000000000E+00 -0.11642373927E+02  0.89562520046E+02  0.88802590764E+02 0.  0.
        -13    1    3    3    0    0  0.23289937038E+02 -0.34518460920E+02  0.97227006362E+01  0.42760685439E+02  0.00000000000E+00 0.  1.
         13    1    3    3    0    0 -0.23289937038E+02  0.34518460920E+02 -0.21365074564E+02  0.46801834607E+02  0.00000000000E+00 0. -1.
<mgrwt>
<rscale>  0 0.88802591E+02</rscale>
<asrwt>0</asrwt>
<pdfrwt beam="1">  1        4 0.59938574E-02 0.88802591E+02</pdfrwt>
<pdfrwt beam="2">  1       -4 0.77849918E-02 0.88802591E+02</pdfrwt>
<totfact> 0.29127864E+04</totfact>
</mgrwt>
</event>
<event>
 5    1  0.1197825E+001  0.9693005E+02  0.7546771E-02  0.1286887E+00
         -2   -1    0    0    0  501 -0.00000000000E+00  0.00000000000E+00  0.86827473001E+01  0.86827473001E+01  0.00000000000E+00 0.  1.
          2   -1    0    0  501    0  0.00000000000E+00 -0.00000000000E+00 -0.27052021918E+03  0.27052021918E+03  0.00000000000E+00 0. -1.
         23    2    1    2    0    0  0.00000000000E+00  0.00000000000E+00 -0.26183747188E+03  0.27920296648E+03  0.96930051124E+02 0.  0.
        -11    1    3    3    0    0  0.25483142833E+02 -0.39871399932E+02 -0.16109345782E+03  0.16789943792E+03  0.00000000000E+00 0.  1.
         11    1    3    3    0    0 -0.25483142833E+02  0.39871399932E+02 -0.10074401406E+03  0.11130352856E+03  0.00000000000E+00 0. -1.
<mgrwt>
<rscale>  0 0.96930051E+02</rscale>
<asrwt>0</asrwt>
<pdfrwt beam="2">  1        2 0.41618499E-01 0.96930051E+02</pdfrwt>
<pdfrwt beam="1">  1       -2 0.13358072E-02 0.96930051E+02</pdfrwt>
<totfact> 0.14667711E+05</totfact>
</mgrwt>
</event>
<event>
 5    1  0.1197825E+001  0.9173895E+02  0.7546771E-02  0.1298694E+00
         -1   -1    0    0    0  501 -0.00000000000E+00  0.00000000000E+00  0.47435266633E+01  0.47435266633E+01  0.00000000000E+00 0.  1.
          1   -1    0    0  501    0  0.00000000000E+00 -0.00000000000E+00 -0.44355367281E+03  0.44355367281E+03  0.00000000000E+00 0. -1.
         23    2    1    2    0    0  0.00000000000E+00  0.00000000000E+00 -0.43881014614E+03  0.44829719947E+03  0.91738948622E+02 0.  0.
        -11    1    3    3    0    0 -0.37361643619E+02  0.25948200641E+02 -0.19057495260E+03  0.19592859436E+03  0.00000000000E+00 0.  1.
         11    1    3    3    0    0  0.37361643619E+02 -0.25948200641E+02 -0.24823519354E+03  0.25236860511E+03  0.00000000000E+00 0. -1.
<mgrwt>
<rscale>  0 0.91738949E+02</rscale>
<asrwt>0</asrwt>
<pdfrwt beam="2">  1        1 0.68239012E-01 0.91738949E+02</pdfrwt>
<pdfrwt beam="1">  1       -1 0.72977349E-03 0.91738949E+02</pdfrwt>
<totfact> 0.13485350E+05</totfact>
</mgrwt>
</event>
<event>
 5    1  0.1197825E+001  0.9123772E+02  0.7546771E-02  0.1299882E+00
          2   -1    0    0  501    0  0.00000000000E+00  0.00000000000E+00  0.36784941991E+02  0.36784941991E+02  0.00000000000E+00 0. -1.
         -2   -1    0    0    0  501 -0.00000000000E+00 -0.00000000000E+00 -0.56574250512E+02  0.56574250512E+02  0.00000000000E+00 0.  1.
         23    2    1    2    0    0  0.00000000000E+00  0.00000000000E+00 -0.19789308520E+02  0.93359192503E+02  0.91237722972E+02 0.  0.
        -13    1    3    3    0    0 -0.10562148957E+02  0.31018227915E+02 -0.42372087370E+02  0.53563824002E+02  0.00000000000E+00 0.  1.
         13    1    3    3    0    0  0.10562148957E+02 -0.31018227915E+02  0.22582778850E+02  0.39795368501E+02  0.00000000000E+00 0. -1.
<mgrwt>
<rscale>  0 0.91237723E+02</rscale>
<asrwt>0</asrwt>
<pdfrwt beam="1">  1        2 0.56592219E-02 0.91237723E+02</pdfrwt>
<pdfrwt beam="2">  1       -2 0.87037308E-02 0.91237723E+02</pdfrwt>
<totfact> 0.93157427E+04</totfact>
</mgrwt>
</event>
<event>
 5    1  0.1197825E+001  0.9183506E+02  0.7546771E-02  0.1298468E+00
          2   -1    0    0  501    0  0.00000000000E+00  0.00000000000E+00  0.12276760523E+03  0.12276760523E+03  0.00000000000E+00 0. -1.
         -2   -1    0    0    0  501 -0.00000000000E+00 -0.00000000000E+00 -0.17174069918E+02  0.17174069918E+02  0.00000000000E+00 0.  1.
         23    2    1    2    0    0  0.00000000000E+00  0.00000000000E+00  0.10559353532E+03  0.13994167515E+03  0.91835057269E+02 0.  0.
        -13    1    3    3    0    0  0.81021668526E+01  0.42550887947E+02  0.76016979639E+02  0.87491738846E+02  0.00000000000E+00 0. -1.
         13    1    3    3    0    0 -0.81021668526E+01 -0.42550887947E+02  0.29576555678E+02  0.52449936307E+02  0.00000000000E+00 0.  1.
<mgrwt>
<rscale>  0 0.91835057E+02</rscale>
<asrwt>0</asrwt>
<pdfrwt beam="1">  1        2 0.18887323E-01 0.91835057E+02</pdfrwt>
<pdfrwt beam="2">  1       -2 0.26421647E-02 0.91835057E+02</pdfrwt>
<totfact> 0.12827061E+05</totfact>
</mgrwt>
</event>
<event>
 5    1  0.1197825E+001  0.9184920E+02  0.7546771E-02  0.1298434E+00
          1   -1    0    0  501    0  0.00000000000E+00  0.00000000000E+00  0.10437100024E+02  0.10437100024E+02  0.00000000000E+00 0. -1.
         -1   -1    0    0    0  501 -0.00000000000E+00 -0.00000000000E+00 -0.20207424482E+03  0.20207424482E+03  0.00000000000E+00 0.  1.
         23    2    1    2    0    0  0.00000000000E+00  0.00000000000E+00 -0.19163714480E+03  0.21251134484E+03  0.91849204798E+02 0.  0.
        -13    1    3    3    0    0 -0.35137835868E+02  0.37889435451E+01 -0.27965825557E+02  0.45067848870E+02  0.00000000000E+00 0.  1.
         13    1    3    3    0    0  0.35137835868E+02 -0.37889435451E+01 -0.16367131924E+03  0.16744349597E+03  0.00000000000E+00 0. -1.
<mgrwt>
<rscale>  0 0.91849205E+02</rscale>
<asrwt>0</asrwt>
<pdfrwt beam="1">  1        1 0.16057076E-02 0.91849205E+02</pdfrwt>
<pdfrwt beam="2">  1       -1 0.31088347E-01 0.91849205E+02</pdfrwt>
<totfact> 0.67905221E+04</totfact>
</mgrwt>
</event>
<event>
 5    1  0.1197825E+001  0.8777628E+02  0.7546771E-02  0.1308328E+00
         -2   -1    0    0    0  501 -0.00000000000E+00  0.00000000000E+00  0.67444180075E+01  0.67444180075E+01  0.00000000000E+00 0.  1.
          2   -1    0    0  501    0  0.00000000000E+00 -0.00000000000E+00 -0.28559449486E+03  0.28559449486E+03  0.00000000000E+00 0. -1.
         23    2    1    2    0    0  0.00000000000E+00  0.00000000000E+00 -0.27885007686E+03  0.29233891287E+03  0.87776275929E+02 0.  0.
        -13    1    3    3    0    0  0.33847027249E+02  0.19205996209E+02 -0.20700031573E+03  0.21062673680E+03  0.00000000000E+00 0. -1.
         13    1    3    3    0    0 -0.33847027249E+02 -0.19205996209E+02 -0.71849761128E+02  0.81712176070E+02  0.00000000000E+00 0.  1.
<mgrwt>
<rscale>  0 0.87776276E+02</rscale>
<asrwt>0</asrwt>
<pdfrwt beam="2">  1        2 0.43937614E-01 0.87776276E+02</pdfrwt>
<pdfrwt beam="1">  1       -2 0.10376028E-02 0.87776276E+02</pdfrwt>
<totfact> 0.19518826E+05</totfact>
</mgrwt>
</event>
<event>
 5    1  0.1197825E+001  0.8963267E+02  0.7546771E-02  0.1303744E+00
          2   -1    0    0  501    0  0.00000000000E+00  0.00000000000E+00  0.43988332488E+02  0.43988332488E+02  0.00000000000E+00 0.  1.
         -2   -1    0    0    0  501 -0.00000000000E+00 -0.00000000000E+00 -0.45659922660E+02  0.45659922660E+02  0.00000000000E+00 0. -1.
         23    2    1    2    0    0  0.00000000000E+00  0.00000000000E+00 -0.16715901717E+01  0.89648255148E+02  0.89632669475E+02 0.  0.
        -11    1    3    3    0    0  0.49513476040E+01  0.21961677209E+02  0.37922365720E+02  0.44101439100E+02  0.00000000000E+00 0.  1.
         11    1    3    3    0    0 -0.49513476040E+01 -0.21961677209E+02 -0.39593955892E+02  0.45546816047E+02  0.00000000000E+00 0. -1.
<mgrwt>
<rscale>  0 0.89632669E+02</rscale>
<asrwt>0</asrwt>
<pdfrwt beam="1">  1        2 0.67674358E-02 0.89632669E+02</pdfrwt>
<pdfrwt beam="2">  1       -2 0.70246035E-02 0.89632669E+02</pdfrwt>
<totfact> 0.10267576E+05</totfact>
</mgrwt>
</event>
<event>
 5    1  0.1197825E+001  0.9195533E+02  0.7546771E-02  0.1298185E+00
          2   -1    0    0  501    0  0.00000000000E+00  0.00000000000E+00  0.97111879160E+01  0.97111879160E+01  0.00000000000E+00 0. -1.
         -2   -1    0    0    0  501 -0.00000000000E+00 -0.00000000000E+00 -0.21768145601E+03  0.21768145601E+03  0.00000000000E+00 0.  1.
         23    2    1    2    0    0  0.00000000000E+00  0.00000000000E+00 -0.20797026809E+03  0.22739264393E+03  0.91955326657E+02 0.  0.
        -13    1    3    3    0    0  0.51393884430E+01 -0.33089907098E+02 -0.26076691165E+02  0.42442303042E+02  0.00000000000E+00 0. -1.
         13    1    3    3    0    0 -0.51393884430E+01  0.33089907098E+02 -0.18189357693E+03  0.18495034088E+03  0.00000000000E+00 0.  1.
<mgrwt>
<rscale>  0 0.91955327E+02</rscale>
<asrwt>0</asrwt>
<pdfrwt beam="1">  1        2 0.14940289E-02 0.91955327E+02</pdfrwt>
<pdfrwt beam="2">  1       -2 0.33489455E-01 0.91955327E+02</pdfrwt>
<totfact> 0.58722444E+04</totfact>
</mgrwt>
</event>
<event>
 5    1  0.1197825E+001  0.9023198E+02  0.7546771E-02  0.1302291E+00
         -2   -1    0    0    0  501 -0.00000000000E+00  0.00000000000E+00  0.38765801312E+03  0.38765801312E+03  0.00000000000E+00 0.  1.
          2   -1    0    0  501    0  0.00000000000E+00 -0.00000000000E+00 -0.52506398833E+01  0.52506398833E+01  0.00000000000E+00 0. -1.
         23    2    1    2    0    0  0.00000000000E+00  0.00000000000E+00  0.38240737323E+03  0.39290865300E+03  0.90231981575E+02 0.  0.
        -13    1    3    3    0    0 -0.11152527412E+02  0.42083762979E+02  0.24273161134E+03  0.24660506304E+03  0.00000000000E+00 0. -1.
         13    1    3    3    0    0  0.11152527412E+02 -0.42083762979E+02  0.13967576189E+03  0.14630358996E+03  0.00000000000E+00 0.  1.
<mgrwt>
<rscale>  0 0.90231982E+02</rscale>
<asrwt>0</asrwt>
<pdfrwt beam="2">  1        2 0.80779105E-03 0.90231982E+02</pdfrwt>
<pdfrwt beam="1">  1       -2 0.59639672E-01 0.90231982E+02</pdfrwt>
<totfact> 0.44786588E+04</totfact>
</mgrwt>
</event>
<event>
 5    1  0.1197825E+001  0.9306074E+02  0.7546771E-02  0.1295604E+00
          2   -1    0    0  501    0  0.00000000000E+00  0.00000000000E+00  0.23871405177E+03  0.23871405177E+03  0.00000000000E+00 0.  1.
         -2   -1    0    0    0  501 -0.00000000000E+00 -0.00000000000E+00 -0.90697445458E+01  0.90697445458E+01  0.00000000000E+00 0. -1.
         23    2    1    2    0    0  0.00000000000E+00  0.00000000000E+00  0.22964430722E+03  0.24778379631E+03  0.93060742937E+02 0.  0.
        -11    1    3    3    0    0 -0.27962416915E+02  0.34264665462E+02  0.15332521417E+03  0.15957626816E+03  0.00000000000E+00 0.  1.
         11    1    3    3    0    0  0.27962416915E+02 -0.34264665462E+02  0.76319093048E+02  0.88207528151E+02  0.00000000000E+00 0. -1.
<mgrwt>
<rscale>  0 0.93060743E+02</rscale>
<asrwt>0</asrwt>
<pdfrwt beam="1">  1        2 0.36725234E-01 0.93060743E+02</pdfrwt>
<pdfrwt beam="2">  1       -2 0.13953455E-02 0.93060743E+02</pdfrwt>
<totfact> 0.15619940E+05</totfact>
</mgrwt>
</event>
<event>
 5    1  0.1197825E+001  0.9100118E+02  0.7546771E-02  0.1300445E+00
          2   -1    0    0  501    0  0.00000000000E+00  0.00000000000E+00  0.18447812131E+02  0.18447812131E+02  0.00000000000E+00 0. -1.
         -2   -1    0    0    0  501 -0.00000000000E+00 -0.00000000000E+00 -0.11222490128E+03  0.11222490128E+03  0.00000000000E+00 0.  1.
         23    2    1    2    0    0  0.00000000000E+00  0.00000000000E+00 -0.93777089150E+02  0.13067271341E+03  0.91001184503E+02 0.  0.
        -11    1    3    3    0    0 -0.23212151624E+02  0.28078770049E+02 -0.86031751671E+02  0.93427424272E+02  0.00000000000E+00 0.  1.
         11    1    3    3    0    0  0.23212151624E+02 -0.28078770049E+02 -0.77453374786E+01  0.37245289140E+02  0.00000000000E+00 0. -1.
<mgrwt>
<rscale>  0 0.91001185E+02</rscale>
<asrwt>0</asrwt>
<pdfrwt beam="1">  1        2 0.28381249E-02 0.91001185E+02</pdfrwt>
<pdfrwt beam="2">  1       -2 0.17265370E-01 0.91001185E+02</pdfrwt>
<totfact> 0.77414985E+04</totfact>
</mgrwt>
</event>
<event>
 5    1  0.1197825E+001  0.9361837E+02  0.7546771E-02  0.1294319E+00
          3   -1    0    0  501    0  0.00000000000E+00  0.00000000000E+00  0.89971521955E+01  0.89971521955E+01  0.00000000000E+00 0. -1.
         -3   -1    0    0    0  501 -0.00000000000E+00 -0.00000000000E+00 -0.24353259160E+03  0.24353259160E+03  0.00000000000E+00 0.  1.
         23    2    1    2    0    0  0.00000000000E+00  0.00000000000E+00 -0.23453543941E+03  0.25252974380E+03  0.93618369804E+02 0.  0.
        -13    1    3    3    0    0  0.33663065521E+02  0.29797321128E+02 -0.15243981420E+03  0.15893073737E+03  0.00000000000E+00 0.  1.
         13    1    3    3    0    0 -0.33663065521E+02 -0.29797321128E+02 -0.82095625205E+02  0.93599006429E+02  0.00000000000E+00 0. -1.
<mgrwt>
<rscale>  0 0.93618370E+02</rscale>
<asrwt>0</asrwt>
<pdfrwt beam="1">  1        3 0.13841772E-02 0.93618370E+02</pdfrwt>
<pdfrwt beam="2">  1       -3 0.37466555E-01 0.93618370E+02</pdfrwt>
<totfact> 0.24199479E+04</totfact>
</mgrwt>
</event>
<event>
 5    1  0.1197825E+001  0.9130738E+02  0.7546771E-02  0.1299716E+00
          3   -1    0    0  501    0  0.00000000000E+00  0.00000000000E+00  0.15350544549E+03  0.15350544549E+03  0.00000000000E+00 0. -1.
         -3   -1    0    0    0  501 -0.00000000000E+00 -0.00000000000E+00 -0.13577754818E+02  0.13577754818E+02  0.00000000000E+00 0.  1.
         23    2    1    2    0    0  0.00000000000E+00  0.00000000000E+00  0.13992769068E+03  0.16708320031E+03  0.91307377622E+02 0.  0.
        -13    1    3    3    0    0  0.22094855077E+02  0.28400043398E+02  0.18546826517E+02  0.40481228486E+02  0.00000000000E+00 0.  1.
         13    1    3    3    0    0 -0.22094855077E+02 -0.28400043398E+02  0.12138086416E+03  0.12660197183E+03  0.00000000000E+00 0. -1.
<mgrwt>
<rscale>  0 0.91307378E+02</rscale>
<asrwt>0</asrwt>
<pdfrwt beam="1">  1        3 0.23616221E-01 0.91307378E+02</pdfrwt>
<pdfrwt beam="2">  1       -3 0.20888855E-02 0.91307378E+02</pdfrwt>
<totfact> 0.30176354E+04</totfact>
</mgrwt>
</event>
<event>
 5    1  0.1197825E+001  0.9168853E+02  0.7546771E-02  0.1298813E+00
          1   -1    0    0  501    0  0.00000000000E+00  0.00000000000E+00  0.12366488995E+02  0.12366488995E+02  0.00000000000E+00 0. -1.
         -1   -1    0    0    0  501 -0.00000000000E+00 -0.00000000000E+00 -0.16995096048E+03  0.16995096048E+03  0.00000000000E+00 0.  1.
         23    2    1    2    0    0  0.00000000000E+00  0.00000000000E+00 -0.15758447148E+03  0.18231744947E+03  0.91688531070E+02 0.  0.
        -11    1    3    3    0    0  0.11342513114E+02 -0.38462796495E+02 -0.12297226832E+03  0.12934534431E+03  0.00000000000E+00 0.  1.
         11    1    3    3    0    0 -0.11342513114E+02  0.38462796495E+02 -0.34612203161E+02  0.52972105165E+02  0.00000000000E+00 0. -1.
<mgrwt>
<rscale>  0 0.91688531E+02</rscale>
<asrwt>0</asrwt>
<pdfrwt beam="1">  1        1 0.19025368E-02 0.91688531E+02</pdfrwt>
<pdfrwt beam="2">  1       -1 0.26146301E-01 0.91688531E+02</pdfrwt>
<totfact> 0.71494669E+04</totfact>
</mgrwt>
</event>
<event>
 5    1  0.1197825E+001  0.8848295E+02  0.7546771E-02  0.1306568E+00
          1   -1    0    0  501    0  0.00000000000E+00  0.00000000000E+00  0.15415838508E+03  0.15415838508E+03  0.00000000000E+00 0. -1.
         -1   -1    0    0    0  501 -0.00000000000E+00 -0.00000000000E+00 -0.12696735192E+02  0.12696735192E+02  0.00000000000E+00 0.  1.
         23    2    1    2    0    0  0.00000000000E+00  0.00000000000E+00  0.14146164989E+03  0.16685512027E+03  0.88482951870E+02 0.  0.
        -13    1    3    3    0    0  0.13799024710E+02  0.40270751653E+02  0.48010951101E+02  0.64165395248E+02  0.00000000000E+00 0.  1.
         13    1    3    3    0    0 -0.13799024710E+02 -0.40270751653E+02  0.93450698784E+02  0.10268972502E+03  0.00000000000E+00 0. -1.
<mgrwt>
<rscale>  0 0.88482952E+02</rscale>
<asrwt>0</asrwt>
<pdfrwt beam="1">  1        1 0.23716673E-01 0.88482952E+02</pdfrwt>
<pdfrwt beam="2">  1       -1 0.19533440E-02 0.88482952E+02</pdfrwt>
<totfact> 0.12216600E+05</totfact>
</mgrwt>
</event>
<event>
 5    1  0.1197825E+001  0.9264354E+02  0.7546771E-02  0.1296573E+00
          2   -1    0    0  501    0  0.00000000000E+00  0.00000000000E+00  0.24141436900E+03  0.24141436900E+03  0.00000000000E+00 0. -1.
         -2   -1    0    0    0  501 -0.00000000000E+00 -0.00000000000E+00 -0.88880631782E+01  0.88880631782E+01  0.00000000000E+00 0.  1.
         23    2    1    2    0    0  0.00000000000E+00  0.00000000000E+00  0.23252630582E+03  0.25030243218E+03  0.92643535420E+02 0.  0.
        -11    1    3    3    0    0  0.40818083741E+02  0.17408019014E+02  0.80363922716E+02  0.91801498684E+02  0.00000000000E+00 0.  1.
         11    1    3    3    0    0 -0.40818083741E+02 -0.17408019014E+02  0.15216238310E+03  0.15850093349E+03  0.00000000000E+00 0. -1.
<mgrwt>
<rscale>  0 0.92643535E+02</rscale>
<asrwt>0</asrwt>
<pdfrwt beam="1">  1        2 0.37140667E-01 0.92643535E+02</pdfrwt>
<pdfrwt beam="2">  1       -2 0.13673945E-02 0.92643535E+02</pdfrwt>
<totfact> 0.15875711E+05</totfact>
</mgrwt>
</event>
<event>
 5    1  0.1197825E+001  0.8943581E+02  0.7546771E-02  0.1304224E+00
          2   -1    0    0  501    0  0.00000000000E+00  0.00000000000E+00  0.22545840200E+03  0.22545840200E+03  0.00000000000E+00 0. -1.
         -2   -1    0    0    0  501 -0.00000000000E+00 -0.00000000000E+00 -0.88694454953E+01  0.88694454953E+01  0.00000000000E+00 0.  1.
         23    2    1    2    0    0  0.00000000000E+00  0.00000000000E+00  0.21658895650E+03  0.23432784749E+03  0.89435809562E+02 0.  0.
        -11    1    3    3    0    0 -0.33492666909E+02  0.12597287114E+02  0.38027776830E+02  0.52216493467E+02  0.00000000000E+00 0.  1.
         11    1    3    3    0    0  0.33492666909E+02 -0.12597287114E+02  0.17856117967E+03  0.18211135403E+03  0.00000000000E+00 0. -1.
<mgrwt>
<rscale>  0 0.89435810E+02</rscale>
<asrwt>0</asrwt>
<pdfrwt beam="1">  1        2 0.34685904E-01 0.89435810E+02</pdfrwt>
<pdfrwt beam="2">  1       -2 0.13645302E-02 0.89435810E+02</pdfrwt>
<totfact> 0.17015367E+05</totfact>
</mgrwt>
</event>
<event>
 5    1  0.1197825E+001  0.8988648E+02  0.7546771E-02  0.1303127E+00
          1   -1    0    0  501    0  0.00000000000E+00  0.00000000000E+00  0.76114569892E+02  0.76114569892E+02  0.00000000000E+00 0. -1.
         -1   -1    0    0    0  501 -0.00000000000E+00 -0.00000000000E+00 -0.26537557797E+02  0.26537557797E+02  0.00000000000E+00 0.  1.
         23    2    1    2    0    0  0.00000000000E+00  0.00000000000E+00  0.49577012095E+02  0.10265212769E+03  0.89886479465E+02 0.  0.
        -11    1    3    3    0    0 -0.44477289510E+02 -0.91367227550E+00  0.32085888290E+02  0.54850417560E+02  0.00000000000E+00 0.  1.
         11    1    3    3    0    0  0.44477289510E+02  0.91367227550E+00  0.17491123806E+02  0.47801710128E+02  0.00000000000E+00 0. -1.
<mgrwt>
<rscale>  0 0.89886479E+02</rscale>
<asrwt>0</asrwt>
<pdfrwt beam="1">  1        1 0.11709934E-01 0.89886479E+02</pdfrwt>
<pdfrwt beam="2">  1       -1 0.40827012E-02 0.89886479E+02</pdfrwt>
<totfact> 0.10394717E+05</totfact>
</mgrwt>
</event>
<event>
 5    1  0.1197825E+001  0.9061648E+02  0.7546771E-02  0.1301366E+00
         -1   -1    0    0    0  501 -0.00000000000E+00  0.00000000000E+00  0.12639056544E+02  0.12639056544E+02  0.00000000000E+00 0.  1.
          1   -1    0    0  501    0  0.00000000000E+00 -0.00000000000E+00 -0.16242006832E+03  0.16242006832E+03  0.00000000000E+00 0. -1.
         23    2    1    2    0    0  0.00000000000E+00  0.00000000000E+00 -0.14978101178E+03  0.17505912486E+03  0.90616475927E+02 0.  0.
        -11    1    3    3    0    0 -0.44802480166E+02 -0.11973322310E+01 -0.62055482323E+02  0.76547885143E+02  0.00000000000E+00 0.  1.
         11    1    3    3    0    0  0.44802480166E+02  0.11973322310E+01 -0.87725529453E+02  0.98511239721E+02  0.00000000000E+00 0. -1.
<mgrwt>
<rscale>  0 0.90616476E+02</rscale>
<asrwt>0</asrwt>
<pdfrwt beam="2">  1        1 0.24987701E-01 0.90616476E+02</pdfrwt>
<pdfrwt beam="1">  1       -1 0.19444704E-02 0.90616476E+02</pdfrwt>
<totfact> 0.11570151E+05</totfact>
</mgrwt>
</event>
<event>
 4    1  0.1197825E+001  0.1875197E+03  0.7546771E-02  0.1160718E+00
         -2   -1    0    0    0  501 -0.00000000000E+00  0.00000000000E+00  0.50940480109E+02  0.50940480109E+02  0.00000000000E+00 0. -1.
          2   -1    0    0  501    0  0.00000000000E+00 -0.00000000000E+00 -0.17257210244E+03  0.17257210244E+03  0.00000000000E+00 0.  1.
        -11    1    1    2    0    0  0.22644532549E+02 -0.79971998147E+02 -0.90985643719E+01  0.83612673773E+02  0.00000000000E+00 0. -1.
         11    1    1    2    0    0 -0.22644532549E+02  0.79971998147E+02 -0.11253305796E+03  0.13989990877E+03  0.00000000000E+00 0.  1.
<mgrwt>
<rscale>  0 0.18751966E+03</rscale>
<asrwt>0</asrwt>
<pdfrwt beam="2">  1        2 0.26549554E-01 0.18751966E+03</pdfrwt>
<pdfrwt beam="1">  1       -2 0.78369969E-02 0.18751966E+03</pdfrwt>
<totfact> 0.18818122E+04</totfact>
</mgrwt>
</event>
<event>
 5    1  0.1197825E+001  0.9293976E+02  0.7546771E-02  0.1295885E+00
          4   -1    0    0  501    0  0.00000000000E+00  0.00000000000E+00  0.73452469080E+02  0.73452469080E+02  0.00000000000E+00 0. -1.
         -4   -1    0    0    0  501 -0.00000000000E+00 -0.00000000000E+00 -0.29399277788E+02  0.29399277788E+02  0.00000000000E+00 0.  1.
         23    2    1    2    0    0  0.00000000000E+00  0.00000000000E+00  0.44053191292E+02  0.10285174687E+03  0.92939755600E+02 0.  0.
        -13    1    3    3    0    0  0.30350599554E+02 -0.27120293612E+02  0.46840738772E+02  0.62054202336E+02  0.00000000000E+00 0. -1.
         13    1    3    3    0    0 -0.30350599554E+02  0.27120293612E+02 -0.27875474805E+01  0.40797544532E+02  0.00000000000E+00 0.  1.
<mgrwt>
<rscale>  0 0.92939756E+02</rscale>
<asrwt>0</asrwt>
<pdfrwt beam="1">  1        4 0.11300380E-01 0.92939756E+02</pdfrwt>
<pdfrwt beam="2">  1       -4 0.45229659E-02 0.92939756E+02</pdfrwt>
<totfact> 0.24949851E+04</totfact>
</mgrwt>
</event>
<event>
 5    1  0.1197825E+001  0.9027087E+02  0.7546771E-02  0.1302197E+00
         -1   -1    0    0    0  501 -0.00000000000E+00  0.00000000000E+00  0.96314316817E+02  0.96314316817E+02  0.00000000000E+00 0.  1.
          1   -1    0    0  501    0  0.00000000000E+00 -0.00000000000E+00 -0.21151656477E+02  0.21151656477E+02  0.00000000000E+00 0. -1.
         23    2    1    2    0    0  0.00000000000E+00  0.00000000000E+00  0.75162660341E+02  0.11746597329E+03  0.90270866687E+02 0.  0.
        -11    1    3    3    0    0  0.29392226442E+02 -0.31616674863E+02  0.54730858309E+02  0.69706412588E+02  0.00000000000E+00 0.  1.
         11    1    3    3    0    0 -0.29392226442E+02  0.31616674863E+02  0.20431802032E+02  0.47759560706E+02  0.00000000000E+00 0. -1.
<mgrwt>
<rscale>  0 0.90270867E+02</rscale>
<asrwt>0</asrwt>
<pdfrwt beam="2">  1        1 0.32541011E-02 0.90270867E+02</pdfrwt>
<pdfrwt beam="1">  1       -1 0.14817587E-01 0.90270867E+02</pdfrwt>
<totfact> 0.84066351E+04</totfact>
</mgrwt>
</event>
<event>
 5    1  0.1197825E+001  0.9082579E+02  0.7546771E-02  0.1300864E+00
          1   -1    0    0  501    0  0.00000000000E+00  0.00000000000E+00  0.63500051859E+01  0.63500051859E+01  0.00000000000E+00 0. -1.
         -1   -1    0    0    0  501 -0.00000000000E+00 -0.00000000000E+00 -0.32477627787E+03  0.32477627787E+03  0.00000000000E+00 0.  1.
         23    2    1    2    0    0  0.00000000000E+00  0.00000000000E+00 -0.31842627269E+03  0.33112628306E+03  0.90825790363E+02 0.  0.
        -13    1    3    3    0    0 -0.40267775449E+02  0.17436771559E+02 -0.20185357410E+03  0.20656814884E+03  0.00000000000E+00 0.  1.
         13    1    3    3    0    0  0.40267775449E+02 -0.17436771559E+02 -0.11657269859E+03  0.12455813421E+03  0.00000000000E+00 0. -1.
<mgrwt>
<rscale>  0 0.90825790E+02</rscale>
<asrwt>0</asrwt>
<pdfrwt beam="1">  1        1 0.97692398E-03 0.90825790E+02</pdfrwt>
<pdfrwt beam="2">  1       -1 0.49965576E-01 0.90825790E+02</pdfrwt>
<totfact> 0.59256264E+04</totfact>
</mgrwt>
</event>
<event>
 5    1  0.1197825E+001  0.9299808E+02  0.7546771E-02  0.1295750E+00
          1   -1    0    0  501    0  0.00000000000E+00  0.00000000000E+00  0.21934405083E+03  0.21934405083E+03  0.00000000000E+00 0. -1.
         -1   -1    0    0    0  501 -0.00000000000E+00 -0.00000000000E+00 -0.98573944824E+01  0.98573944824E+01  0.00000000000E+00 0.  1.
         23    2    1    2    0    0  0.00000000000E+00  0.00000000000E+00  0.20948665635E+03  0.22920144531E+03  0.92998082484E+02 0.  0.
        -11    1    3    3    0    0 -0.41253963285E+01 -0.43633642961E+02  0.66463106166E+02  0.79613178395E+02  0.00000000000E+00 0.  1.
         11    1    3    3    0    0  0.41253963285E+01  0.43633642961E+02  0.14302355018E+03  0.14958826692E+03  0.00000000000E+00 0. -1.
<mgrwt>
<rscale>  0 0.92998082E+02</rscale>
<asrwt>0</asrwt>
<pdfrwt beam="1">  1        1 0.33745235E-01 0.92998082E+02</pdfrwt>
<pdfrwt beam="2">  1       -1 0.15165224E-02 0.92998082E+02</pdfrwt>
<totfact> 0.11432430E+05</totfact>
</mgrwt>
</event>
<event>
 5    1  0.1197825E+001  0.9051534E+02  0.7546771E-02  0.1301609E+00
          1   -1    0    0  501    0  0.00000000000E+00  0.00000000000E+00  0.53312551413E+02  0.53312551413E+02  0.00000000000E+00 0. -1.
         -1   -1    0    0    0  501 -0.00000000000E+00 -0.00000000000E+00 -0.38419785240E+02  0.38419785240E+02  0.00000000000E+00 0.  1.
         23    2    1    2    0    0  0.00000000000E+00  0.00000000000E+00  0.14892766173E+02  0.91732336652E+02  0.90515341812E+02 0.  0.
        -11    1    3    3    0    0  0.23285724038E+02  0.23910252127E+01 -0.31808298735E+02  0.39493161610E+02  0.00000000000E+00 0.  1.
         11    1    3    3    0    0 -0.23285724038E+02 -0.23910252127E+01  0.46701064908E+02  0.52239175042E+02  0.00000000000E+00 0. -1.
<mgrwt>
<rscale>  0 0.90515342E+02</rscale>
<asrwt>0</asrwt>
<pdfrwt beam="1">  1        1 0.82019310E-02 0.90515342E+02</pdfrwt>
<pdfrwt beam="2">  1       -1 0.59107362E-02 0.90515342E+02</pdfrwt>
<totfact> 0.96609726E+04</totfact>
</mgrwt>
</event>
<event>
 5    1  0.1197825E+001  0.9141281E+02  0.7546771E-02  0.1299466E+00
          2   -1    0    0  501    0  0.00000000000E+00  0.00000000000E+00  0.23928887774E+02  0.23928887774E+02  0.00000000000E+00 0.  1.
         -2   -1    0    0    0  501 -0.00000000000E+00 -0.00000000000E+00 -0.87303487365E+02  0.87303487365E+02  0.00000000000E+00 0. -1.
         23    2    1    2    0    0  0.00000000000E+00  0.00000000000E+00 -0.63374599592E+02  0.11123237514E+03  0.91412807667E+02 0.  0.
        -13    1    3    3    0    0  0.30608248483E+02  0.27771092885E+02 -0.79367607503E+01  0.42084327801E+02  0.00000000000E+00 0.  1.
         13    1    3    3    0    0 -0.30608248483E+02 -0.27771092885E+02 -0.55437838842E+02  0.69148047338E+02  0.00000000000E+00 0. -1.
<mgrwt>
<rscale>  0 0.91412808E+02</rscale>
<asrwt>0</asrwt>
<pdfrwt beam="1">  1        2 0.36813674E-02 0.91412808E+02</pdfrwt>
<pdfrwt beam="2">  1       -2 0.13431306E-01 0.91412808E+02</pdfrwt>
<totfact> 0.82493720E+04</totfact>
</mgrwt>
</event>
<event>
 5    1  0.1197825E+001  0.8917152E+02  0.7546771E-02  0.1304870E+00
          1   -1    0    0  501    0  0.00000000000E+00  0.00000000000E+00  0.97997162076E+02  0.97997162076E+02  0.00000000000E+00 0. -1.
         -1   -1    0    0    0  501 -0.00000000000E+00 -0.00000000000E+00 -0.20285178534E+02  0.20285178534E+02  0.00000000000E+00 0.  1.
         23    2    1    2    0    0  0.00000000000E+00  0.00000000000E+00  0.77711983542E+02  0.11828234061E+03  0.89171518513E+02 0.  0.
        -11    1    3    3    0    0  0.27112025466E+02 -0.13472687701E+02 -0.45602550469E+01  0.30616517843E+02  0.00000000000E+00 0.  1.
         11    1    3    3    0    0 -0.27112025466E+02  0.13472687701E+02  0.82272238589E+02  0.87665822766E+02  0.00000000000E+00 0. -1.
<mgrwt>
<rscale>  0 0.89171519E+02</rscale>
<asrwt>0</asrwt>
<pdfrwt beam="1">  1        1 0.15076486E-01 0.89171519E+02</pdfrwt>
<pdfrwt beam="2">  1       -1 0.31207967E-02 0.89171519E+02</pdfrwt>
<totfact> 0.11059719E+05</totfact>
</mgrwt>
</event>
<event>
 5    1  0.1197825E+001  0.8917790E+02  0.7546771E-02  0.1304855E+00
          2   -1    0    0  501    0  0.00000000000E+00  0.00000000000E+00  0.51719413025E+01  0.51719413025E+01  0.00000000000E+00 0. -1.
         -2   -1    0    0    0  501 -0.00000000000E+00 -0.00000000000E+00 -0.38441552722E+03  0.38441552722E+03  0.00000000000E+00 0.  1.
         23    2    1    2    0    0  0.00000000000E+00  0.00000000000E+00 -0.37924358592E+03  0.38958746852E+03  0.89177901805E+02 0.  0.
        -11    1    3    3    0    0  0.28930909050E+02 -0.33840047960E+02 -0.17889570167E+03  0.18435242993E+03  0.00000000000E+00 0. -1.
         11    1    3    3    0    0 -0.28930909050E+02  0.33840047960E+02 -0.20034788425E+03  0.20523503859E+03  0.00000000000E+00 0.  1.
<mgrwt>
<rscale>  0 0.89177902E+02</rscale>
<asrwt>0</asrwt>
<pdfrwt beam="1">  1        2 0.79568319E-03 0.89177902E+02</pdfrwt>
<pdfrwt beam="2">  1       -2 0.59140857E-01 0.89177902E+02</pdfrwt>
<totfact> 0.46422033E+04</totfact>
</mgrwt>
</event>
<event>
 5    1  0.1197825E+001  0.9027631E+02  0.7546771E-02  0.1302184E+00
          1   -1    0    0  501    0  0.00000000000E+00  0.00000000000E+00  0.12370906231E+02  0.12370906231E+02  0.00000000000E+00 0. -1.
         -1   -1    0    0    0  501 -0.00000000000E+00 -0.00000000000E+00 -0.16469713772E+03  0.16469713772E+03  0.00000000000E+00 0.  1.
         23    2    1    2    0    0  0.00000000000E+00  0.00000000000E+00 -0.15232623149E+03  0.17706804395E+03  0.90276305801E+02 0.  0.
        -13    1    3    3    0    0 -0.27308875282E+02 -0.90067873706E+01 -0.14440623129E+03  0.14724149049E+03  0.00000000000E+00 0.  1.
         13    1    3    3    0    0  0.27308875282E+02  0.90067873706E+01 -0.79200001980E+01  0.29826553455E+02  0.00000000000E+00 0. -1.
<mgrwt>
<rscale>  0 0.90276306E+02</rscale>
<asrwt>0</asrwt>
<pdfrwt beam="1">  1        1 0.19032163E-02 0.90276306E+02</pdfrwt>
<pdfrwt beam="2">  1       -1 0.25338022E-01 0.90276306E+02</pdfrwt>
<totfact> 0.75028432E+04</totfact>
</mgrwt>
</event>
<event>
 5    1  0.1197825E+001  0.9355553E+02  0.7546771E-02  0.1294463E+00
          1   -1    0    0  501    0  0.00000000000E+00  0.00000000000E+00  0.16626396724E+03  0.16626396724E+03  0.00000000000E+00 0. -1.
         -1   -1    0    0    0  501 -0.00000000000E+00 -0.00000000000E+00 -0.13160754283E+02  0.13160754283E+02  0.00000000000E+00 0.  1.
         23    2    1    2    0    0  0.00000000000E+00  0.00000000000E+00  0.15310321296E+03  0.17942472152E+03  0.93555528301E+02 0.  0.
        -13    1    3    3    0    0 -0.12300366372E+02 -0.44424908683E+02  0.61294489962E+02  0.76693454898E+02  0.00000000000E+00 0.  1.
         13    1    3    3    0    0  0.12300366372E+02  0.44424908683E+02  0.91808722997E+02  0.10273126663E+03  0.00000000000E+00 0. -1.
<mgrwt>
<rscale>  0 0.93555528E+02</rscale>
<asrwt>0</asrwt>
<pdfrwt beam="1">  1        1 0.25579070E-01 0.93555528E+02</pdfrwt>
<pdfrwt beam="2">  1       -1 0.20247315E-02 0.93555528E+02</pdfrwt>
<totfact> 0.10662607E+05</totfact>
</mgrwt>
</event>
<event>
 5    1  0.1197825E+001  0.9097275E+02  0.7546771E-02  0.1300513E+00
         -1   -1    0    0    0  501 -0.00000000000E+00  0.00000000000E+00  0.27945126660E+02  0.27945126660E+02  0.00000000000E+00 0.  1.
          1   -1    0    0  501    0  0.00000000000E+00 -0.00000000000E+00 -0.74038317919E+02  0.74038317919E+02  0.00000000000E+00 0. -1.
         23    2    1    2    0    0  0.00000000000E+00  0.00000000000E+00 -0.46093191259E+02  0.10198344458E+03  0.90972746951E+02 0.  0.
        -13    1    3    3    0    0  0.34677813441E+01  0.41062851809E+02 -0.14590154671E+01  0.41234840029E+02  0.00000000000E+00 0.  1.
         13    1    3    3    0    0 -0.34677813441E+01 -0.41062851809E+02 -0.44634175792E+02  0.60748604550E+02  0.00000000000E+00 0. -1.
<mgrwt>
<rscale>  0 0.90972747E+02</rscale>
<asrwt>0</asrwt>
<pdfrwt beam="2">  1        1 0.11390510E-01 0.90972747E+02</pdfrwt>
<pdfrwt beam="1">  1       -1 0.42992503E-02 0.90972747E+02</pdfrwt>
<totfact> 0.10014472E+05</totfact>
</mgrwt>
</event>
<event>
 5    1  0.1197825E+001  0.9490952E+02  0.7546771E-02  0.1291380E+00
          1   -1    0    0  501    0  0.00000000000E+00  0.00000000000E+00  0.19076444507E+03  0.19076444507E+03  0.00000000000E+00 0. -1.
         -1   -1    0    0    0  501 -0.00000000000E+00 -0.00000000000E+00 -0.11804894890E+02  0.11804894890E+02  0.00000000000E+00 0.  1.
         23    2    1    2    0    0  0.00000000000E+00  0.00000000000E+00  0.17895955018E+03  0.20256933996E+03  0.94909519495E+02 0.  0.
        -13    1    3    3    0    0 -0.17247641387E+02  0.44098323169E+02  0.82794485895E+02  0.95378562237E+02  0.00000000000E+00 0.  1.
         13    1    3    3    0    0  0.17247641387E+02 -0.44098323169E+02  0.96165064283E+02  0.10719077772E+03  0.00000000000E+00 0. -1.
<mgrwt>
<rscale>  0 0.94909519E+02</rscale>
<asrwt>0</asrwt>
<pdfrwt beam="1">  1        1 0.29348374E-01 0.94909519E+02</pdfrwt>
<pdfrwt beam="2">  1       -1 0.18161378E-02 0.94909519E+02</pdfrwt>
<totfact> 0.10531537E+05</totfact>
</mgrwt>
</event>
<event>
 5    1  0.1197825E+001  0.8618452E+02  0.7546771E-02  0.1312364E+00
          3   -1    0    0  501    0  0.00000000000E+00  0.00000000000E+00  0.32167129911E+03  0.32167129911E+03  0.00000000000E+00 0. -1.
         -3   -1    0    0    0  501 -0.00000000000E+00 -0.00000000000E+00 -0.57727962434E+01  0.57727962434E+01  0.00000000000E+00 0.  1.
         23    2    1    2    0    0  0.00000000000E+00  0.00000000000E+00  0.31589850287E+03  0.32744409536E+03  0.86184519889E+02 0.  0.
        -11    1    3    3    0    0  0.42001992976E+02  0.64853183141E+01  0.13089217805E+03  0.13761899957E+03  0.00000000000E+00 0. -1.
         11    1    3    3    0    0 -0.42001992976E+02 -0.64853183141E+01  0.18500632482E+03  0.18982509579E+03  0.00000000000E+00 0.  1.
<mgrwt>
<rscale>  0 0.86184520E+02</rscale>
<asrwt>0</asrwt>
<pdfrwt beam="1">  1        3 0.49487878E-01 0.86184520E+02</pdfrwt>
<pdfrwt beam="2">  1       -3 0.88812275E-03 0.86184520E+02</pdfrwt>
<totfact> 0.26738309E+04</totfact>
</mgrwt>
</event>
<event>
 4    1  0.1197825E+001  0.1765139E+03  0.7546771E-02  0.1171220E+00
          1   -1    0    0  501    0  0.00000000000E+00  0.00000000000E+00  0.38922874272E+02  0.38922874272E+02  0.00000000000E+00 0. -1.
         -1   -1    0    0    0  501 -0.00000000000E+00 -0.00000000000E+00 -0.20012104679E+03  0.20012104679E+03  0.00000000000E+00 0.  1.
        -11    1    1    2    0    0  0.56154040376E+02 -0.13794934849E+00 -0.17280741884E+03  0.18170222698E+03  0.00000000000E+00 0.  1.
         11    1    1    2    0    0 -0.56154040376E+02  0.13794934849E+00  0.11609246324E+02  0.57341694087E+02  0.00000000000E+00 0. -1.
<mgrwt>
<rscale>  0 0.17651387E+03</rscale>
<asrwt>0</asrwt>
<pdfrwt beam="1">  1        1 0.59881344E-02 0.17651387E+03</pdfrwt>
<pdfrwt beam="2">  1       -1 0.30787854E-01 0.17651387E+03</pdfrwt>
<totfact> 0.12133137E+04</totfact>
</mgrwt>
</event>
<event>
 5    1  0.1197825E+001  0.7552057E+02  0.7546771E-02  0.1342267E+00
         -3   -1    0    0    0  501 -0.00000000000E+00  0.00000000000E+00  0.10002201909E+02  0.10002201909E+02  0.00000000000E+00 0.  1.
          3   -1    0    0  501    0  0.00000000000E+00 -0.00000000000E+00 -0.14255254126E+03  0.14255254126E+03  0.00000000000E+00 0. -1.
         23    2    1    2    0    0  0.00000000000E+00  0.00000000000E+00 -0.13255033935E+03  0.15255474317E+03  0.75520574687E+02 0.  0.
        -13    1    3    3    0    0 -0.36808499989E+02 -0.25765674781E+00 -0.49265114393E+02  0.61497833740E+02  0.00000000000E+00 0. -1.
         13    1    3    3    0    0  0.36808499989E+02  0.25765674781E+00 -0.83285224958E+02  0.91056909429E+02  0.00000000000E+00 0.  1.
<mgrwt>
<rscale>  0 0.75520575E+02</rscale>
<asrwt>0</asrwt>
<pdfrwt beam="2">  1        3 0.21931158E-01 0.75520575E+02</pdfrwt>
<pdfrwt beam="1">  1       -3 0.15388004E-02 0.75520575E+02</pdfrwt>
<totfact> 0.51565977E+04</totfact>
</mgrwt>
</event>
<event>
 5    1  0.1197825E+001  0.8475209E+02  0.7546771E-02  0.1316082E+00
          2   -1    0    0  501    0  0.00000000000E+00  0.00000000000E+00  0.13965128063E+03  0.13965128063E+03  0.00000000000E+00 0. -1.
         -2   -1    0    0    0  501 -0.00000000000E+00 -0.00000000000E+00 -0.12858665445E+02  0.12858665445E+02  0.00000000000E+00 0.  1.
         23    2    1    2    0    0  0.00000000000E+00  0.00000000000E+00  0.12679261519E+03  0.15250994608E+03  0.84752087800E+02 0.  0.
        -11    1    3    3    0    0 -0.27630822183E+02  0.27512880865E+02  0.33538542633E+02  0.51432040500E+02  0.00000000000E+00 0.  1.
         11    1    3    3    0    0  0.27630822183E+02 -0.27512880865E+02  0.93254072553E+02  0.10107790558E+03  0.00000000000E+00 0. -1.
<mgrwt>
<rscale>  0 0.84752088E+02</rscale>
<asrwt>0</asrwt>
<pdfrwt beam="1">  1        2 0.21484811E-01 0.84752088E+02</pdfrwt>
<pdfrwt beam="2">  1       -2 0.19782563E-02 0.84752088E+02</pdfrwt>
<totfact> 0.16631101E+05</totfact>
</mgrwt>
</event>
<event>
 5    1  0.1197825E+001  0.8966718E+02  0.7546771E-02  0.1303660E+00
          4   -1    0    0  501    0  0.00000000000E+00  0.00000000000E+00  0.21737133608E+03  0.21737133608E+03  0.00000000000E+00 0. -1.
         -4   -1    0    0    0  501 -0.00000000000E+00 -0.00000000000E+00 -0.92470830571E+01  0.92470830571E+01  0.00000000000E+00 0.  1.
         23    2    1    2    0    0  0.00000000000E+00  0.00000000000E+00  0.20812425303E+03  0.22661841914E+03  0.89667180149E+02 0.  0.
        -11    1    3    3    0    0 -0.91177056237E+01  0.36989312480E+02  0.44323596862E+02  0.58445898337E+02  0.00000000000E+00 0.  1.
         11    1    3    3    0    0  0.91177056237E+01 -0.36989312480E+02  0.16380065616E+03  0.16817252080E+03  0.00000000000E+00 0. -1.
<mgrwt>
<rscale>  0 0.89667180E+02</rscale>
<asrwt>0</asrwt>
<pdfrwt beam="1">  1        4 0.33441740E-01 0.89667180E+02</pdfrwt>
<pdfrwt beam="2">  1       -4 0.14226283E-02 0.89667180E+02</pdfrwt>
<totfact> 0.21247776E+04</totfact>
</mgrwt>
</event>
<event>
 5    1  0.1197825E+001  0.9085761E+02  0.7546771E-02  0.1300788E+00
         -2   -1    0    0    0  501 -0.00000000000E+00  0.00000000000E+00  0.14290917867E+02  0.14290917867E+02  0.00000000000E+00 0.  1.
          2   -1    0    0  501    0  0.00000000000E+00 -0.00000000000E+00 -0.14441174999E+03  0.14441174999E+03  0.00000000000E+00 0. -1.
         23    2    1    2    0    0  0.00000000000E+00  0.00000000000E+00 -0.13012083212E+03  0.15870266785E+03  0.90857612956E+02 0.  0.
        -11    1    3    3    0    0  0.40451366771E+02 -0.18214209391E+01 -0.29087098177E+02  0.49856693916E+02  0.00000000000E+00 0.  1.
         11    1    3    3    0    0 -0.40451366771E+02  0.18214209391E+01 -0.10103373394E+03  0.10884597394E+03  0.00000000000E+00 0. -1.
<mgrwt>
<rscale>  0 0.90857613E+02</rscale>
<asrwt>0</asrwt>
<pdfrwt beam="2">  1        2 0.22217193E-01 0.90857613E+02</pdfrwt>
<pdfrwt beam="1">  1       -2 0.21986027E-02 0.90857613E+02</pdfrwt>
<totfact> 0.13934513E+05</totfact>
</mgrwt>
</event>
<event>
 5    1  0.1197825E+001  0.9310945E+02  0.7546771E-02  0.1295492E+00
          1   -1    0    0  501    0  0.00000000000E+00  0.00000000000E+00  0.22422978578E+02  0.22422978578E+02  0.00000000000E+00 0.  1.
         -1   -1    0    0    0  501 -0.00000000000E+00 -0.00000000000E+00 -0.96657195114E+02  0.96657195114E+02  0.00000000000E+00 0. -1.
         23    2    1    2    0    0  0.00000000000E+00  0.00000000000E+00 -0.74234216537E+02  0.11908017369E+03  0.93109445609E+02 0.  0.
        -13    1    3    3    0    0  0.36240143972E+02  0.28292614175E+02 -0.46473589451E+02  0.65372888635E+02  0.00000000000E+00 0.  1.
         13    1    3    3    0    0 -0.36240143972E+02 -0.28292614175E+02 -0.27760627085E+02  0.53707285057E+02  0.00000000000E+00 0. -1.
<mgrwt>
<rscale>  0 0.93109446E+02</rscale>
<asrwt>0</asrwt>
<pdfrwt beam="1">  1        1 0.34496891E-02 0.93109446E+02</pdfrwt>
<pdfrwt beam="2">  1       -1 0.14870338E-01 0.93109446E+02</pdfrwt>
<totfact> 0.77575250E+04</totfact>
</mgrwt>
</event>
<event>
 5    1  0.1197825E+001  0.9345250E+02  0.7546771E-02  0.1294700E+00
         -3   -1    0    0    0  501 -0.00000000000E+00  0.00000000000E+00  0.12163124100E+02  0.12163124100E+02  0.00000000000E+00 0.  1.
          3   -1    0    0  501    0  0.00000000000E+00 -0.00000000000E+00 -0.17950505773E+03  0.17950505773E+03  0.00000000000E+00 0. -1.
         23    2    1    2    0    0  0.00000000000E+00  0.00000000000E+00 -0.16734193363E+03  0.19166818183E+03  0.93452496890E+02 0.  0.
        -11    1    3    3    0    0  0.67075566825E+01  0.44260837344E+02 -0.11113628821E+03  0.11981355348E+03  0.00000000000E+00 0. -1.
         11    1    3    3    0    0 -0.67075566825E+01 -0.44260837344E+02 -0.56205645420E+02  0.71854628356E+02  0.00000000000E+00 0.  1.
<mgrwt>
<rscale>  0 0.93452497E+02</rscale>
<asrwt>0</asrwt>
<pdfrwt beam="2">  1        3 0.27616163E-01 0.93452497E+02</pdfrwt>
<pdfrwt beam="1">  1       -3 0.18712498E-02 0.93452497E+02</pdfrwt>
<totfact> 0.27067204E+04</totfact>
</mgrwt>
</event>
<event>
 5    1  0.1197825E+001  0.9170540E+02  0.7546771E-02  0.1298774E+00
         -2   -1    0    0    0  501 -0.00000000000E+00  0.00000000000E+00  0.10270206219E+03  0.10270206219E+03  0.00000000000E+00 0.  1.
          2   -1    0    0  501    0  0.00000000000E+00 -0.00000000000E+00 -0.20471549125E+02  0.20471549125E+02  0.00000000000E+00 0. -1.
         23    2    1    2    0    0  0.00000000000E+00  0.00000000000E+00  0.82230513065E+02  0.12317361131E+03  0.91705404668E+02 0.  0.
        -13    1    3    3    0    0  0.25949980693E+02  0.34755774344E+02  0.61087276364E+02  0.74920095314E+02  0.00000000000E+00 0.  1.
         13    1    3    3    0    0 -0.25949980693E+02 -0.34755774344E+02  0.21143236701E+02  0.48253516000E+02  0.00000000000E+00 0. -1.
<mgrwt>
<rscale>  0 0.91705405E+02</rscale>
<asrwt>0</asrwt>
<pdfrwt beam="2">  1        2 0.31494692E-02 0.91705405E+02</pdfrwt>
<pdfrwt beam="1">  1       -2 0.15800317E-01 0.91705405E+02</pdfrwt>
<totfact> 0.78037271E+04</totfact>
</mgrwt>
</event>
<event>
 5    1  0.1197825E+001  0.9262512E+02  0.7546771E-02  0.1296616E+00
         -2   -1    0    0    0  501 -0.00000000000E+00  0.00000000000E+00  0.13149946462E+02  0.13149946462E+02  0.00000000000E+00 0.  1.
          2   -1    0    0  501    0  0.00000000000E+00 -0.00000000000E+00 -0.16310736915E+03  0.16310736915E+03  0.00000000000E+00 0. -1.
         23    2    1    2    0    0  0.00000000000E+00  0.00000000000E+00 -0.14995742268E+03  0.17625731561E+03  0.92625119094E+02 0.  0.
        -13    1    3    3    0    0 -0.13358820528E+01 -0.34587937526E+02 -0.13352973094E+03  0.13794310076E+03  0.00000000000E+00 0. -1.
         13    1    3    3    0    0  0.13358820528E+01  0.34587937526E+02 -0.16427691745E+02  0.38314214846E+02  0.00000000000E+00 0.  1.
<mgrwt>
<rscale>  0 0.92625119E+02</rscale>
<asrwt>0</asrwt>
<pdfrwt beam="2">  1        2 0.25093441E-01 0.92625119E+02</pdfrwt>
<pdfrwt beam="1">  1       -2 0.20230687E-02 0.92625119E+02</pdfrwt>
<totfact> 0.13786985E+05</totfact>
</mgrwt>
</event>
<event>
 5    1  0.1197825E+001  0.9140678E+02  0.7546771E-02  0.1299480E+00
         -2   -1    0    0    0  501 -0.00000000000E+00  0.00000000000E+00  0.60102119716E+02  0.60102119716E+02  0.00000000000E+00 0. -1.
          2   -1    0    0  501    0  0.00000000000E+00 -0.00000000000E+00 -0.34754178406E+02  0.34754178406E+02  0.00000000000E+00 0.  1.
         23    2    1    2    0    0  0.00000000000E+00  0.00000000000E+00  0.25347941310E+02  0.94856298122E+02  0.91406778549E+02 0.  0.
        -13    1    3    3    0    0  0.20360726176E+02  0.17867781577E+02 -0.25525266673E+02  0.37220371138E+02  0.00000000000E+00 0.  1.
         13    1    3    3    0    0 -0.20360726176E+02 -0.17867781577E+02  0.50873207983E+02  0.57635926985E+02  0.00000000000E+00 0. -1.
<mgrwt>
<rscale>  0 0.91406779E+02</rscale>
<asrwt>0</asrwt>
<pdfrwt beam="2">  1        2 0.53467967E-02 0.91406779E+02</pdfrwt>
<pdfrwt beam="1">  1       -2 0.92464799E-02 0.91406779E+02</pdfrwt>
<totfact> 0.91291104E+04</totfact>
</mgrwt>
</event>
<event>
 5    1  0.1197825E+001  0.9417745E+02  0.7546771E-02  0.1293039E+00
          1   -1    0    0  501    0  0.00000000000E+00  0.00000000000E+00  0.19861969516E+02  0.19861969516E+02  0.00000000000E+00 0. -1.
         -1   -1    0    0    0  501 -0.00000000000E+00 -0.00000000000E+00 -0.11163787067E+03  0.11163787067E+03  0.00000000000E+00 0.  1.
         23    2    1    2    0    0  0.00000000000E+00  0.00000000000E+00 -0.91775901155E+02  0.13149984019E+03  0.94177449193E+02 0.  0.
        -11    1    3    3    0    0  0.46886575503E+02  0.35177230510E+01 -0.42294645578E+02  0.63242093438E+02  0.00000000000E+00 0.  1.
         11    1    3    3    0    0 -0.46886575503E+02 -0.35177230510E+01 -0.49481255577E+02  0.68257746749E+02  0.00000000000E+00 0. -1.
<mgrwt>
<rscale>  0 0.94177449E+02</rscale>
<asrwt>0</asrwt>
<pdfrwt beam="1">  1        1 0.30556877E-02 0.94177449E+02</pdfrwt>
<pdfrwt beam="2">  1       -1 0.17175057E-01 0.94177449E+02</pdfrwt>
<totfact> 0.73277899E+04</totfact>
</mgrwt>
</event>
<event>
 5    1  0.1197825E+001  0.8861643E+02  0.7546771E-02  0.1306237E+00
         -1   -1    0    0    0  501 -0.00000000000E+00  0.00000000000E+00  0.34455561029E+02  0.34455561029E+02  0.00000000000E+00 0.  1.
          1   -1    0    0  501    0  0.00000000000E+00 -0.00000000000E+00 -0.56978255382E+02  0.56978255382E+02  0.00000000000E+00 0. -1.
         23    2    1    2    0    0  0.00000000000E+00  0.00000000000E+00 -0.22522694353E+02  0.91433816411E+02  0.88616426370E+02 0.  0.
        -13    1    3    3    0    0  0.94039341812E+01 -0.12219763033E+02  0.31597966297E+02  0.35159466162E+02  0.00000000000E+00 0.  1.
         13    1    3    3    0    0 -0.94039341812E+01  0.12219763033E+02 -0.54120660650E+02  0.56274350249E+02  0.00000000000E+00 0. -1.
<mgrwt>
<rscale>  0 0.88616426E+02</rscale>
<asrwt>0</asrwt>
<pdfrwt beam="2">  1        1 0.87658853E-02 0.88616426E+02</pdfrwt>
<pdfrwt beam="1">  1       -1 0.53008557E-02 0.88616426E+02</pdfrwt>
<totfact> 0.10347578E+05</totfact>
</mgrwt>
</event>
<event>
 5    1  0.1197825E+001  0.8705010E+02  0.7546771E-02  0.1310157E+00
          2   -1    0    0  501    0  0.00000000000E+00  0.00000000000E+00  0.43712734726E+02  0.43712734726E+02  0.00000000000E+00 0. -1.
         -2   -1    0    0    0  501 -0.00000000000E+00 -0.00000000000E+00 -0.43338170038E+02  0.43338170038E+02  0.00000000000E+00 0.  1.
         23    2    1    2    0    0  0.00000000000E+00  0.00000000000E+00  0.37456468816E+00  0.87050904763E+02  0.87050098917E+02 0.  0.
        -11    1    3    3    0    0  0.34256899503E+02  0.12042061399E+02 -0.23810513103E+02  0.43422194101E+02  0.00000000000E+00 0.  1.
         11    1    3    3    0    0 -0.34256899503E+02 -0.12042061399E+02  0.24185077791E+02  0.43628710662E+02  0.00000000000E+00 0. -1.
<mgrwt>
<rscale>  0 0.87050099E+02</rscale>
<asrwt>0</asrwt>
<pdfrwt beam="1">  1        2 0.67250361E-02 0.87050099E+02</pdfrwt>
<pdfrwt beam="2">  1       -2 0.66674107E-02 0.87050099E+02</pdfrwt>
<totfact> 0.11144126E+05</totfact>
</mgrwt>
</event>
<event>
 5    1  0.1197825E+001  0.9557642E+02  0.7546771E-02  0.1289883E+00
          1   -1    0    0  501    0  0.00000000000E+00  0.00000000000E+00  0.32946605394E+03  0.32946605394E+03  0.00000000000E+00 0. -1.
         -1   -1    0    0    0  501 -0.00000000000E+00 -0.00000000000E+00 -0.69315582983E+01  0.69315582983E+01  0.00000000000E+00 0.  1.
         23    2    1    2    0    0  0.00000000000E+00  0.00000000000E+00  0.32253449564E+03  0.33639761224E+03  0.95576423038E+02 0.  0.
        -13    1    3    3    0    0 -0.43212971892E+02 -0.60158554400E+01  0.22989287305E+03  0.23399633445E+03  0.00000000000E+00 0. -1.
         13    1    3    3    0    0  0.43212971892E+02  0.60158554400E+01  0.92641622592E+02  0.10240127779E+03  0.00000000000E+00 0.  1.
<mgrwt>
<rscale>  0 0.95576423E+02</rscale>
<asrwt>0</asrwt>
<pdfrwt beam="1">  1        1 0.50687073E-01 0.95576423E+02</pdfrwt>
<pdfrwt beam="2">  1       -1 0.10663938E-02 0.95576423E+02</pdfrwt>
<totfact> 0.11498248E+05</totfact>
</mgrwt>
</event>
<event>
 5    1  0.1197825E+001  0.8762685E+02  0.7546771E-02  0.1308703E+00
         -3   -1    0    0    0  501 -0.00000000000E+00  0.00000000000E+00  0.37808685189E+02  0.37808685189E+02  0.00000000000E+00 0.  1.
          3   -1    0    0  501    0  0.00000000000E+00 -0.00000000000E+00 -0.50771832872E+02  0.50771832872E+02  0.00000000000E+00 0. -1.
         23    2    1    2    0    0  0.00000000000E+00  0.00000000000E+00 -0.12963147683E+02  0.88580518062E+02  0.87626850806E+02 0.  0.
        -13    1    3    3    0    0 -0.14401473955E+02  0.19506319040E+02 -0.43371436174E+02  0.49688835872E+02  0.00000000000E+00 0. -1.
         13    1    3    3    0    0  0.14401473955E+02 -0.19506319040E+02  0.30408288491E+02  0.38891682189E+02  0.00000000000E+00 0.  1.
<mgrwt>
<rscale>  0 0.87626851E+02</rscale>
<asrwt>0</asrwt>
<pdfrwt beam="2">  1        3 0.78110512E-02 0.87626851E+02</pdfrwt>
<pdfrwt beam="1">  1       -3 0.58167208E-02 0.87626851E+02</pdfrwt>
<totfact> 0.39585781E+04</totfact>
</mgrwt>
</event>
<event>
 5    1  0.1197825E+001  0.8628711E+02  0.7546771E-02  0.1312101E+00
          2   -1    0    0  501    0  0.00000000000E+00  0.00000000000E+00  0.35313061648E+02  0.35313061648E+02  0.00000000000E+00 0. -1.
         -2   -1    0    0    0  501 -0.00000000000E+00 -0.00000000000E+00 -0.52710416036E+02  0.52710416036E+02  0.00000000000E+00 0.  1.
         23    2    1    2    0    0  0.00000000000E+00  0.00000000000E+00 -0.17397354388E+02  0.88023477684E+02  0.86287106127E+02 0.  0.
        -13    1    3    3    0    0  0.18557169023E+02 -0.35063581511E+02 -0.25996997858E+02  0.47430656417E+02  0.00000000000E+00 0.  1.
         13    1    3    3    0    0 -0.18557169023E+02  0.35063581511E+02  0.85996434700E+01  0.40592821266E+02  0.00000000000E+00 0. -1.
<mgrwt>
<rscale>  0 0.86287106E+02</rscale>
<asrwt>0</asrwt>
<pdfrwt beam="1">  1        2 0.54327788E-02 0.86287106E+02</pdfrwt>
<pdfrwt beam="2">  1       -2 0.81092947E-02 0.86287106E+02</pdfrwt>
<totfact> 0.10838792E+05</totfact>
</mgrwt>
</event>
<event>
 5    1  0.1197825E+001  0.9266945E+02  0.7546771E-02  0.1296513E+00
          3   -1    0    0  501    0  0.00000000000E+00  0.00000000000E+00  0.48186581777E+02  0.48186581777E+02  0.00000000000E+00 0. -1.
         -3   -1    0    0    0  501 -0.00000000000E+00 -0.00000000000E+00 -0.44554038918E+02  0.44554038918E+02  0.00000000000E+00 0.  1.
         23    2    1    2    0    0  0.00000000000E+00  0.00000000000E+00  0.36325428592E+01  0.92740620695E+02  0.92669452137E+02 0.  0.
        -11    1    3    3    0    0 -0.19919768065E+02 -0.98269048981E+01 -0.38878720633E+02  0.44776334572E+02  0.00000000000E+00 0.  1.
         11    1    3    3    0    0  0.19919768065E+02  0.98269048981E+01  0.42511263492E+02  0.47964286123E+02  0.00000000000E+00 0. -1.
<mgrwt>
<rscale>  0 0.92669452E+02</rscale>
<asrwt>0</asrwt>
<pdfrwt beam="1">  1        3 0.74133203E-02 0.92669452E+02</pdfrwt>
<pdfrwt beam="2">  1       -3 0.68544675E-02 0.92669452E+02</pdfrwt>
<totfact> 0.33690676E+04</totfact>
</mgrwt>
</event>
<event>
 5    1  0.1197825E+001  0.8998617E+02  0.7546771E-02  0.1302885E+00
         -1   -1    0    0    0  501 -0.00000000000E+00  0.00000000000E+00  0.41817116082E+02  0.41817116082E+02  0.00000000000E+00 0.  1.
          1   -1    0    0  501    0  0.00000000000E+00 -0.00000000000E+00 -0.48410262404E+02  0.48410262404E+02  0.00000000000E+00 0. -1.
         23    2    1    2    0    0  0.00000000000E+00  0.00000000000E+00 -0.65931463227E+01  0.90227378486E+02  0.89986166993E+02 0.  0.
        -11    1    3    3    0    0  0.21649657440E+01  0.24534024423E+02  0.34457673057E+02  0.42354889488E+02  0.00000000000E+00 0.  1.
         11    1    3    3    0    0 -0.21649657440E+01 -0.24534024423E+02 -0.41050819380E+02  0.47872488998E+02  0.00000000000E+00 0. -1.
<mgrwt>
<rscale>  0 0.89986167E+02</rscale>
<asrwt>0</asrwt>
<pdfrwt beam="2">  1        1 0.74477327E-02 0.89986167E+02</pdfrwt>
<pdfrwt beam="1">  1       -1 0.64334025E-02 0.89986167E+02</pdfrwt>
<totfact> 0.96801168E+04</totfact>
</mgrwt>
</event>
<event>
 5    1  0.1197825E+001  0.8972227E+02  0.7546771E-02  0.1303526E+00
         -1   -1    0    0    0  501 -0.00000000000E+00  0.00000000000E+00  0.13664652832E+02  0.13664652832E+02  0.00000000000E+00 0.  1.
          1   -1    0    0  501    0  0.00000000000E+00 -0.00000000000E+00 -0.14727936201E+03  0.14727936201E+03  0.00000000000E+00 0. -1.
         23    2    1    2    0    0  0.00000000000E+00  0.00000000000E+00 -0.13361470917E+03  0.16094401484E+03  0.89722268164E+02 0.  0.
        -11    1    3    3    0    0 -0.24621269826E+02 -0.29278327688E+02 -0.10884108327E+03  0.11536814468E+03  0.00000000000E+00 0. -1.
         11    1    3    3    0    0  0.24621269826E+02  0.29278327688E+02 -0.24773625906E+02  0.45575870157E+02  0.00000000000E+00 0.  1.
<mgrwt>
<rscale>  0 0.89722268E+02</rscale>
<asrwt>0</asrwt>
<pdfrwt beam="2">  1        1 0.22658363E-01 0.89722268E+02</pdfrwt>
<pdfrwt beam="1">  1       -1 0.21022543E-02 0.89722268E+02</pdfrwt>
<totfact> 0.11670586E+05</totfact>
</mgrwt>
</event>
<event>
 5    1  0.1197825E+001  0.9158364E+02  0.7546771E-02  0.1299061E+00
          2   -1    0    0  501    0  0.00000000000E+00  0.00000000000E+00  0.14185705279E+03  0.14185705279E+03  0.00000000000E+00 0. -1.
         -2   -1    0    0    0  501 -0.00000000000E+00 -0.00000000000E+00 -0.14781716559E+02  0.14781716559E+02  0.00000000000E+00 0.  1.
         23    2    1    2    0    0  0.00000000000E+00  0.00000000000E+00  0.12707533623E+03  0.15663876935E+03  0.91583639285E+02 0.  0.
        -11    1    3    3    0    0 -0.25796334539E+01  0.34202167933E+02  0.11647989403E+02  0.36223175692E+02  0.00000000000E+00 0. -1.
         11    1    3    3    0    0  0.25796334539E+01 -0.34202167933E+02  0.11542734682E+03  0.12041559365E+03  0.00000000000E+00 0.  1.
<mgrwt>
<rscale>  0 0.91583639E+02</rscale>
<asrwt>0</asrwt>
<pdfrwt beam="1">  1        2 0.21824161E-01 0.91583639E+02</pdfrwt>
<pdfrwt beam="2">  1       -2 0.22741103E-02 0.91583639E+02</pdfrwt>
<totfact> 0.13554526E+05</totfact>
</mgrwt>
</event>
<event>
 5    1  0.1197825E+001  0.9299885E+02  0.7546771E-02  0.1295748E+00
         -1   -1    0    0    0  501 -0.00000000000E+00  0.00000000000E+00  0.18487842153E+02  0.18487842153E+02  0.00000000000E+00 0.  1.
          1   -1    0    0  501    0  0.00000000000E+00 -0.00000000000E+00 -0.11695233700E+03  0.11695233700E+03  0.00000000000E+00 0. -1.
         23    2    1    2    0    0  0.00000000000E+00  0.00000000000E+00 -0.98464494851E+02  0.13544017916E+03  0.92998846143E+02 0.  0.
        -11    1    3    3    0    0 -0.21362761446E+02 -0.14446424193E+02  0.71184969708E+01  0.26753312836E+02  0.00000000000E+00 0.  1.
         11    1    3    3    0    0  0.21362761446E+02  0.14446424193E+02 -0.10558299182E+03  0.10868686632E+03  0.00000000000E+00 0. -1.
<mgrwt>
<rscale>  0 0.92998846E+02</rscale>
<asrwt>0</asrwt>
<pdfrwt beam="2">  1        1 0.17992667E-01 0.92998846E+02</pdfrwt>
<pdfrwt beam="1">  1       -1 0.28442834E-02 0.92998846E+02</pdfrwt>
<totfact> 0.10164059E+05</totfact>
</mgrwt>
</event>
<event>
 5    1  0.1197825E+001  0.9167920E+02  0.7546771E-02  0.1298835E+00
          3   -1    0    0  501    0  0.00000000000E+00  0.00000000000E+00  0.50109689764E+02  0.50109689764E+02  0.00000000000E+00 0. -1.
         -3   -1    0    0    0  501 -0.00000000000E+00 -0.00000000000E+00 -0.41933385024E+02  0.41933385024E+02  0.00000000000E+00 0.  1.
         23    2    1    2    0    0  0.00000000000E+00  0.00000000000E+00  0.81763047403E+01  0.92043074787E+02  0.91679199697E+02 0.  0.
        -13    1    3    3    0    0 -0.12289183536E+02  0.61165495822E+00  0.48420753982E+02  0.49959659426E+02  0.00000000000E+00 0. -1.
         13    1    3    3    0    0  0.12289183536E+02 -0.61165495822E+00 -0.40244449241E+02  0.42083415362E+02  0.00000000000E+00 0.  1.
<mgrwt>
<rscale>  0 0.91679200E+02</rscale>
<asrwt>0</asrwt>
<pdfrwt beam="1">  1        3 0.77091830E-02 0.91679200E+02</pdfrwt>
<pdfrwt beam="2">  1       -3 0.64512900E-02 0.91679200E+02</pdfrwt>
<totfact> 0.34747014E+04</totfact>
</mgrwt>
</event>
<event>
 5    1  0.1197825E+001  0.9236149E+02  0.7546771E-02  0.1297232E+00
          1   -1    0    0  501    0  0.00000000000E+00  0.00000000000E+00  0.18144295634E+03  0.18144295634E+03  0.00000000000E+00 0. -1.
         -1   -1    0    0    0  501 -0.00000000000E+00 -0.00000000000E+00 -0.11753892400E+02  0.11753892400E+02  0.00000000000E+00 0.  1.
         23    2    1    2    0    0  0.00000000000E+00  0.00000000000E+00  0.16968906394E+03  0.19319684874E+03  0.92361485167E+02 0.  0.
        -11    1    3    3    0    0 -0.16763442610E+02  0.34924845962E+02  0.13742620226E+03  0.14278206800E+03  0.00000000000E+00 0. -1.
         11    1    3    3    0    0  0.16763442610E+02 -0.34924845962E+02  0.32262861677E+02  0.50414780741E+02  0.00000000000E+00 0.  1.
<mgrwt>
<rscale>  0 0.92361485E+02</rscale>
<asrwt>0</asrwt>
<pdfrwt beam="1">  1        1 0.27914299E-01 0.92361485E+02</pdfrwt>
<pdfrwt beam="2">  1       -1 0.18082913E-02 0.92361485E+02</pdfrwt>
<totfact> 0.11223640E+05</totfact>
</mgrwt>
</event>
<event>
 5    1  0.1197825E+001  0.9255428E+02  0.7546771E-02  0.1296781E+00
         -1   -1    0    0    0  501 -0.00000000000E+00  0.00000000000E+00  0.99290496810E+02  0.99290496810E+02  0.00000000000E+00 0.  1.
          1   -1    0    0  501    0  0.00000000000E+00 -0.00000000000E+00 -0.21568767300E+02  0.21568767300E+02  0.00000000000E+00 0. -1.
         23    2    1    2    0    0  0.00000000000E+00  0.00000000000E+00  0.77721729511E+02  0.12085926411E+03  0.92554278578E+02 0.  0.
        -11    1    3    3    0    0 -0.27802588119E+02  0.40816214722E-01  0.87168949239E+02  0.91495416735E+02  0.00000000000E+00 0.  1.
         11    1    3    3    0    0  0.27802588119E+02 -0.40816214722E-01 -0.94472197278E+01  0.29363847375E+02  0.00000000000E+00 0. -1.
<mgrwt>
<rscale>  0 0.92554279E+02</rscale>
<asrwt>0</asrwt>
<pdfrwt beam="2">  1        1 0.33182719E-02 0.92554279E+02</pdfrwt>
<pdfrwt beam="1">  1       -1 0.15275461E-01 0.92554279E+02</pdfrwt>
<totfact> 0.78388865E+04</totfact>
</mgrwt>
</event>
<event>
 5    1  0.1197825E+001  0.9185544E+02  0.7546771E-02  0.1298420E+00
         -2   -1    0    0    0  501 -0.00000000000E+00  0.00000000000E+00  0.10154073637E+02  0.10154073637E+02  0.00000000000E+00 0.  1.
          2   -1    0    0  501    0  0.00000000000E+00 -0.00000000000E+00 -0.20773488871E+03  0.20773488871E+03  0.00000000000E+00 0. -1.
         23    2    1    2    0    0  0.00000000000E+00  0.00000000000E+00 -0.19758081508E+03  0.21788896235E+03  0.91855437660E+02 0.  0.
        -13    1    3    3    0    0 -0.24133050100E+00 -0.42862372454E+02 -0.13792005346E+03  0.14442708320E+03  0.00000000000E+00 0.  1.
         13    1    3    3    0    0  0.24133050100E+00  0.42862372454E+02 -0.59660761611E+02  0.73461879154E+02  0.00000000000E+00 0. -1.
<mgrwt>
<rscale>  0 0.91855438E+02</rscale>
<asrwt>0</asrwt>
<pdfrwt beam="2">  1        2 0.31959213E-01 0.91855438E+02</pdfrwt>
<pdfrwt beam="1">  1       -2 0.15621652E-02 0.91855438E+02</pdfrwt>
<totfact> 0.15372207E+05</totfact>
</mgrwt>
</event>
<event>
 5    1  0.1197825E+001  0.9536452E+02  0.7546771E-02  0.1290357E+00
         -2   -1    0    0    0  501 -0.00000000000E+00  0.00000000000E+00  0.12392393091E+02  0.12392393091E+02  0.00000000000E+00 0.  1.
          2   -1    0    0  501    0  0.00000000000E+00 -0.00000000000E+00 -0.18346721579E+03  0.18346721579E+03  0.00000000000E+00 0. -1.
         23    2    1    2    0    0  0.00000000000E+00  0.00000000000E+00 -0.17107482270E+03  0.19585960888E+03  0.95364518714E+02 0.  0.
        -11    1    3    3    0    0 -0.12650966785E+02  0.24524423220E+02 -0.56738211026E+01  0.28172442933E+02  0.00000000000E+00 0.  1.
         11    1    3    3    0    0  0.12650966785E+02 -0.24524423220E+02 -0.16540100159E+03  0.16768716595E+03  0.00000000000E+00 0. -1.
<mgrwt>
<rscale>  0 0.95364519E+02</rscale>
<asrwt>0</asrwt>
<pdfrwt beam="2">  1        2 0.28225726E-01 0.95364519E+02</pdfrwt>
<pdfrwt beam="1">  1       -2 0.19065220E-02 0.95364519E+02</pdfrwt>
<totfact> 0.13279188E+05</totfact>
</mgrwt>
</event>
<event>
 5    1  0.1197825E+001  0.9313567E+02  0.7546771E-02  0.1295431E+00
         -1   -1    0    0    0  501 -0.00000000000E+00  0.00000000000E+00  0.22282426699E+02  0.22282426699E+02  0.00000000000E+00 0.  1.
          1   -1    0    0  501    0  0.00000000000E+00 -0.00000000000E+00 -0.97321683985E+02  0.97321683985E+02  0.00000000000E+00 0. -1.
         23    2    1    2    0    0  0.00000000000E+00  0.00000000000E+00 -0.75039257286E+02  0.11960411068E+03  0.93135670710E+02 0.  0.
        -13    1    3    3    0    0 -0.15564561617E+02 -0.38270427987E+02 -0.99264612222E+01  0.42490185562E+02  0.00000000000E+00 0.  1.
         13    1    3    3    0    0  0.15564561617E+02  0.38270427987E+02 -0.65112796064E+02  0.77113925123E+02  0.00000000000E+00 0. -1.
<mgrwt>
<rscale>  0 0.93135671E+02</rscale>
<asrwt>0</asrwt>
<pdfrwt beam="2">  1        1 0.14972567E-01 0.93135671E+02</pdfrwt>
<pdfrwt beam="1">  1       -1 0.34280656E-02 0.93135671E+02</pdfrwt>
<totfact> 0.98111209E+04</totfact>
</mgrwt>
</event>
<event>
 5    1  0.1197825E+001  0.9075591E+02  0.7546771E-02  0.1301031E+00
          2   -1    0    0  501    0  0.00000000000E+00  0.00000000000E+00  0.32263854048E+03  0.32263854048E+03  0.00000000000E+00 0. -1.
         -2   -1    0    0    0  501 -0.00000000000E+00 -0.00000000000E+00 -0.63822473347E+01  0.63822473347E+01  0.00000000000E+00 0.  1.
         23    2    1    2    0    0  0.00000000000E+00  0.00000000000E+00  0.31625629314E+03  0.32902078781E+03  0.90755913637E+02 0.  0.
        -11    1    3    3    0    0  0.20539327560E+02 -0.40424314200E+02  0.16458268233E+03  0.17071452334E+03  0.00000000000E+00 0.  1.
         11    1    3    3    0    0 -0.20539327560E+02  0.40424314200E+02  0.15167361081E+03  0.15830626448E+03  0.00000000000E+00 0. -1.
<mgrwt>
<rscale>  0 0.90755914E+02</rscale>
<asrwt>0</asrwt>
<pdfrwt beam="1">  1        2 0.49636686E-01 0.90755914E+02</pdfrwt>
<pdfrwt beam="2">  1       -2 0.98188446E-03 0.90755914E+02</pdfrwt>
<totfact> 0.18686938E+05</totfact>
</mgrwt>
</event>
<event>
 5    1  0.1197825E+001  0.9370337E+02  0.7546771E-02  0.1294123E+00
         -2   -1    0    0    0  501 -0.00000000000E+00  0.00000000000E+00  0.12781422429E+02  0.12781422429E+02  0.00000000000E+00 0. -1.
          2   -1    0    0  501    0  0.00000000000E+00 -0.00000000000E+00 -0.17173992239E+03  0.17173992239E+03  0.00000000000E+00 0.  1.
         23    2    1    2    0    0  0.00000000000E+00  0.00000000000E+00 -0.15895849996E+03  0.18452134482E+03  0.93703372318E+02 0.  0.
        -13    1    3    3    0    0 -0.48558842235E+01 -0.35358010949E+02 -0.13925083069E+03  0.14375173876E+03  0.00000000000E+00 0.  1.
         13    1    3    3    0    0  0.48558842235E+01  0.35358010949E+02 -0.19707669275E+02  0.40769606058E+02  0.00000000000E+00 0. -1.
<mgrwt>
<rscale>  0 0.93703372E+02</rscale>
<asrwt>0</asrwt>
<pdfrwt beam="2">  1        2 0.26421522E-01 0.93703372E+02</pdfrwt>
<pdfrwt beam="1">  1       -2 0.19663730E-02 0.93703372E+02</pdfrwt>
<totfact> 0.13604064E+05</totfact>
</mgrwt>
</event>
<event>
 5    1  0.1197825E+001  0.9206948E+02  0.7546771E-02  0.1297916E+00
          3   -1    0    0  501    0  0.00000000000E+00  0.00000000000E+00  0.18638785440E+03  0.18638785440E+03  0.00000000000E+00 0. -1.
         -3   -1    0    0    0  501 -0.00000000000E+00 -0.00000000000E+00 -0.11369825029E+02  0.11369825029E+02  0.00000000000E+00 0.  1.
         23    2    1    2    0    0  0.00000000000E+00  0.00000000000E+00  0.17501802938E+03  0.19775767943E+03  0.92069480112E+02 0.  0.
        -13    1    3    3    0    0  0.38173206897E+02  0.66985589037E+01  0.14086793187E+03  0.14610215140E+03  0.00000000000E+00 0. -1.
         13    1    3    3    0    0 -0.38173206897E+02 -0.66985589037E+01  0.34150097511E+02  0.51655528032E+02  0.00000000000E+00 0.  1.
<mgrwt>
<rscale>  0 0.92069480E+02</rscale>
<asrwt>0</asrwt>
<pdfrwt beam="1">  1        3 0.28675052E-01 0.92069480E+02</pdfrwt>
<pdfrwt beam="2">  1       -3 0.17492040E-02 0.92069480E+02</pdfrwt>
<totfact> 0.27870956E+04</totfact>
</mgrwt>
</event>
<event>
 5    1  0.1197825E+001  0.8499860E+02  0.7546771E-02  0.1315436E+00
          3   -1    0    0  501    0  0.00000000000E+00  0.00000000000E+00  0.98390240384E+01  0.98390240384E+01  0.00000000000E+00 0. -1.
         -3   -1    0    0    0  501 -0.00000000000E+00 -0.00000000000E+00 -0.18357416873E+03  0.18357416873E+03  0.00000000000E+00 0.  1.
         23    2    1    2    0    0  0.00000000000E+00  0.00000000000E+00 -0.17373514470E+03  0.19341319277E+03  0.84998603730E+02 0.  0.
        -13    1    3    3    0    0 -0.21588606775E+02 -0.19883423925E+02 -0.15680954037E+03  0.15953259993E+03  0.00000000000E+00 0.  1.
         13    1    3    3    0    0  0.21588606775E+02  0.19883423925E+02 -0.16925604323E+02  0.33880592839E+02  0.00000000000E+00 0. -1.
<mgrwt>
<rscale>  0 0.84998604E+02</rscale>
<asrwt>0</asrwt>
<pdfrwt beam="1">  1        3 0.15136962E-02 0.84998604E+02</pdfrwt>
<pdfrwt beam="2">  1       -3 0.28242176E-01 0.84998604E+02</pdfrwt>
<totfact> 0.34820188E+04</totfact>
</mgrwt>
</event>
<event>
 5    1  0.1197825E+001  0.8160601E+02  0.7546771E-02  0.1324555E+00
          3   -1    0    0  501    0  0.00000000000E+00  0.00000000000E+00  0.26534237331E+03  0.26534237331E+03  0.00000000000E+00 0. -1.
         -3   -1    0    0    0  501 -0.00000000000E+00 -0.00000000000E+00 -0.62744787405E+01  0.62744787405E+01  0.00000000000E+00 0.  1.
         23    2    1    2    0    0  0.00000000000E+00  0.00000000000E+00  0.25906789457E+03  0.27161685205E+03  0.81606006649E+02 0.  0.
        -11    1    3    3    0    0 -0.16872386998E+02  0.36941703446E+02  0.11642236724E+03  0.12330261348E+03  0.00000000000E+00 0. -1.
         11    1    3    3    0    0  0.16872386998E+02 -0.36941703446E+02  0.14264552733E+03  0.14831423857E+03  0.00000000000E+00 0.  1.
<mgrwt>
<rscale>  0 0.81606007E+02</rscale>
<asrwt>0</asrwt>
<pdfrwt beam="1">  1        3 0.40821895E-01 0.81606007E+02</pdfrwt>
<pdfrwt beam="2">  1       -3 0.96530463E-03 0.81606007E+02</pdfrwt>
<totfact> 0.33837350E+04</totfact>
</mgrwt>
</event>
<event>
 5    1  0.1197825E+001  0.9138042E+02  0.7546771E-02  0.1299543E+00
          1   -1    0    0  501    0  0.00000000000E+00  0.00000000000E+00  0.16785876921E+03  0.16785876921E+03  0.00000000000E+00 0. -1.
         -1   -1    0    0    0  501 -0.00000000000E+00 -0.00000000000E+00 -0.12436616343E+02  0.12436616343E+02  0.00000000000E+00 0.  1.
         23    2    1    2    0    0  0.00000000000E+00  0.00000000000E+00  0.15542215287E+03  0.18029538555E+03  0.91380416116E+02 0.  0.
        -13    1    3    3    0    0  0.16851176724E+02  0.42467914639E+02  0.78363014341E+02  0.90709690482E+02  0.00000000000E+00 0.  1.
         13    1    3    3    0    0 -0.16851176724E+02 -0.42467914639E+02  0.77059138524E+02  0.89585695068E+02  0.00000000000E+00 0. -1.
<mgrwt>
<rscale>  0 0.91380416E+02</rscale>
<asrwt>0</asrwt>
<pdfrwt beam="1">  1        1 0.25824425E-01 0.91380416E+02</pdfrwt>
<pdfrwt beam="2">  1       -1 0.19133257E-02 0.91380416E+02</pdfrwt>
<totfact> 0.11381642E+05</totfact>
</mgrwt>
</event>
<event>
 5    1  0.1197825E+001  0.9089934E+02  0.7546771E-02  0.1300688E+00
          1   -1    0    0  501    0  0.00000000000E+00  0.00000000000E+00  0.74545064174E+01  0.74545064174E+01  0.00000000000E+00 0. -1.
         -1   -1    0    0    0  501 -0.00000000000E+00 -0.00000000000E+00 -0.27710386000E+03  0.27710386000E+03  0.00000000000E+00 0.  1.
         23    2    1    2    0    0  0.00000000000E+00  0.00000000000E+00 -0.26964935358E+03  0.28455836642E+03  0.90899339990E+02 0.  0.
        -13    1    3    3    0    0  0.33869350274E+02  0.24887896475E+02 -0.18896766595E+03  0.19358543089E+03  0.00000000000E+00 0.  1.
         13    1    3    3    0    0 -0.33869350274E+02 -0.24887896475E+02 -0.80681687634E+02  0.90972935527E+02  0.00000000000E+00 0. -1.
<mgrwt>
<rscale>  0 0.90899340E+02</rscale>
<asrwt>0</asrwt>
<pdfrwt beam="1">  1        1 0.11468472E-02 0.90899340E+02</pdfrwt>
<pdfrwt beam="2">  1       -1 0.42631361E-01 0.90899340E+02</pdfrwt>
<totfact> 0.62947387E+04</totfact>
</mgrwt>
</event>
<event>
 5    1  0.1197825E+001  0.9132175E+02  0.7546771E-02  0.1299682E+00
         -2   -1    0    0    0  501 -0.00000000000E+00  0.00000000000E+00  0.71081881047E+01  0.71081881047E+01  0.00000000000E+00 0. -1.
          2   -1    0    0  501    0  0.00000000000E+00 -0.00000000000E+00 -0.29331182149E+03  0.29331182149E+03  0.00000000000E+00 0.  1.
         23    2    1    2    0    0  0.00000000000E+00  0.00000000000E+00 -0.28620363339E+03  0.30042000960E+03  0.91321752075E+02 0.  0.
        -13    1    3    3    0    0  0.39655846386E+02 -0.21968106292E+02 -0.16103943939E+03  0.16729878925E+03  0.00000000000E+00 0.  1.
         13    1    3    3    0    0 -0.39655846386E+02  0.21968106292E+02 -0.12516419400E+03  0.13312122034E+03  0.00000000000E+00 0. -1.
<mgrwt>
<rscale>  0 0.91321752E+02</rscale>
<asrwt>0</asrwt>
<pdfrwt beam="2">  1        2 0.45124890E-01 0.91321752E+02</pdfrwt>
<pdfrwt beam="1">  1       -2 0.10935675E-02 0.91321752E+02</pdfrwt>
<totfact> 0.17740305E+05</totfact>
</mgrwt>
</event>
